#     DFTpy    
  CRYSTAL 
    
  PRIMVEC    
  5.838344827586211    0.0    0.0    
  0.0    5.838344827586211    0.0    
  0.0    0.0    3.21655172413793    
  PRIMCOORD    
  4    1    
  Si    0.0    0.0    0.0    
  Si    2.9191724137931008    2.9191724137931008    1.6082758620689703    
  Si    0.0    2.9191724137931008    0.8041379310344802    
  Si    2.9191724137931008    0.0    2.4124137931034504    
  BEGIN_BLOCK_DATAGRID_3D    
  3d_datagrid_density    
  BEGIN_DATAGRID_3D#0    
  61    61    31    
  0.0    0.0    0.0    
  5.83834484936335    0.0    0.0    
  0.0    5.83834484936335    0.0    
  0.0    0.0    3.2165517361357296    
  0.05773582797413334    0.06492648214695823    0.08842387049223183    0.13205597862082646    0.19579822287226908    
  0.2694659105023722    0.333473139412111    0.3693944520639645    0.3711240107948476    0.3460301109476836    
  0.3072839616723675    0.26619277202645475    0.22944456738769375    0.19993434517335296    0.17837193133644746    
  0.16443377412846272    0.1574540619324656    0.1568263586313795    0.1621362792323691    0.17305148980099497    
  0.1891011210931036    0.20949688214644221    0.2330551105029227    0.2581922928139251    0.28299273751675186    
  0.3054308361451802    0.32379685304826106    0.3371756998887983    0.3456636156068735    0.35010491981377095    
  0.3514498159255682    0.35010491981377095    0.34566361560687353    0.3371756998887983    0.3237968530482611    
  0.30543083614518024    0.28299273751675186    0.2581922928139251    0.23305511050292266    0.20949688214644221    
  0.1891011210931036    0.1730514898009949    0.16213627923236912    0.15682635863137953    0.15745406193246558    
  0.16443377412846272    0.17837193133644746    0.19993434517335296    0.22944456738769375    0.26619277202645475    
  0.3072839616723675    0.3460301109476836    0.3711240107948476    0.36939445206396443    0.333473139412111    
  0.2694659105023722    0.19579822287226908    0.13205597862082646    0.08842387049223187    0.06492648214695816    
  0.05773582797413334    0.06492648214695822    0.0724516531739442    0.09675809507016028    0.14106247495161892    
  0.204465902694533    0.27623942086828873    0.33716910998415067    0.36992863316612695    0.3693905161870587    
  0.3432005837694148    0.30423542614166565    0.2633685587283823    0.22698105018807901    0.1978173058536514    
  0.1765303062132543    0.1627807341076384    0.15590258304168453    0.15529354537378848    0.16054315666500715    
  0.1713238993716871    0.18717532123364877    0.20732957194729523    0.2306352400576541    0.25555177208238933    
  0.28021165144602544    0.3026293848585463    0.3211074911289263    0.3347002274283135    0.34343391938689183    
  0.34806813099443296    0.3494857723265996    0.34806813099443296    0.3434339193868919    0.3347002274283135    
  0.3211074911289263    0.30262938485854635    0.28021165144602544    0.2555517720823894    0.23063524005765404    
  0.20732957194729518    0.18717532123364877    0.17132389937168707    0.16054315666500715    0.15529354537378848    
  0.1559025830416845    0.16278073410763838    0.17653030621325425    0.19781730585365137    0.22698105018807896    
  0.2633685587283823    0.30423542614166565    0.3432005837694148    0.3693905161870587    0.3699286331661269    
  0.3371691099841506    0.2762394208682887    0.20446590269453296    0.14106247495161897    0.09675809507016038    
  0.07245165317394416    0.06492648214695822    0.08842387049223183    0.09675809507016034    0.12288352705585362    
  0.1682278959410164    0.22956973157802973    0.2950153162367765    0.3467238808915599    0.3704946794610041    
  0.3637459571270678    0.3346869273856358    0.2952653931194272    0.2551278357676239    0.21981280320177704    
  0.19165713351313898    0.17116199386830527    0.15794874462544156    0.15135498914951642    0.15079283192946644    
  0.15586372724116535    0.16625316064289974    0.1815288440739539    0.2009789626128629    0.2235406980143074    
  0.24779158605420287    0.2719976880645794    0.2942878227477536    0.31300556567258375    0.3271292901057704    
  0.336498661940586    0.3416409041899496    0.3432515800777488    0.3416409041899496    0.336498661940586    
  0.3271292901057704    0.31300556567258375    0.29428782274775367    0.2719976880645794    0.24779158605420287    
  0.22354069801430734    0.20097896261286288    0.1815288440739539    0.16625316064289974    0.15586372724116535    
  0.15079283192946646    0.15135498914951642    0.15794874462544153    0.17116199386830527    0.19165713351313898    
  0.2198128032017771    0.2551278357676238    0.2952653931194272    0.3346869273856358    0.36374595712706775    
  0.3704946794610041    0.3467238808915599    0.29501531623677657    0.22956973157802973    0.16822789594101642    
  0.12288352705585366    0.09675809507016027    0.08842387049223183    0.13205597862082644    0.14106247495161892    
  0.16822789594101634    0.21237847126749715    0.26747581535695325    0.3209802650712302    0.3578436080033345    
  0.3683874632055516    0.353127193386742    0.32051437261349347    0.28089518659354645    0.2421192985664305    
  0.20855422128941625    0.18198361246763398    0.16270779224758797    0.15030448812830743    0.1441285515380616    
  0.1436212229966309    0.1484038803817984    0.15817946030427044    0.17255383441471978    0.19089357579053612    
  0.2122604307506496    0.2353980778511634    0.25876336698756447    0.28065654259964784    0.29949926261406873    
  0.314187867705829    0.3243182899249126    0.3300973605442474    0.33195447064660616    0.3300973605442474    
  0.32431828992491263    0.314187867705829    0.29949926261406873    0.28065654259964784    0.25876336698756447    
  0.2353980778511634    0.21226043075064954    0.19089357579053612    0.17255383441471975    0.15817946030427044    
  0.14840388038179844    0.1436212229966309    0.14412855153806156    0.15030448812830743    0.16270779224758794    
  0.18198361246763395    0.20855422128941625    0.2421192985664305    0.28089518659354645    0.32051437261349347    
  0.353127193386742    0.3683874632055516    0.3578436080033344    0.3209802650712302    0.26747581535695336    
  0.21237847126749712    0.16822789594101642    0.1410624749516189    0.13205597862082644    0.1957982228722691    
  0.20446590269453296    0.22956973157802968    0.26747581535695325    0.3102464738413703    0.3462753351848037    
  0.36461497316030683    0.3603723493793303    0.33653823811606787    0.3010012320477429    0.2619780993193621    
  0.225297267650414    0.19408691297654762    0.16956012696479386    0.1518177833797271    0.14040989009680996    
  0.13473130319411183    0.13427009979233154    0.13867440163110004    0.14766452666660718    0.16088568167850004    
  0.17779002487935022    0.19757665727581847    0.2191724289173988    0.24124821473343094    0.2623084397855635    
  0.2808926003959344    0.2958496039290777    0.3065461813674921    0.3128592609192002    0.3149318803619522    
  0.31285926091920013    0.3065461813674922    0.29584960392907766    0.2808926003959344    0.26230843978556356    
  0.24124821473343094    0.2191724289173988    0.1975766572758184    0.1777900248793502    0.16088568167850004    
  0.14766452666660718    0.13867440163110006    0.13427009979233154    0.13473130319411183    0.14040989009680996    
  0.15181778337972707    0.16956012696479386    0.19408691297654762    0.22529726765041405    0.2619780993193621    
  0.3010012320477429    0.33653823811606787    0.36037234937933027    0.36461497316030683    0.3462753351848037    
  0.3102464738413703    0.26747581535695325    0.22956973157802968    0.2044659026945329    0.1957982228722691    
  0.2694659105023722    0.27623942086828873    0.29501531623677646    0.3209802650712302    0.34627533518480363    
  0.36196502737131386    0.3616232347684884    0.3441916864104766    0.31380605449717935    0.2769877766111824    
  0.2396690745751704    0.20580191348681626    0.1774268656014424    0.1552656299027232    0.1392570027408427    
  0.12895179158549003    0.12381017294780795    0.12338276261630737    0.12734828018807276    0.1354409284304393    
  0.14734016536483546    0.1625793914807026    0.18049019089696394    0.20017601208727515    0.22051720246656664    
  0.2402301622966907    0.2580039066898176    0.2726974608510423    0.28351834604573095    0.2900748977745106    
  0.2922620467776086    0.2900748977745106    0.28351834604573095    0.2726974608510423    0.25800390668981754    
  0.24023016229669075    0.22051720246656664    0.20017601208727512    0.18049019089696391    0.16257939148070255    
  0.14734016536483546    0.13544092843043928    0.1273482801880728    0.12338276261630737    0.12381017294780795    
  0.12895179158549003    0.1392570027408427    0.1552656299027232    0.1774268656014424    0.20580191348681626    
  0.23966907457517034    0.2769877766111824    0.31380605449717935    0.3441916864104766    0.36162323476848834    
  0.36196502737131386    0.34627533518480363    0.3209802650712302    0.2950153162367765    0.2762394208682887    
  0.2694659105023722    0.333473139412111    0.3371691099841507    0.3467238808915599    0.3578436080033345    
  0.3646149731603069    0.3616232347684884    0.3462522295634335    0.31969273518256436    0.2859684895944183    
  0.24987866880143408    0.21534794862425988    0.1848553952230249    0.15962084607017785    0.13999770702221545    
  0.12581609326005966    0.11665829439457796    0.11206899104147776    0.11166946083901574    0.115169025052253    
  0.1223116168645509    0.13280410475711973    0.14625099032476657    0.16210199292039873    0.17961843229553318    
  0.1978699711249901    0.215773887400179    0.23218451623091033    0.24602763930093785    0.25644395371910467    
  0.26287475228630874    0.26504389394911315    0.26287475228630874    0.25644395371910467    0.24602763930093785    
  0.23218451623091033    0.21577388740017905    0.1978699711249901    0.17961843229553318    0.16210199292039865    
  0.14625099032476654    0.1328041047571197    0.1223116168645509    0.11516902505225303    0.11166946083901577    
  0.11206899104147776    0.11665829439457796    0.12581609326005966    0.13999770702221545    0.15962084607017785    
  0.1848553952230249    0.21534794862425988    0.24987866880143408    0.2859684895944183    0.3196927351825643    
  0.3462522295634335    0.3616232347684884    0.3646149731603069    0.3578436080033345    0.3467238808915599    
  0.3371691099841507    0.333473139412111    0.36939445206396443    0.3699286331661269    0.37049467946100406    
  0.3683874632055516    0.3603723493793303    0.3441916864104766    0.3196927351825643    0.288899687603899    
  0.25506490416325467    0.22143775211278188    0.1904754839589965    0.16366055368363297    0.14166544597884095    
  0.12459941829304316    0.11223834655960535    0.10422007309335353    0.10018024667929931    0.09980862530659422    
  0.10284253076974204    0.10903430947392038    0.11811384603223792    0.12974538496839255    0.14347871871185344    
  0.15871028012318056    0.17467360056193387    0.19046558840646868    0.20510553462324518    0.21762566862476002    
  0.22718328744481064    0.23315729359304152    0.2351869650530457    0.23315729359304152    0.22718328744481064    
  0.21762566862476002    0.20510553462324518    0.1904655884064687    0.17467360056193384    0.15871028012318056    
  0.14347871871185336    0.1297453849683925    0.11811384603223792    0.10903430947392038    0.10284253076974204    
  0.09980862530659423    0.1001802466792993    0.10422007309335353    0.11223834655960535    0.12459941829304316    
  0.14166544597884093    0.16366055368363297    0.1904754839589965    0.22143775211278188    0.25506490416325467    
  0.288899687603899    0.31969273518256425    0.34419168641047665    0.36037234937933044    0.36838746320555155    
  0.37049467946100406    0.3699286331661269    0.36939445206396443    0.3711240107948476    0.3693905161870587    
  0.36374595712706775    0.353127193386742    0.33653823811606787    0.31380605449717935    0.2859684895944183    
  0.2550649041632546    0.22350628822957694    0.19344089729522387    0.16640795777689985    0.14329052221605693    
  0.12443101541266366    0.10979944824765175    0.09916424708415762    0.09223069560656451    0.088717378072804    
  0.08837174167785039    0.0909567004152217    0.09623688188596084    0.10396532227109534    0.11385574785618804    
  0.12553872197920207    0.13852191050134235    0.15217660900932692    0.16575464935275977    0.17842885545299506    
  0.18935714781906834    0.19777113265291008    0.20306873052926683    0.2048762452606748    0.20306873052926683    
  0.19777113265291008    0.18935714781906832    0.17842885545299503    0.16575464935275977    0.15217660900932692    
  0.13852191050134233    0.12553872197920202    0.11385574785618802    0.10396532227109534    0.09623688188596083    
  0.09095670041522172    0.08837174167785039    0.088717378072804    0.09223069560656451    0.09916424708415761    
  0.10979944824765175    0.12443101541266366    0.14329052221605693    0.16640795777689985    0.19344089729522387    
  0.223506288229577    0.25506490416325456    0.2859684895944183    0.31380605449717935    0.33653823811606787    
  0.3531271933867419    0.36374595712706775    0.3693905161870587    0.3711240107948476    0.3460301109476836    
  0.34320058376941476    0.33468692738563577    0.32051437261349347    0.30100123204774293    0.2769877766111824    
  0.24987866880143408    0.22143775211278188    0.19344089729522393    0.1673661478462507    0.14423235880987711    
  0.12458738882900901    0.10859439183823048    0.09616502167924797    0.08709360831967951    0.0811507896307472    
  0.07811917142494368    0.07778939331494951    0.07994983738179079    0.08438570176776378    0.0908769513366589    
  0.09917837676767843    0.10898232158733434    0.11988359394911105    0.13136538553100235    0.14280937584348666    
  0.15352502761777187    0.16279911527957058    0.16996765302278713    0.1744965981296268    0.176045000540719    
  0.17449659812962678    0.16996765302278713    0.16279911527957058    0.15352502761777187    0.14280937584348669    
  0.13136538553100235    0.11988359394911105    0.1089823215873343    0.09917837676767839    0.0908769513366589    
  0.08438570176776375    0.07994983738179083    0.07778939331494951    0.07811917142494368    0.0811507896307472    
  0.08709360831967951    0.09616502167924795    0.10859439183823048    0.12458738882900901    0.14423235880987711    
  0.1673661478462507    0.19344089729522393    0.22143775211278188    0.24987866880143406    0.27698777661118246    
  0.30100123204774293    0.32051437261349347    0.3346869273856358    0.3432005837694147    0.3460301109476836    
  0.3072839616723675    0.30423542614166565    0.29526539311942707    0.28089518659354645    0.2619780993193621    
  0.23966907457517034    0.21534794862425985    0.19047548395899655    0.1664079577768998    0.14423235880987703    
  0.1246756617720912    0.1081052034591399    0.09460350548050943    0.08407933105581482    0.07636898365224537    
  0.0712952394321865    0.06868243004904195    0.06835146569241424    0.07011786227903187    0.07379593152023789    
  0.07919666081461943    0.08610938752118417    0.09427196524913958    0.1033442619916701    0.11289675439797506    
  0.12241674011993708    0.13133127387765534    0.1390485327770583    0.14501690511076856    0.14879024782776665    
  0.15008097823491062    0.14879024782776665    0.14501690511076856    0.1390485327770583    0.13133127387765534    
  0.12241674011993711    0.11289675439797506    0.10334426199167011    0.09427196524913951    0.08610938752118415    
  0.07919666081461943    0.07379593152023788    0.07011786227903188    0.06835146569241424    0.06868243004904197    
  0.0712952394321865    0.07636898365224536    0.0840793310558148    0.09460350548050943    0.1081052034591399    
  0.12467566177209118    0.14423235880987703    0.1664079577768998    0.19047548395899644    0.21534794862425985    
  0.2396690745751704    0.2619780993193621    0.2808951865935464    0.2952653931194272    0.30423542614166565    
  0.3072839616723675    0.2661927720264548    0.26336855872838233    0.2551278357676238    0.2421192985664305    
  0.22529726765041405    0.20580191348681623    0.18485539522302488    0.16366055368363297    0.14329052221605693    
  0.12458738882900901    0.10810520345913989    0.09411895302312542    0.08268986926906817    0.07375216267066102    
  0.06718346403593986    0.06284135994191997    0.060574242261891974    0.060225079016877583    0.0616373095002821    
  0.06465794832260749    0.06912962609457617    0.07487116941157994    0.08165469725955493    0.08918820395410854    
  0.09710845209690971    0.10498628285041298    0.11234670968784437    0.11870496709467686    0.12361426441755441    
  0.12671511923743162    0.12777542772912778    0.12671511923743156    0.12361426441755441    0.11870496709467686    
  0.11234670968784437    0.104986282850413    0.09710845209690971    0.08918820395410854    0.08165469725955486    
  0.07487116941157991    0.06912962609457617    0.06465794832260748    0.06163730950028212    0.060225079016877604    
  0.060574242261891974    0.06284135994191997    0.06718346403593985    0.07375216267066101    0.08268986926906817    
  0.09411895302312544    0.10810520345913989    0.12458738882900901    0.14329052221605693    0.16366055368363294    
  0.18485539522302485    0.20580191348681626    0.22529726765041405    0.2421192985664305    0.2551278357676239    
  0.2633685587283823    0.2661927720264548    0.22944456738769387    0.22698105018807901    0.21981280320177704    
  0.2085542212894162    0.19408691297654762    0.17742686560144244    0.15962084607017787    0.14166544597884095    
  0.12443101541266367    0.10859439183823048    0.09460350548050947    0.0826898692690682    0.07291986545644547    
  0.06525684920132095    0.059608682783315006    0.05585402315879983    0.0538567713749553    0.053478468788219574    
  0.054587933531170064    0.05706090802041817    0.06076701605941365    0.06555003493322119    0.07121018109148093    
  0.07749299406883042    0.08408593955185373    0.0906249517991206    0.09671407315087066    0.1019572376665999    
  0.10599554098091353    0.10854247834451414    0.10941283866036228    0.10854247834451414    0.10599554098091352    
  0.10195723766659996    0.09671407315087066    0.0906249517991206    0.08408593955185373    0.07749299406883042    
  0.07121018109148089    0.06555003493322115    0.06076701605941365    0.05706090802041815    0.054587933531170085    
  0.05347846878821958    0.053856771374955315    0.05585402315879983    0.05960868278331498    0.06525684920132094    
  0.07291986545644547    0.0826898692690682    0.09460350548050947    0.10859439183823048    0.12443101541266367    
  0.14166544597884095    0.15962084607017785    0.17742686560144244    0.19408691297654762    0.20855422128941623    
  0.2198128032017771    0.22698105018807896    0.22944456738769387    0.199934345173353    0.19781730585365137    
  0.19165713351313896    0.18198361246763395    0.16956012696479386    0.15526562990272313    0.1399977070222154    
  0.12459941829304312    0.10979944824765175    0.09616502167924794    0.08407933105581479    0.07375216267066101    
  0.0652568492013209    0.058574764942614904    0.05363124838361185    0.050319512554571316    0.048518190722967404    
  0.048106253423950404    0.04897187880972503    0.05100993066863781    0.05410849858288544    0.05813130369210481    
  0.06290296856956092    0.06820022362103158    0.0737504582147967    0.07924034228282716    0.08433601285957634    
  0.0887108180362809    0.09207331931779103    0.09419173207886927    0.0949153762306437    0.09419173207886927    
  0.09207331931779103    0.08871081803628089    0.08433601285957634    0.07924034228282717    0.0737504582147967    
  0.06820022362103155    0.06290296856956089    0.05813130369210478    0.054108498582885425    0.051009930668637786    
  0.04897187880972506    0.04810625342395042    0.04851819072296742    0.050319512554571316    0.05363124838361183    
  0.0585747649426149    0.0652568492013209    0.07375216267066101    0.08407933105581482    0.09616502167924794    
  0.10979944824765175    0.12459941829304312    0.13999770702221534    0.15526562990272316    0.16956012696479386    
  0.18198361246763395    0.19165713351313898    0.19781730585365137    0.199934345173353    0.17837193133644746    
  0.1765303062132543    0.17116199386830522    0.1627077922475879    0.15181778337972712    0.1392570027408427    
  0.1258160932600596    0.11223834655960536    0.09916424708415761    0.08709360831967945    0.07636898365224537    
  0.06718346403593986    0.05960868278331496    0.05363124838361183    0.049185553850280124    0.04617777849252526    
  0.04450252061908013    0.0440543260039587    0.044733385063200945    0.04644340281757107    0.0490820010938637    
  0.05252703567489521    0.05662314111809109    0.06117251408535971    0.06593404222482112    0.07063384047487481    
  0.07498571079555041    0.07871477534202251    0.08157795397493278    0.08338125678921711    0.08399727949018344    
  0.08338125678921705    0.08157795397493278    0.07871477534202251    0.07498571079555041    0.07063384047487484    
  0.06593404222482112    0.06117251408535968    0.05662314111809104    0.05252703567489517    0.04908200109386371    
  0.046443402817571054    0.04473338506320098    0.044054326003958706    0.04450252061908014    0.04617777849252525    
  0.04918555385028012    0.053631248383611815    0.05960868278331496    0.06718346403593985    0.07636898365224537    
  0.08709360831967945    0.09916424708415762    0.11223834655960535    0.1258160932600596    0.1392570027408427    
  0.15181778337972712    0.1627077922475879    0.17116199386830525    0.1765303062132543    0.17837193133644746    
  0.16443377412846266    0.16278073410763838    0.15794874462544148    0.1503044881283074    0.14040989009681    
  0.12895179158549003    0.11665829439457794    0.10422007309335353    0.09223069560656454    0.08115078963074716    
  0.07129523943218653    0.06284135994191999    0.05585402315879981    0.05031951255457134    0.04617777849252529    
  0.04334596670826468    0.04173210407991921    0.04124183479553367    0.04178115926861947    0.043255905849992046    
  0.0455668730828198    0.048599964579478794    0.05221341919782741    0.05622777912360439    0.06042531071643026    
  0.06456170931433786    0.06838586860504153    0.07165954757149881    0.07417244223462541    0.07575543974636144    
  0.07629633334935923    0.07575543974636141    0.07417244223462541    0.07165954757149881    0.06838586860504153    
  0.06456170931433788    0.06042531071643026    0.05622777912360439    0.05221341919782735    0.048599964579478766    
  0.0455668730828198    0.043255905849992025    0.04178115926861949    0.041241834795533686    0.041732104079919216    
  0.04334596670826468    0.04617777849252526    0.050319512554571316    0.055854023158799816    0.06284135994191997    
  0.07129523943218655    0.08115078963074716    0.09223069560656455    0.10422007309335349    0.11665829439457787    
  0.12895179158549006    0.14040989009680996    0.1503044881283074    0.1579487446254415    0.16278073410763838    
  0.16443377412846266    0.15745406193246556    0.15590258304168453    0.1513549891495164    0.1441285515380615    
  0.13473130319411183    0.12381017294780795    0.11206899104147772    0.1001802466792993    0.088717378072804    
  0.07811917142494364    0.06868243004904197    0.06057424226189198    0.053856771374955245    0.0485181907229674    
  0.044502520619080096    0.04173210407991918    0.040120389493702405    0.039577123771877484    0.040009898281426225    
  0.04132421213590103    0.04342085410252864    0.04618829328124052    0.04949105647046656    0.05316019361553886    
  0.05699327075159767    0.06076612257883635    0.06425094882942264    0.06723278554627371    0.0695215436246486    
  0.07096353196875449    0.07145629914797029    0.07096353196875446    0.0695215436246486    0.06723278554627372    
  0.0642509488294227    0.060766122578836367    0.056993270751597665    0.053160193615538844    0.04949105647046651    
  0.04618829328124049    0.04342085410252865    0.041324212135901005    0.04000989828142624    0.0395771237718775    
  0.040120389493702426    0.04173210407991917    0.04450252061908009    0.04851819072296738    0.053856771374955245    
  0.06057424226189196    0.06868243004904197    0.07811917142494364    0.088717378072804    0.10018024667929927    
  0.11206899104147772    0.12381017294780795    0.13473130319411183    0.1441285515380615    0.1513549891495164    
  0.1559025830416845    0.15745406193246556    0.15682635863137956    0.15529354537378848    0.15079283192946638    
  0.14362122299663085    0.13427009979233157    0.12338276261630737    0.11166946083901574    0.09980862530659423    
  0.08837174167785036    0.07778939331494945    0.06835146569241422    0.060225079016877604    0.05347846878821956    
  0.04810625342395042    0.0440543260039587    0.041241834795533686    0.039577123771877505    0.03896616098314958    
  0.039314816229078176    0.04052755098241133    0.04250354067256265    0.04512952180376005    0.04827010458972331    
  0.0517601741293662    0.05540541325281864    0.05899277909284208    0.06230633673775838    0.06514189874303891    
  0.06731843943821707    0.06868961855111225    0.06915814479866086    0.0686896185511122    0.06731843943821707    
  0.06514189874303891    0.06230633673775839    0.05899277909284209    0.05540541325281863    0.05176017412936616    
  0.048270104589723264    0.04512952180376005    0.042503540672562644    0.04052755098241132    0.039314816229078196    
  0.0389661609831496    0.03957712377187751    0.04124183479553368    0.04405432600395869    0.048106253423950404    
  0.05347846878821956    0.060225079016877604    0.06835146569241424    0.07778939331494947    0.08837174167785038    
  0.0998086253065942    0.11166946083901572    0.12338276261630737    0.13427009979233154    0.14362122299663085    
  0.15079283192946638    0.15529354537378848    0.15682635863137956    0.1621362792323691    0.16054315666500715    
  0.15586372724116532    0.14840388038179836    0.1386744016311001    0.12734828018807276    0.11516902505225303    
  0.10284253076974205    0.09095670041522172    0.07994983738179078    0.07011786227903194    0.061637309500282136    
  0.05458793353117005    0.048971878809725075    0.04473338506320099    0.0417811592686195    0.04000989828142625    
  0.03931481622907819    0.039596050877587476    0.04075508087902766    0.04268757972936433    0.04527551830120426    
  0.048379573936258864    0.051833814183820694    0.055446141884865296    0.059006415383174284    0.06229992007175769    
  0.06512159385222076    0.06728881257629422    0.06865435065297466    0.0691209405193135    0.06865435065297465    
  0.06728881257629424    0.06512159385222076    0.06229992007175769    0.05900641538317431    0.055446141884865296    
  0.05183381418382068    0.0483795739362588    0.04527551830120424    0.04268757972936433    0.04075508087902764    
  0.039596050877587496    0.0393148162290782    0.040009898281426266    0.041781159268619486    0.04473338506320098    
  0.04897187880972505    0.05458793353117005    0.061637309500282116    0.07011786227903195    0.07994983738179078    
  0.09095670041522173    0.10284253076974202    0.11516902505225297    0.1273482801880728    0.1386744016311001    
  0.1484038803817984    0.15586372724116535    0.16054315666500715    0.1621362792323691    0.17305148980099494    
  0.17132389937168707    0.1662531606428997    0.15817946030427044    0.1476645266666072    0.13544092843043928    
  0.1223116168645509    0.10903430947392038    0.09623688188596086    0.08438570176776375    0.07379593152023788    
  0.06465794832260752    0.05706090802041812    0.05100993066863784    0.04644340281757106    0.043255905849992046    
  0.04132421213590103    0.04052755098241134    0.04075508087902765    0.041901211724431654    0.04385546690986488    
  0.046493119309862115    0.04966862573698608    0.053211700765374126    0.056927101146818725    0.060600179127978625    
  0.06400829457122842    0.06693543377821087    0.06918746752800567    0.07060777307116566    0.07109326144435431    
  0.07060777307116566    0.0691874675280057    0.06693543377821087    0.06400829457122843    0.060600179127978646    
  0.056927101146818725    0.05321170076537411    0.04966862573698604    0.04649311930986212    0.04385546690986486    
  0.04190121172443163    0.04075508087902765    0.04052755098241134    0.041324212135901046    0.04325590584999205    
  0.04644340281757105    0.05100993066863781    0.05706090802041812    0.0646579483226075    0.07379593152023788    
  0.08438570176776375    0.09623688188596084    0.10903430947392038    0.12231161686455087    0.1354409284304393    
  0.14766452666660723    0.15817946030427044    0.16625316064289974    0.17132389937168704    0.17305148980099494    
  0.18910112109310356    0.18717532123364877    0.18152884407395387    0.17255383441471966    0.16088568167850004    
  0.1473401653648355    0.13280410475711965    0.11811384603223792    0.1039653222710953    0.09087695133665889    
  0.07919666081461946    0.06912962609457618    0.06076701605941363    0.05410849858288544    0.049082001093863716    
  0.045566873082819793    0.04342085410252862    0.042503540672562644    0.04268757972936432    0.04385546690986489    
  0.04588802469426603    0.048652764335492524    0.05199618000720948    0.055739745791114174    0.05967918257603748    
  0.06358840155854405    0.06722940683772453    0.07036722818918166    0.0727877445702648    0.07431694400142624    
  0.07484008757611102    0.07431694400142623    0.07278774457026477    0.07036722818918167    0.06722940683772455    