#     DFTpy    
  CRYSTAL 
    
  PRIMVEC    
  4.24606896551724    0.0    0.0    
  0.0    4.24606896551724    0.0    
  0.0    0.0    2.3393103448275903    
  PRIMCOORD    
  4    1    
  Si    0.0    0.0    0.0    
  Si    2.1230344827586203    2.1230344827586203    1.1696551724137902    
  Si    0.0    2.1230344827586203    0.5848275862069001    
  Si    2.1230344827586203    0.0    1.7544827586206904    
  BEGIN_BLOCK_DATAGRID_3D    
  3d_datagrid_density    
  BEGIN_DATAGRID_3D#0    
  41    41    25    
  0.0    0.0    0.0    
  4.246068981355158    0.0    0.0    
  0.0    4.246068981355158    0.0    
  0.0    0.0    2.3393103535532624    
  0.04761847016317192    0.05630662114235897    0.08623693763264602    0.14610425023252538    0.2397486756081726    
  0.3544631631475238    0.4620308726343139    0.5369190680964175    0.5727478692813166    0.5804403809921959    
  0.5752278599611315    0.5673917149336547    0.5604746381848756    0.5527839859842804    0.5395925783945734    
  0.5164209737111439    0.4828330153969565    0.4439483302070892    0.40818368065618826    0.383422253602289    
  0.37463075843543747    0.38342225360228904    0.40818368065618826    0.4439483302070892    0.4828330153969565    
  0.5164209737111438    0.5395925783945733    0.5527839859842805    0.5604746381848756    0.5673917149336547    
  0.5752278599611315    0.5804403809921957    0.5727478692813166    0.5369190680964177    0.46203087263431397    
  0.3544631631475239    0.2397486756081726    0.14610425023252538    0.08623693763264602    0.05630662114235897    
  0.04761847016317192    0.056306621142358924    0.06559022192257369    0.09698783988372302    0.15810749412290015    
  0.25115136895967205    0.36245037800947294    0.464641294362976    0.5342369276992667    0.5663682181803549    
  0.5721535171386735    0.5662528135133638    0.5583828949681268    0.5518461503497044    0.5449979667349832    
  0.5332809635316424    0.5122843448632365    0.4813543143939994    0.445129355712108    0.4115226604687522    
  0.3881132188494025    0.37977477161075374    0.38811321884940253    0.4115226604687522    0.445129355712108    
  0.4813543143939994    0.5122843448632365    0.5332809635316426    0.5449979667349834    0.5518461503497044    
  0.5583828949681268    0.5662528135133638    0.5721535171386735    0.5663682181803549    0.5342369276992667    
  0.464641294362976    0.362450378009473    0.25115136895967205    0.15810749412290012    0.09698783988372302    
  0.06559022192257365    0.056306621142358924    0.08623693763264602    0.096987839883723    0.1317385203124694    
  0.19486648413275365    0.2842809401906162    0.3843886642025706    0.4707777313955813    0.5255729771423737    
  0.5476493400552851    0.5483256892132575    0.5405877441987731    0.5326192615998951    0.5270852723111528    
  0.5224714574398979    0.514691391648039    0.49956689655544256    0.47592066733639155    0.4471161413839708    
  0.41964798061281644    0.4001531901890035    0.393141089730881    0.4001531901890035    0.41964798061281644    
  0.44711614138397093    0.47592066733639155    0.49956689655544256    0.5146913916480389    0.522471457439898    
  0.5270852723111528    0.5326192615998951    0.5405877441987731    0.5483256892132574    0.5476493400552851    
  0.5255729771423738    0.4707777313955813    0.3843886642025707    0.2842809401906162    0.19486648413275365    
  0.13173852031246938    0.09698783988372302    0.08623693763264602    0.14610425023252535    0.1581074941229001    
  0.1948664841327537    0.25605580984431503    0.33459950155782386    0.41422657546992564    0.4760003058079994    
  0.5095932346220305    0.5179550340987381    0.5118423428216092    0.5016753978783679    0.4935621263857216    
  0.4893353939595717    0.48764978106186024    0.48507516447771065    0.47785723110613    0.4642735666076371    
  0.4460412787179947    0.42761088840854267    0.4140508719373292    0.4090857680888181    0.4140508719373292    
  0.42761088840854267    0.4460412787179947    0.4642735666076371    0.47785723110613    0.48507516447771065    
  0.48764978106186024    0.4893353939595717    0.4935621263857216    0.5016753978783679    0.5118423428216092    
  0.5179550340987381    0.5095932346220307    0.47600030580799957    0.4142265754699257    0.33459950155782386    
  0.2560558098443151    0.1948664841327537    0.1581074941229001    0.14610425023252535    0.2397486756081725    
  0.25115136895967194    0.2842809401906162    0.33459950155782375    0.3921175930336728    0.44284279613148686    
  0.47504956440057067    0.48552012655505467    0.47977961310546463    0.46688914957517813    0.454305925220629    
  0.4460444250918421    0.44312352067656124    0.4443422996590744    0.44694487383926834    0.44773529547526697    
  0.44464700930188944    0.43784351426504725    0.4295573216465089    0.4228798862700414    0.420335328642441    
  0.4228798862700414    0.4295573216465089    0.43784351426504714    0.44464700930188944    0.44773529547526697    
  0.44694487383926834    0.4443422996590744    0.44312352067656124    0.4460444250918421    0.4543059252206289    
  0.46688914957517813    0.47977961310546463    0.4855201265550548    0.47504956440057067    0.44284279613148686    
  0.3921175930336727    0.3345995015578238    0.2842809401906162    0.25115136895967194    0.2397486756081725    
  0.3544631631475238    0.362450378009473    0.3843886642025707    0.4142265754699257    0.44284279613148686    
  0.46118586782371684    0.4645012692695221    0.4543485920394795    0.4367107890114125    0.41823469471808333    
  0.40365875372342713    0.3952938380740598    0.3934972416647478    0.3971436751410957    0.40402463687761525    
  0.4114991693035873    0.41738578748508853    0.4206729650952881    0.4216532375248939    0.4214497948615291    
  0.4212215861434238    0.42144979486152917    0.4216532375248939    0.4206729650952881    0.41738578748508853    
  0.4114991693035873    0.40402463687761525    0.3971436751410958    0.39349724166474775    0.3952938380740599    
  0.4036587537234272    0.4182346947180834    0.4367107890114125    0.4543485920394795    0.46450126926952223    
  0.46118586782371696    0.44284279613148686    0.4142265754699257    0.3843886642025707    0.36245037800947294    
  0.3544631631475238    0.4620308726343139    0.4646412943629759    0.4707777313955814    0.4760003058079994    
  0.47504956440057067    0.464501269269522    0.44462342067567817    0.419087216007085    0.39293047861929414    
  0.37049627852355677    0.35450871550441027    0.3461123557915444    0.3451911424261989    0.35063478218841754    
  0.3606045129938602    0.37288548953275436    0.3852954342474035    0.39606255648314165    0.40407389669780014    
  0.4088865028856333    0.41047543514935325    0.4088865028856333    0.40407389669780014    0.3960625564831416    
  0.3852954342474035    0.37288548953275436    0.3606045129938602    0.35063478218841765    0.3451911424261989    
  0.3461123557915444    0.35450871550441027    0.3704962785235568    0.39293047861929414    0.4190872160070851    
  0.44462342067567817    0.4645012692695221    0.47504956440057067    0.4760003058079994    0.4707777313955814    
  0.464641294362976    0.4620308726343139    0.5369190680964175    0.5342369276992667    0.5255729771423737    
  0.5095932346220305    0.4855201265550548    0.4543485920394795    0.4190872160070851    0.38382491295770466    
  0.35239127213144056    0.32751590421165344    0.3106863052737928    0.3023335940666503    0.30203177799374015    
  0.30867374031151673    0.3206533703141407    0.33601595777502713    0.35257677242982155    0.36810538274684057    
  0.3806214919066401    0.38867463324500473    0.39144407174575185    0.38867463324500456    0.3806214919066401    
  0.36810538274684046    0.35257677242982155    0.3360159577750271    0.32065337031414065    0.30867374031151684    
  0.30203177799374015    0.3023335940666503    0.3106863052737928    0.32751590421165344    0.35239127213144056    
  0.38382491295770466    0.4190872160070851    0.45434859203947964    0.48552012655505467    0.5095932346220305    
  0.5255729771423737    0.5342369276992667    0.5369190680964175    0.5727478692813166    0.5663682181803549    
  0.547649340055285    0.5179550340987381    0.4797796131054647    0.43671078901141264    0.39293047861929425    
  0.35239127213144056    0.31812204939577543    0.2919830446775596    0.2747913121366241    0.26655180259312117    
  0.2666518220783951    0.2740140288492022    0.2871904140235106    0.3043598964332263    0.32329919595894296    
  0.3415000562381127    0.3565085950506184    0.3663404172296018    0.3697556087564025    0.3663404172296018    
  0.3565085950506184    0.34150005623811264    0.32329919595894296    0.30435989643322636    0.28719041402351053    
  0.27401402884920234    0.26665182207839505    0.26655180259312117    0.2747913121366241    0.29198304467755953    
  0.31812204939577543    0.3523912721314406    0.39293047861929425    0.43671078901141264    0.4797796131054647    
  0.5179550340987381    0.5476493400552851    0.5663682181803548    0.5727478692813166    0.5804403809921957    
  0.5721535171386736    0.5483256892132574    0.5118423428216093    0.46688914957517813    0.41823469471808333    
  0.37049627852355677    0.3275159042116534    0.2919830446775595    0.26537803718134934    0.2481692741917588    
  0.2401069474514095    0.2404789309623964    0.24825728810136433    0.2621035682847696    0.28025854622915686    
  0.3004499049991347    0.3200059395159449    0.3362370370156753    0.3469193436596263    0.3506389861789727    
  0.3469193436596263    0.3362370370156753    0.3200059395159449    0.3004499049991347    0.28025854622915686    
  0.26210356828476955    0.24825728810136435    0.24047893096239634    0.2401069474514095    0.24816927419175883    
  0.26537803718134934    0.2919830446775595    0.3275159042116534    0.37049627852355677    0.41823469471808344    
  0.46688914957517813    0.5118423428216093    0.5483256892132574    0.5721535171386736    0.5804403809921957    
  0.5752278599611315    0.5662528135133638    0.5405877441987732    0.5016753978783679    0.454305925220629    
  0.40365875372342713    0.3545087155044101    0.3106863052737929    0.27479131213662406    0.2481692741917588    
  0.23113128869456628    0.22330218448475234    0.22392666249560125    0.23200947327831153    0.24626575403549594    
  0.2649576818423967    0.28578050806774924    0.30598206958752505    0.3227686675226721    0.3338228786295446    
  0.33767264909230776    0.3338228786295446    0.32276866752267214    0.30598206958752494    0.28578050806774924    
  0.2649576818423967    0.2462657540354959    0.23200947327831165    0.2239266624956012    0.2233021844847524    
  0.23113128869456628    0.24816927419175883    0.27479131213662406    0.3106863052737929    0.3545087155044102    
  0.4036587537234272    0.4543059252206289    0.5016753978783679    0.5405877441987732    0.5662528135133638    
  0.5752278599611315    0.5673917149336548    0.5583828949681268    0.5326192615998951    0.4935621263857216    
  0.4460444250918422    0.3952938380740599    0.3461123557915444    0.3023335940666503    0.26655180259312106    
  0.24010694745140945    0.22330218448475245    0.2157514383145876    0.2166899056070651    0.22511633025703107    
  0.23974085236020312    0.25881791142267    0.28002772024442885    0.30059090420938267    0.3176755683896685    
  0.32892597916866184    0.33284406137790684    0.32892597916866184    0.3176755683896685    0.30059090420938256    
  0.28002772024442885    0.25881791142267    0.239740852360203    0.2251163302570311    0.21668990560706508    
  0.2157514383145876    0.22330218448475245    0.24010694745140945    0.26655180259312106    0.3023335940666503    
  0.3461123557915445    0.3952938380740599    0.4460444250918422    0.4935621263857216    0.5326192615998951    
  0.5583828949681268    0.5673917149336548    0.5604746381848756    0.5518461503497042    0.5270852723111528    
  0.4893353939595717    0.44312352067656136    0.39349724166474775    0.3451911424261989    0.3020317779937401    
  0.26665182207839494    0.2404789309623964    0.2239266624956012    0.2166899056070651    0.21802376239176988    
  0.22689818832093483    0.2419812592121402    0.26149816877365606    0.2831171800974484    0.3040523219369671    
  0.32145273247362693    0.33292335603422707    0.3369215246953562    0.33292335603422707    0.32145273247362693    
  0.30405232193696696    0.2831171800974484    0.26149816877365606    0.24198125921214014    0.22689818832093483    
  0.21802376239176982    0.21668990560706508    0.2239266624956012    0.2404789309623964    0.26665182207839494    
  0.30203177799374004    0.34519114242619897    0.39349724166474787    0.44312352067656124    0.4893353939595717    
  0.5270852723111528    0.5518461503497042    0.5604746381848756    0.5527839859842806    0.5449979667349834    
  0.522471457439898    0.48764978106186024    0.4443422996590744    0.3971436751410958    0.35063478218841754    
  0.3086737403115168    0.27401402884920223    0.24825728810136433    0.23200947327831165    0.22511633025703107    
  0.22689818832093495    0.23631228332160198    0.2519793053550421    0.27208312101843524    0.2942735485143114    
  0.31575678534234747    0.3336506320555646    0.3454826733651102    0.34961587200489863    0.3454826733651102    
  0.3336506320555646    0.31575678534234736    0.2942735485143114    0.27208312101843524    0.25197930535504204    
  0.23631228332160198    0.22689818832093495    0.2251163302570311    0.23200947327831165    0.24825728810136435    
  0.27401402884920223    0.3086737403115168    0.35063478218841765    0.39714367514109583    0.4443422996590744    
  0.48764978106186024    0.522471457439898    0.5449979667349832    0.5527839859842806    0.5395925783945734    
  0.5332809635316424    0.514691391648039    0.48507516447771065    0.44694487383926834    0.40402463687761525    
  0.36060451299386015    0.32065337031414065    0.28719041402351053    0.2621035682847696    0.24626575403549603    
  0.2397408523602032    0.2419812592121402    0.25197930535504204    0.268324988722686    0.28915714205395987    
  0.3121006251482397    0.3343453134067545    0.3529510750713607    0.36531548941931924    0.36964924437854035    
  0.36531548941931924    0.35295107507136075    0.33434531340675444    0.3121006251482397    0.2891571420539598    
  0.268324988722686    0.2519793053550421    0.24198125921214014    0.23974085236020315    0.24626575403549603    
  0.2621035682847696    0.28719041402351053    0.3206533703141407    0.36060451299386026    0.40402463687761525    
  0.44694487383926834    0.48507516447771065    0.514691391648039    0.5332809635316424    0.5395925783945734    
  0.516420973711144    0.5122843448632366    0.49956689655544256    0.47785723110613    0.4477352954752671    
  0.4114991693035873    0.37288548953275436    0.3360159577750271    0.30435989643322636    0.28025854622915686    
  0.2649576818423967    0.25881791142267    0.26149816877365606    0.2720831210184352    0.2891571420539599    
  0.31081532391083183    0.3346514390031548    0.35782658721613836    0.3773145684166016    0.3903403933579099    
  0.39492304252218396    0.3903403933579098    0.3773145684166016    0.35782658721613836    0.3346514390031548    
  0.31081532391083183    0.28915714205395987    0.27208312101843524    0.26149816877365606    0.25881791142267    
  0.2649576818423967    0.2802585462291569    0.30435989643322636    0.3360159577750272    0.3728854895327544    
  0.4114991693035874    0.44773529547526697    0.47785723110613    0.49956689655544256    0.5122843448632365    
  0.516420973711144    0.4828330153969565    0.4813543143939994    0.47592066733639155    0.4642735666076371    
  0.44464700930188955    0.41738578748508853    0.3852954342474036    0.3525767724298216    0.32329919595894296    
  0.30044990499913476    0.2857805080677493    0.2800277202444289    0.2831171800974485    0.29427354851431137    
  0.3121006251482397    0.3346514390031548    0.35947553044628044    0.38368383911943355    0.4041406460420809    
  0.4178824097732907    0.4227319964507925    0.4178824097732908    0.4041406460420809    0.3836838391194334    
  0.35947553044628044    0.33465143900315486    0.3121006251482396    0.29427354851431137    0.2831171800974485    
  0.2800277202444289    0.2857805080677493    0.30044990499913476    0.32329919595894296    0.35257677242982166    
  0.38529543424740365    0.4173857874850886    0.44464700930188955    0.4642735666076371    0.47592066733639155    
  0.4813543143939993    0.4828330153969565    0.4439483302070891    0.445129355712108    0.4471161413839708    
  0.44604127871799476    0.43784351426504725    0.4206729650952881    0.39606255648314165    0.36810538274684046    
  0.3415000562381126    0.3200059395159449    0.30598206958752505    0.3005909042093827    0.30405232193696713    
  0.3157567853423474    0.3343453134067545    0.3578265872161384    0.38368383911943343    0.4089504171303463    
  0.4303688841766874    0.4448017385155721    0.44990498500155757    0.4448017385155721    0.4303688841766874    
  0.4089504171303462    0.38368383911943343    0.3578265872161384    0.3343453134067545    0.3157567853423474    
  0.30405232193696713    0.3005909042093827    0.30598206958752505    0.3200059395159449    0.3415000562381126    
  0.36810538274684057    0.39606255648314176    0.4206729650952882    0.43784351426504725    0.44604127871799476    
  0.4471161413839708    0.4451293557121079    0.4439483302070891    0.40818368065618826    0.41152266046875224    
  0.41964798061281655    0.42761088840854267    0.4295573216465089    0.42165323752489386    0.40407389669780014    
  0.3806214919066401    0.35650859505061827    0.3362370370156752    0.3227686675226721    0.31767556838966843    
  0.32145273247362693    0.33365063205556456    0.3529510750713608    0.37731456841660166    0.4041406460420808    
  0.4303688841766874    0.452628093287919    0.46764594175969565    0.47296012277844823    0.46764594175969565    
  0.452628093287919    0.4303688841766874    0.4041406460420808    0.37731456841660166    0.3529510750713606    
  0.33365063205556456    0.32145273247362693    0.3176755683896685    0.3227686675226721    0.3362370370156752    
  0.35650859505061827    0.3806214919066402    0.40407389669780025    0.4216532375248939    0.4295573216465089    
  0.42761088840854267    0.4196479806128165    0.4115226604687521    0.40818368065618826    0.38342225360228904    
  0.38811321884940264    0.4001531901890035    0.4140508719373292    0.4228798862700414    0.42144979486152917    
  0.4088865028856333    0.38867463324500473    0.3663404172296018    0.34691934365962634    0.33382287862954474    
  0.328925979168662    0.3329233560342272    0.34548267336511007    0.36531548941931935    0.39034039335790993    
  0.4178824097732907    0.4448017385155721    0.4676459417596956    0.4830600881037772    0.4885150721448422    
  0.4830600881037772    0.4676459417596956    0.4448017385155721    0.4178824097732907    0.39034039335790993    
  0.36531548941931924    0.3454826733651102    0.3329233560342272    0.3289259791686619    0.33382287862954474    
  0.3469193436596263    0.3663404172296018    0.38867463324500473    0.4088865028856334    0.4214497948615291    
  0.4228798862700414    0.4140508719373292    0.4001531901890035    0.38811321884940253    0.38342225360228904    
  0.3746307584354374    0.3797747716107537    0.39314108973088097    0.40908576808881797    0.42033532864244094    
  0.4212215861434238    0.41047543514935325    0.39144407174575174    0.3697556087564025    0.3506389861789728    
  0.33767264909230765    0.3328440613779068    0.3369215246953563    0.3496158720048986    0.36964924437854046    
  0.3949230425221839    0.4227319964507925    0.44990498500155757    0.47296012277844823    0.4885150721448422    
  0.4940196758537359    0.4885150721448422    0.47296012277844823    0.44990498500155757    0.4227319964507925    
  0.39492304252218396    0.3696492443785404    0.34961587200489863    0.3369215246953562    0.33284406137790673    
  0.3376726490923077    0.3506389861789728    0.3697556087564025    0.39144407174575185    0.41047543514935325    
  0.4212215861434239    0.4203353286424409    0.40908576808881797    0.39314108973088097    0.37977477161075357    
  0.3746307584354374    0.38342225360228904    0.38811321884940264    0.4001531901890035    0.4140508719373292    
  0.4228798862700414    0.42144979486152917    0.4088865028856333    0.38867463324500473    0.3663404172296018    
  0.3469193436596263    0.33382287862954474    0.3289259791686619    0.3329233560342272    0.34548267336511007    
  0.36531548941931935    0.39034039335790993    0.4178824097732907    0.4448017385155721    0.4676459417596956    
  0.4830600881037772    0.48851507214484213    0.4830600881037772    0.4676459417596956    0.44480173851557203    
  0.4178824097732907    0.39034039335790993    0.36531548941931924    0.3454826733651102    0.33292335603422707    
  0.3289259791686619    0.33382287862954474    0.34691934365962634    0.3663404172296018    0.3886746332450048    
  0.4088865028856334    0.42144979486152917    0.4228798862700415    0.4140508719373292    0.4001531901890035    
  0.38811321884940253    0.38342225360228904    0.40818368065618826    0.41152266046875224    0.41964798061281655    
  0.42761088840854267    0.4295573216465089    0.42165323752489386    0.40407389669780014    0.3806214919066401    
  0.35650859505061827    0.3362370370156753    0.3227686675226721    0.31767556838966843    0.32145273247362705    
  0.3336506320555646    0.35295107507136075    0.3773145684166016    0.4041406460420808    0.4303688841766874    
  0.452628093287919    0.4676459417596956    0.47296012277844823    0.4676459417596956    0.452628093287919    
  0.4303688841766874    0.4041406460420808    0.37731456841660166    0.3529510750713606    0.3336506320555646    
  0.32145273247362693    0.31767556838966843    0.3227686675226721    0.3362370370156753    0.35650859505061827    
  0.3806214919066402    0.40407389669780025    0.4216532375248939    0.4295573216465089    0.42761088840854256    
  0.41964798061281655    0.41152266046875213    0.40818368065618826    0.4439483302070892    0.445129355712108    
  0.44711614138397093    0.44604127871799476    0.43784351426504714    0.4206729650952882    0.39606255648314165    
  0.36810538274684057    0.34150005623811264    0.3200059395159449    0.30598206958752505    0.3005909042093827    
  0.30405232193696713    0.31575678534234736    0.3343453134067545    0.3578265872161384    0.38368383911943343    
  0.40895041713034624    0.4303688841766874    0.4448017385155721    0.44990498500155757    0.4448017385155722    
  0.4303688841766874    0.40895041713034613    0.38368383911943343    0.3578265872161384    0.33434531340675444    
  0.31575678534234736    0.30405232193696713    0.3005909042093827    0.30598206958752505    0.3200059395159449    
  0.34150005623811264    0.3681053827468405    0.39606255648314176    0.4206729650952882    0.43784351426504725    
  0.4460412787179947    0.4471161413839708    0.4451293557121079    0.4439483302070892    0.4828330153969565    
  0.4813543143939994    0.47592066733639155    0.4642735666076371    0.44464700930188955    0.41738578748508853    
  0.3852954342474036    0.3525767724298216    0.32329919595894296    0.30044990499913476    0.2857805080677493    
  0.2800277202444289    0.2831171800974485    0.29427354851431137    0.3121006251482397    0.3346514390031548    
  0.35947553044628044    0.38368383911943355    0.4041406460420809    0.4178824097732907    0.4227319964507925    
  0.4178824097732908    0.4041406460420809    0.3836838391194334    0.35947553044628044    0.33465143900315486    
  0.3121006251482396    0.29427354851431137    0.2831171800974485    0.2800277202444289    0.2857805080677493    
  0.30044990499913476    0.32329919595894296    0.35257677242982166    0.38529543424740365    0.4173857874850886    
  0.44464700930188955    0.4642735666076371    0.47592066733639155    0.4813543143939993    0.4828330153969565    
  0.516420973711144    0.5122843448632366    0.49956689655544256    0.47785723110613    0.4477352954752671    
  0.4114991693035873    0.37288548953275436    0.3360159577750272    0.30435989643322625    0.28025854622915686    
  0.2649576818423967    0.2588179114226701    0.26149816877365606    0.2720831210184352    0.2891571420539599    
  0.3108153239108319    0.33465143900315486    0.35782658721613836    0.37731456841660166    0.3903403933579098    
  0.39492304252218396    0.3903403933579099    0.37731456841660166    0.3578265872161383    0.33465143900315486    
  0.3108153239108319    0.2891571420539598    0.27208312101843524    0.26149816877365606    0.2588179114226701    
  0.2649576818423967    0.28025854622915686    0.30435989643322625    0.3360159577750272    0.3728854895327544    
  0.4114991693035874    0.44773529547526697    0.4778572311061299    0.49956689655544256    0.5122843448632365    
  0.516420973711144    0.5395925783945734    0.5332809635316426    0.514691391648039    0.48507516447771065    
  0.44694487383926834    0.4040246368776152    0.3606045129938602    0.3206533703141407    0.28719041402351053    
  0.26210356828476955    0.24626575403549597    0.2397408523602032    0.2419812592121402    0.25197930535504204    
  0.268324988722686    0.2891571420539599    0.31210062514823966    0.3343453134067545    0.35295107507136075    
  0.36531548941931935    0.3696492443785404    0.36531548941931935    0.3529510750713607    0.33434531340675444    
  0.31210062514823966    0.2891571420539599    0.268324988722686    0.25197930535504204    0.24198125921214014    
  0.2397408523602032    0.24626575403549597    0.26210356828476955    0.28719041402351053    0.3206533703141407    
  0.3606045129938602    0.40402463687761525    0.44694487383926834    0.48507516447771065    0.514691391648039    
  0.5332809635316424    0.5395925783945734    0.5527839859842806    0.5449979667349835    0.522471457439898    
  0.4876497810618603    0.4443422996590744    0.3971436751410958    0.35063478218841754    0.3086737403115168    
  0.27401402884920223    0.24825728810136433    0.23200947327831165    0.2251163302570311    0.22689818832093495    
  0.23631228332160198    0.2519793053550421    0.27208312101843524    0.2942735485143114    0.31575678534234747    
  0.3336506320555646    0.3454826733651102    0.34961587200489863    0.3454826733651102    0.3336506320555646    
  0.31575678534234736    0.2942735485143114    0.27208312101843524    0.25197930535504204    0.23631228332160203    
  0.22689818832093495    0.2251163302570311    0.23200947327831165    0.24825728810136435    0.27401402884920223    
  0.3086737403115168    0.35063478218841765    0.39714367514109583    0.4443422996590744    0.4876497810618603    
  0.522471457439898    0.5449979667349835    0.5527839859842806    0.5604746381848756    0.5518461503497043    
  0.5270852723111528    0.4893353939595717    0.44312352067656124    0.39349724166474775    0.3451911424261989    
  0.30203177799374004    0.26665182207839494    0.24047893096239634    0.2239266624956012    0.21668990560706503    
  0.21802376239176988    0.22689818832093483    0.2419812592121402    0.26149816877365595    0.2831171800974484    
  0.30405232193696713    0.321452732473627    0.33292335603422707    0.33692152469535613    0.33292335603422707    
  0.321452732473627    0.3040523219369671    0.2831171800974484    0.26149816877365595    0.2419812592121402    
  0.22689818832093495    0.21802376239176982    0.21668990560706508    0.2239266624956012    0.2404789309623964    
  0.26665182207839494    0.30203177799374015    0.34519114242619897    0.39349724166474787    0.44312352067656124    
  0.4893353939595717    0.5270852723111528    0.5518461503497042    0.5604746381848756    0.5673917149336547    
  0.5583828949681268    0.5326192615998951    0.4935621263857216    0.4460444250918422    0.3952938380740598    
  0.34611235579154437    0.3023335940666503    0.26655180259312106    0.24010694745140945    0.2233021844847524    
  0.21575143831458765    0.21668990560706508    0.22511633025703107    0.23974085236020312    0.25881791142267    
  0.2800277202444288    0.30059090420938267    0.31767556838966843    0.32892597916866195    0.33284406137790673    
  0.32892597916866195    0.31767556838966843    0.30059090420938267    0.2800277202444288    0.2588179114226701    
  0.23974085236020312    0.22511633025703115    0.2166899056070651    0.21575143831458765    0.2233021844847524    
  0.24010694745140942    0.26655180259312106    0.3023335940666503    0.3461123557915444    0.3952938380740599    
  0.4460444250918421    0.4935621263857216    0.5326192615998951    0.5583828949681268    0.5673917149336547    
  0.5752278599611315    0.5662528135133638    0.5405877441987731    0.5016753978783679    0.4543059252206289    
  0.40365875372342713    0.3545087155044102    0.3106863052737929    0.27479131213662406    0.24816927419175883    
  0.23113128869456634    0.22330218448475234    0.2239266624956013    0.23200947327831153    0.24626575403549594    
  0.2649576818423967    0.2857805080677493    0.30598206958752505    0.32276866752267214    0.33382287862954463    
  0.3376726490923079    0.33382287862954463    0.32276866752267214    0.305982069587525    0.2857805080677493    
  0.2649576818423967    0.24626575403549594    0.23200947327831165    0.22392666249560125    0.22330218448475245    
  0.23113128869456634    0.24816927419175883    0.27479131213662406    0.3106863052737929    0.3545087155044102    
  0.4036587537234272    0.4543059252206289    0.5016753978783679    0.5405877441987731    0.5662528135133638    
  0.5752278599611315    0.5804403809921959    0.5721535171386735    0.5483256892132574    0.5118423428216092    