#     DFTpy    
  CRYSTAL 
    
  PRIMVEC    
  6.335931034482761    0.0    0.0    
  0.0    6.335931034482761    0.0    
  0.0    0.0    3.4906896551724107    
  PRIMCOORD    
  4    1    
  Si    0.0    0.0    0.0    
  Si    3.167965517241381    3.167965517241381    1.7453448275862105    
  Si    0.0    3.167965517241381    0.8726724137931002    
  Si    3.167965517241381    0.0    2.6180172413793104    
  BEGIN_BLOCK_DATAGRID_3D    
  3d_datagrid_density    
  BEGIN_DATAGRID_3D#0    
  61    61    37    
  0.0    0.0    0.0    
  6.3359310581159045    0.0    0.0    
  0.0    6.3359310581159045    0.0    
  0.0    0.0    3.49068966819275    
  0.05959019336813016    0.06822453647871134    0.09667516935681462    0.1492897361340491    0.22305032768422373    
  0.2999644620054951    0.35356259961587017    0.36717832643495374    0.34409767557765514    0.30026022725654117    
  0.25140560880022256    0.20696031971277631    0.1707326090863984    0.1434133715648603    0.12433374747485937    
  0.11242910089500366    0.10675331157900715    0.10665228871483548    0.1117153933998359    0.12167414334216632    
  0.1363140459943737    0.15534949166234563    0.1782266093740824    0.2039132148165255    0.23079511722706023    
  0.2567985158284996    0.279791280596494    0.29813406454136954    0.3110532766594167    0.31856291769496625    
  0.32100569594543926    0.31856291769496625    0.3110532766594167    0.29813406454136954    0.279791280596494    
  0.2567985158284996    0.23079511722706023    0.20391321481652552    0.17822660937408244    0.15534949166234566    
  0.13631404599437374    0.12167414334216636    0.1117153933998359    0.10665228871483547    0.10675331157900715    
  0.11242910089500362    0.12433374747485934    0.14341337156486034    0.1707326090863984    0.20696031971277631    
  0.25140560880022256    0.30026022725654117    0.34409767557765514    0.36717832643495385    0.35356259961587017    
  0.2999644620054951    0.22305032768422378    0.1492897361340492    0.09667516935681467    0.06822453647871134    
  0.05959019336813016    0.06822453647871131    0.07731412419349246    0.10680441146699296    0.16004309234519262    
  0.23274152149384708    0.3064980387165264    0.35595646583726653    0.3661571853618955    0.34126617549495086    
  0.29699405467650547    0.2484244235039218    0.20447992713925267    0.16872863183258352    0.14178104320733073    
  0.12295568327716873    0.11120103138183828    0.10558968109318899    0.10548045579768985    0.11046748873921987    
  0.12028327697045998    0.1347157412119379    0.15348598571649494    0.17605324522174207    0.20140916437398396    
  0.22797906413900776    0.25374144174259333    0.2766106600602158    0.2949595401326227    0.3079752053638941    
  0.31559419048615256    0.31808377053347514    0.31559419048615256    0.3079752053638941    0.29495954013262266    
  0.2766106600602158    0.25374144174259333    0.22797906413900776    0.201409164373984    0.17605324522174207    
  0.1534859857164949    0.13471574121193794    0.12028327697046001    0.1104674887392199    0.10548045579768985    
  0.10558968109318899    0.11120103138183823    0.1229556832771687    0.14178104320733076    0.16872863183258352    
  0.20447992713925267    0.24842442350392185    0.29699405467650547    0.34126617549495086    0.3661571853618955    
  0.3559564658372665    0.30649803871652637    0.23274152149384708    0.16004309234519265    0.10680441146699296    
  0.07731412419349243    0.06822453647871131    0.09667516935681468    0.106804411466993    0.13840533137739544    
  0.1919796380135218    0.2600646114423359    0.3237913370700857    0.36127613895642613    0.36211353585776357    
  0.3325056454163563    0.2872834206455763    0.23966934860183978    0.19722216785598748    0.1628708698417999    
  0.13701284985611625    0.11893494447123121    0.10762446896109924    0.1022077859228186    0.10208049898945948    
  0.10685034464895045    0.11625246647459378    0.13008107895810156    0.14807586924481297    0.16973355352485442    
  0.19411369771693424    0.21975190166029077    0.24477047054566062    0.26721215618973687    0.2854883017966426    
  0.2986892524826395    0.3065529400859274    0.30915105281597993    0.3065529400859274    0.29868925248263944    
  0.28548830179664253    0.26721215618973687    0.24477047054566065    0.21975190166029077    0.1941136977169343    
  0.16973355352485442    0.14807586924481297    0.13008107895810156    0.1162524664745938    0.10685034464895045    
  0.10208049898945948    0.1022077859228186    0.10762446896109922    0.11893494447123121    0.13701284985611625    
  0.1628708698417999    0.19722216785598748    0.23966934860183978    0.2872834206455763    0.3325056454163563    
  0.36211353585776357    0.36127613895642624    0.3237913370700857    0.26006461144233584    0.19197963801352186    
  0.13840533137739544    0.10680441146699303    0.09667516935681468    0.14928973613404914    0.16004309234519262    
  0.19197963801352175    0.24177925859115892    0.29874050861817614    0.34508330305916474    0.3646032781187773    
  0.35268145284347013    0.3173171169670314    0.2714988084004948    0.2257341808131425    0.18574432512370834    
  0.1536226246436151    0.12949057615492351    0.11260101590255105    0.1020048788916023    0.09691066408560876    
  0.09676900938669779    0.10120828547021368    0.10996767236315033    0.12284948318362592    0.13961957379927542    
  0.15983087340775295    0.18264494220827182    0.20675737991188745    0.23049339133214458    0.2520782287148913    
  0.2699916699323788    0.28321995750322776    0.2912637894110203    0.293955280843213    0.2912637894110203    
  0.2832199575032278    0.2699916699323787    0.2520782287148912    0.23049339133214464    0.20675737991188745    
  0.18264494220827185    0.15983087340775298    0.1396195737992754    0.12284948318362592    0.10996767236315037    
  0.10120828547021368    0.09676900938669779    0.09691066408560876    0.10200487889160229    0.11260101590255102    
  0.12949057615492351    0.1536226246436151    0.18574432512370828    0.2257341808131425    0.2714988084004948    
  0.31731711696703147    0.35268145284347013    0.3646032781187773    0.34508330305916474    0.298740508618176    
  0.24177925859115898    0.19197963801352175    0.16004309234519262    0.14928973613404914    0.22305032768422378    
  0.23274152149384714    0.26006461144233584    0.29874050861817614    0.3369885558706375    0.36058561480277124    
  0.3600005834180093    0.33556004475224066    0.29564069342141336    0.2504943599728447    0.20764158970693608    
  0.17095920955453764    0.14173136297319044    0.11981948414165997    0.10446209421343505    0.09479769198698462    
  0.09013546933017436    0.08999131929353041    0.09401947244720495    0.10196557339432653    0.11364028482426798    
  0.12883727045999374    0.147174965641512    0.16793626173960532    0.19000113373676883    0.21192086647919067    
  0.2321263546770007    0.24919661101884102    0.2620564266735466    0.27001708281762393    0.27270931661525694    
  0.27001708281762393    0.26205642667354667    0.249196611018841    0.2321263546770007    0.21192086647919067    
  0.19000113373676883    0.16793626173960532    0.14717496564151203    0.12883727045999374    0.11364028482426802    
  0.10196557339432658    0.09401947244720495    0.08999131929353041    0.09013546933017434    0.0947976919869846    
  0.10446209421343502    0.11981948414165997    0.14173136297319044    0.1709592095545376    0.20764158970693608    
  0.2504943599728447    0.2956406934214133    0.33556004475224066    0.3600005834180092    0.3605856148027712    
  0.3369885558706375    0.29874050861817614    0.2600646114423359    0.23274152149384714    0.22305032768422378    
  0.2999644620054951    0.3064980387165264    0.3237913370700857    0.34508330305916474    0.3605856148027712    
  0.3612748436166296    0.343404165786859    0.31004408272813466    0.2683948196912488    0.22567445986380597    
  0.18675977698841653    0.15403027636087277    0.1281357954917029    0.10875016197188703    0.09513623802333897    
  0.0865416262008312    0.0823833404148248    0.08224458151609149    0.08581013965433508    0.09283757227267407    
  0.103146344089248    0.11655365547432094    0.1327409156307189    0.1511147564864392    0.17074181631709764    
  0.19039714365689164    0.2087194303853207    0.22441488704115314    0.23641510914195582    0.24393866881025317    
  0.24650196657000797    0.24393866881025322    0.2364151091419558    0.2244148870411531    0.2087194303853207    
  0.19039714365689167    0.17074181631709764    0.15111475648643924    0.1327409156307189    0.11655365547432094    
  0.10314634408924803    0.09283757227267411    0.08581013965433508    0.08224458151609149    0.08238334041482477    
  0.0865416262008312    0.09513623802333894    0.10875016197188707    0.1281357954917029    0.15403027636087283    
  0.18675977698841653    0.22567445986380597    0.2683948196912488    0.31004408272813455    0.343404165786859    
  0.3612748436166296    0.3605856148027712    0.3450833030591648    0.3237913370700857    0.3064980387165264    
  0.2999644620054951    0.3535625996158701    0.3559564658372666    0.36127613895642613    0.3646032781187773    
  0.3600005834180092    0.343404165786859    0.31473209988034256    0.2776694718045567    0.23749324591260865    
  0.19882166340891327    0.16460124124430184    0.13618759324354182    0.11381354447021547    0.09706039557819704    
  0.08526140351793228    0.07778746462176327    0.0741589681351801    0.074022297626257    0.07709822120297685    
  0.08316531834637954    0.09205415737245008    0.10359769896256076    0.11752742510945577    0.13336061167744023    
  0.1503369486801028    0.16744099895602016    0.1835140021819104    0.19741237821831467    0.2081394912557666    
  0.21491732633232338    0.21723671474711279    0.21491732633232338    0.20813949125576656    0.19741237821831467    
  0.1835140021819104    0.1674409989560202    0.1503369486801028    0.13336061167744026    0.1175274251094558    
  0.10359769896256076    0.09205415737245011    0.0831653183463796    0.07709822120297685    0.074022297626257    
  0.0741589681351801    0.07778746462176325    0.08526140351793228    0.09706039557819704    0.11381354447021547    
  0.13618759324354182    0.16460124124430187    0.19882166340891325    0.23749324591260865    0.2776694718045567    
  0.31473209988034256    0.343404165786859    0.3600005834180092    0.3646032781187773    0.36127613895642613    
  0.3559564658372666    0.3535625996158701    0.36717832643495374    0.36615718536189545    0.36211353585776357    
  0.35268145284347013    0.33556004475224066    0.31004408272813455    0.2776694718045567    0.24160368786124006    
  0.20536455607057882    0.1717794694175288    0.14259195364852367    0.11854212231052853    0.09963309273640758    
  0.08544269955944148    0.07541199665935691    0.06903597975919021    0.0659243034314724    0.06577905230347708    
  0.06836233307288384    0.07348397450808992    0.0809899505192504    0.0907221498092406    0.10244527666558205    
  0.11576449912504912    0.13006871974273942    0.1445328419586285    0.15819419915168004    0.17007557315847086    
  0.17929672073247838    0.18514811918988516    0.18715514366255784    0.1851481191898852    0.17929672073247835    
  0.17007557315847086    0.15819419915168004    0.14453284195862856    0.13006871974273942    0.11576449912504912    
  0.10244527666558204    0.0907221498092406    0.0809899505192504    0.07348397450808995    0.06836233307288382    
  0.06577905230347708    0.06592430343147239    0.06903597975919021    0.0754119966593569    0.08544269955944149    
  0.09963309273640757    0.11854212231052853    0.1425919536485237    0.1717794694175288    0.20536455607057882    
  0.24160368786124006    0.2776694718045567    0.31004408272813455    0.33556004475224066    0.3526814528434702    
  0.36211353585776357    0.36615718536189545    0.36717832643495374    0.34409767557765525    0.3412661754949509    
  0.3325056454163564    0.31731711696703147    0.29564069342141325    0.2683948196912488    0.23749324591260865    
  0.20536455607057882    0.17432747397005569    0.14615198418200476    0.12189894420647192    0.10196833808347    
  0.08626938018147656    0.07444116156763847    0.06604821343551351    0.06069552507603713    0.058063269382420554    
  0.057901072891515734    0.06001474421447859    0.06425158451344522    0.07047739351956998    0.07854115645029454    
  0.08822851552414156    0.09920900696963621    0.11099191440647582    0.12291846277742612    0.13421111094895427    
  0.1440645628821349    0.15173621011773178    0.15661587379803862    0.1582916099379107    0.15661587379803862    
  0.15173621011773175    0.1440645628821349    0.13421111094895427    0.12291846277742614    0.11099191440647582    
  0.09920900696963622    0.08822851552414156    0.07854115645029454    0.07047739351957001    0.06425158451344526    
  0.06001474421447859    0.057901072891515734    0.05806326938242054    0.0606955250760371    0.0660482134355135    
  0.07444116156763846    0.08626938018147656    0.10196833808347    0.12189894420647195    0.14615198418200473    
  0.17432747397005569    0.20536455607057885    0.23749324591260865    0.2683948196912488    0.29564069342141325    
  0.3173171169670315    0.33250564541635635    0.341266175494951    0.34409767557765525    0.30026022725654117    
  0.29699405467650547    0.2872834206455763    0.2714988084004948    0.2504943599728446    0.22567445986380597    
  0.19882166340891325    0.1717794694175288    0.14615198418200473    0.12311361166349923    0.10334296350466181    
  0.08706759470602113    0.07419052313798594    0.06444278675267426    0.05750317253312377    0.05306374589986264    
  0.05085897529553136    0.05067936713433656    0.05237119354948508    0.05581723277162336    0.060904722825954626    
  0.06749334467103017    0.07538678467108284    0.08430231858795041    0.093841672357802    0.10348338124678187    
  0.11261440285738163    0.12059266154531077    0.12681480747328902    0.13077748200473327    0.13213911859650157    
  0.13077748200473327    0.12681480747328902    0.12059266154531077    0.11261440285738163    0.10348338124678193    
  0.093841672357802    0.0843023185879504    0.07538678467108285    0.06749334467103019    0.060904722825954646    
  0.055817232771623405    0.05237119354948507    0.05067936713433655    0.050858975295531336    0.053063745899862624    
  0.05750317253312375    0.06444278675267424    0.07419052313798594    0.08706759470602111    0.10334296350466182    
  0.12311361166349923    0.14615198418200473    0.1717794694175288    0.19882166340891325    0.22567445986380597    
  0.2504943599728446    0.2714988084004948    0.2872834206455763    0.29699405467650547    0.30026022725654117    
  0.25140560880022267    0.24842442350392185    0.23966934860183978    0.2257341808131426    0.20764158970693608    
  0.18675977698841656    0.16460124124430192    0.1425919536485237    0.12189894420647195    0.10334296350466185    
  0.08738679848410465    0.07418646174773541    0.06368278225384388    0.05569569057649259    0.049992446415635    
  0.046330456231150216    0.044489792427624714    0.044297598840656156    0.04563216875617637    0.04840189254466934    
  0.052512512620691405    0.05783958640494658    0.06420891544199687    0.07137789649251296    0.07901892796425185    
  0.08671794401347487    0.09399706112357453    0.10035518255749885    0.10531521656445324    0.10847478137236348    
  0.1095604780563065    0.10847478137236348    0.10531521656445324    0.10035518255749884    0.09399706112357452    
  0.0867179440134749    0.07901892796425185    0.07137789649251296    0.06420891544199689    0.05783958640494658    
  0.05251251262069143    0.048401892544669395    0.04563216875617637    0.04429759884065615    0.04448979242762471    
  0.04633045623115018    0.04999244641563498    0.05569569057649259    0.06368278225384388    0.07418646174773541    
  0.08738679848410465    0.10334296350466182    0.12189894420647195    0.14259195364852373    0.1646012412443019    
  0.18675977698841653    0.20764158970693608    0.2257341808131426    0.23966934860183978    0.24842442350392185    
  0.25140560880022267    0.20696031971277631    0.20447992713925267    0.1972221678559874    0.1857443251237083    
  0.17095920955453758    0.15403027636087277    0.13618759324354182    0.11854212231052853    0.10196833808346999    
  0.08706759470602113    0.07418646174773538    0.0634628789965672    0.05488191353866941    0.048328153381132465    
  0.043629295619145116    0.04059390629855112    0.03904527327555863    0.038844131584643365    0.039890540444045414    
  0.04210598420180016    0.04540841063023584    0.04969112346748553    0.054805909485301174    0.06054778069018174    
  0.06664595298747064    0.0727687394435214    0.07854228160455762    0.08357702067162923    0.08750024114928327    
  0.08999690482142379    0.09085424024278355    0.08999690482142379    0.08750024114928324    0.08357702067162924    
  0.07854228160455765    0.07276873944352143    0.06664595298747064    0.06054778069018173    0.054805909485301174    
  0.049691123467485526    0.04540841063023586    0.042105984201800215    0.03989054044404542    0.03884413158464335    
  0.03904527327555863    0.0405939062985511    0.043629295619145095    0.04832815338113246    0.05488191353866941    
  0.0634628789965672    0.07418646174773538    0.0870675947060211    0.10196833808346997    0.11854212231052853    
  0.1361875932435418    0.15403027636087277    0.1709592095545376    0.1857443251237083    0.19722216785598742    
  0.20447992713925267    0.20696031971277631    0.17073260908639842    0.16872863183258352    0.16287086984179988    
  0.15362262464361515    0.14173136297319047    0.12813579549170293    0.1138135444702155    0.09963309273640757    
  0.08626938018147655    0.07419052313798596    0.06368278225384384    0.05488191353866941    0.04780177572318628    
  0.04236539182562595    0.03844163084501608    0.03588254902456384    0.03455227465956709    0.034340613597048    
  0.03516109315738922    0.03693946742426638    0.039599686276661494    0.04304957179725718    0.04716503610621663    
  0.051775514748401336    0.056658421836398076    0.06154661633632228    0.06614394759055311    0.0701438438558282    
  0.07325385778424799    0.07522901237640786    0.07590638824744785    0.07522901237640786    0.07325385778424798    
  0.0701438438558282    0.06614394759055313    0.06154661633632234    0.056658421836398076    0.05177551474840132    
  0.04716503610621665    0.04304957179725719    0.03959968627666151    0.03693946742426643    0.03516109315738922    
  0.034340613597048    0.03455227465956709    0.0358825490245638    0.03844163084501606    0.04236539182562594    
  0.04780177572318627    0.05488191353866941    0.06368278225384386    0.07419052313798594    0.08626938018147655    
  0.0996330927364076    0.11381354447021547    0.1281357954917029    0.14173136297319047    0.15362262464361515    
  0.1628708698417999    0.16872863183258352    0.17073260908639842    0.1434133715648603    0.14178104320733073    
  0.13701284985611625    0.1294905761549235    0.11981948414165997    0.10875016197188703    0.09706039557819698    
  0.08544269955944149    0.07444116156763846    0.06444278675267423    0.05569569057649256    0.04832815338113248    
  0.04236539182562596    0.03775376457653104    0.03439454669199682    0.032176848240427026    0.03099805221353837    
  0.030769478755251278    0.03141332075042644    0.032857244674504044    0.035028049765720624    0.03784211036506685    
  0.04119215638514884    0.04493535433157708    0.048889531466366626    0.052838957092000344    0.05654534902407052    
  0.059762290457427744    0.062256615110844425    0.06383656842290754    0.06437751441361848    0.06383656842290754    
  0.0622566151108444    0.05976229045742775    0.056545349024070546    0.052838957092000365    0.048889531466366626    
  0.04493535433157708    0.04119215638514886    0.03784211036506686    0.03502804976572065    0.032857244674504106    
  0.03141332075042644    0.03076947875525126    0.03099805221353837    0.03217684824042699    0.03439454669199681    
  0.03775376457653103    0.04236539182562596    0.048328153381132465    0.05569569057649256    0.06444278675267422    
  0.07444116156763844    0.0854426995594415    0.097060395578197    0.10875016197188697    0.11981948414165997    
  0.12949057615492351    0.13701284985611623    0.14178104320733073    0.1434133715648603    0.12433374747485941    
  0.12295568327716876    0.11893494447123125    0.11260101590255106    0.10446209421343505    0.09513623802333898    
  0.08526140351793236    0.07541199665935693    0.06604821343551352    0.05750317253312382    0.049992446415634995    
  0.04362929561914513    0.03844163084501614    0.03439454669199687    0.03141747206535285    0.02942775443197367    
  0.028343930204743666    0.02808964406101268    0.028593343489030015    0.029786345489324136    0.031598274169560465    
  0.033949172224227685    0.036740454593120565    0.039848293743364155    0.04312149084637175    0.04638348393029222    
  0.0494382740752514    0.05208263503097285    0.05412655611455055    0.05541745394008196    0.05585865872751338    
  0.05541745394008197    0.05412655611455053    0.05208263503097285    0.0494382740752514    0.046383483930292256    
  0.04312149084637175    0.03984829374336417    0.03674045459312057    0.0339491722242277    0.03159827416956049    
  0.029786345489324195    0.028593343489030025    0.02808964406101269    0.028343930204743677    0.029427754431973634    
  0.03141747206535284    0.034394546691996854    0.03844163084501614    0.04362929561914513    0.049992446415634995    
  0.057503172533123786    0.06604821343551352    0.07541199665935694    0.08526140351793236    0.09513623802333895    
  0.10446209421343505    0.11260101590255109    0.11893494447123125    0.12295568327716877    0.12433374747485941    
  0.11242910089500364    0.11120103138183826    0.10762446896109917    0.10200487889160227    0.09479769198698458    
  0.08654162620083122    0.07778746462176325    0.06903597975919022    0.0606955250760371    0.053063745899862645    
  0.0463304562311502    0.04059390629855111    0.03588254902456385    0.03217684824042703    0.029427754431973662    
  0.02757023685860054    0.026532551552074103    0.026243026773148343    0.026634261246311432    0.027642350080249824    
  0.029200417714968403    0.03123026169036899    0.03363714365665532    0.03630854390756782    0.03911367691069847    
  0.04190239489290764    0.04450746666848977    0.04675568566181149    0.048487623099696266    0.04957835536055952    
  0.049950540535098766    0.0495783553605595    0.04848762309969625    0.046755685661811534    0.04450746666848976    
  0.0419023948929077    0.03911367691069847    0.036308543907567804    0.03363714365665534    0.031230261690368997    
  0.029200417714968424    0.02764235008024989    0.02663426124631144    0.02624302677314835    0.026532551552074107    
  0.027570236858600515    0.029427754431973638    0.03217684824042702    0.035882549024563844    0.04059390629855112    
  0.046330456231150195    0.05306374589986261    0.06069552507603708    0.06903597975919022    0.07778746462176322    
  0.0865416262008312    0.0947976919869846    0.1020048788916023    0.1076244689610992    0.11120103138183828    
  0.11242910089500364    0.10675331157900719    0.10558968109318904    0.10220778592281865    0.0969106640856088    
  0.09013546933017434    0.08238334041482478    0.07415896813518015    0.06592430343147243    0.058063269382420575    
  0.05085897529553139    0.04448979242762471    0.03904527327555866    0.03455227465956711    0.03099805221353837    
  0.028343930204743673    0.026532551552074124    0.025495018441444077    0.025160131306313796    0.025461722361937528    
  0.026338493445658265    0.027726115463426484    0.029548160169294707    0.03171248319566515    0.03411257290713699    
  0.03662825504775556    0.039123849103485354    0.04144929900250678    0.04345057515201242    0.04498803506154348    
  0.045954193402124074    0.046283484843022527    0.04595419340212406    0.04498803506154344    0.04345057515201242    
  0.041449299002506775    0.03912384910348537    0.036628255047755555    0.034112572907136963    0.031712483195665185    
  0.029548160169294707    0.027726115463426508    0.02633849344565833    0.025461722361937535    0.0251601313063138    
  0.025495018441444074    0.026532551552074072    0.02834393020474365    0.030998052213538362    0.03455227465956712    
  0.03904527327555866    0.04448979242762471    0.05085897529553136    0.058063269382420575    0.06592430343147242    
  0.07415896813518011    0.08238334041482477    0.09013546933017437    0.09691066408560882    0.10220778592281861    
  0.10558968109318902    0.10675331157900719    0.10665228871483548    0.10548045579768985    0.1020804989894595    
  0.09676900938669777    0.08999131929353038    0.08224458151609146    0.07402229762625702    0.0657790523034771    
  0.057901072891515706    0.050679367134336566    0.04429759884065615    0.03884413158464336    0.034340613597048035    
  0.03076947875525127    0.028089644061012692    0.02624302677314835    0.025160131306313806    0.024768374011394787    
  0.024999540724645365    0.025790625115251674    0.02707705893679402    0.02878383652088018    0.03082097532941968    
  0.03308409767975477    0.035455813566076556    0.03780554034021289    0.039991465765358974    0.04186989158859468    
  0.04331137771726935    0.044216571025535854    0.04452497306037081    0.04421657102553585    0.04331137771726937    
  0.04186989158859469    0.039991465765358974    0.03780554034021292    0.035455813566076556    0.03308409767975472    
  0.030820975329419714    0.028783836520880176    0.02707705893679403    0.025790625115251757    0.02499954072464537    
  0.02476837401139479    0.025160131306313803    0.02624302677314832    0.028089644061012674    0.030769478755251267    
  0.034340613597048035    0.03884413158464336    0.044297598840656156    0.050679367134336545    0.05790107289151572    
  0.06577905230347708    0.074022297626257    0.08224458151609142    0.08999131929353038    0.09676900938669782    
  0.10208049898945949    0.10548045579768985    0.10665228871483548    0.1117153933998359    0.1104674887392199    
  0.10685034464895045    0.1012082854702137    0.09401947244720489    0.08581013965433508    0.07709822120297682    
  0.06836233307288388    0.06001474421447859    0.05237119354948509    0.04563216875617634    0.039890540444045414    
  0.03516109315738923    0.031413320750426445    0.028593343489030015    0.026634261246311464    0.025461722361937528    
  0.02499954072464536    0.025174853076869626    0.02591944467468579    0.027165334945350214    0.02883682841969055    
  0.03084396764237717    0.03308067955572682    0.0354266076953633    0.03774976282389452    0.0399099903948206    
  0.04176670200241087    0.04319254281615363    0.044088571041159735    0.04439397724027595    0.04408857104115972    
  0.04319254281615365    0.04176670200241089    0.03990999039482063    0.03774976282389454    0.0354266076953633    
  0.033080679555726814    0.030843967642377193    0.028836828419690555    0.027165334945350235    0.02591944467468587    
  0.025174853076869626    0.024999540724645376    0.02546172236193752    0.026634261246311405    0.02859334348902999    
  0.03141332075042643    0.03516109315738923    0.03989054044404542    0.04563216875617636    0.05237119354948507    
  0.06001474421447859    0.06836233307288386    0.07709822120297682    0.08581013965433504    0.09401947244720492    
  0.10120828547021372    0.10685034464895048    0.11046748873921987    0.1117153933998359    0.12167414334216634    
  0.12028327697045998    0.11625246647459382    0.10996767236315036    0.10196557339432655    0.09283757227267407    
  0.0831653183463796    0.07348397450808995    0.0642515845134452    0.055817232771623405    0.048401892544669346    
  0.042105984201800166    0.03693946742426641    0.032857244674504064    0.029786345489324142    0.027642350080249865    
  0.026338493445658293    0.02579062511525171    0.02591944467468579    0.026650182854228627    0.02790898421514926    
  0.029615888825748747    0.03167710876141101    0.03398115572557573    0.03640076156702464    0.03879775690471461    
  0.04102777223552657    0.042946634787960423    0.04442239045834224    0.045350955109212394    0.0456676638987159    
  0.04535095510921241    0.04442239045834222    0.042946634787960465    0.04102777223552659    0.03879775690471464    
  0.03640076156702464    0.033981155725575724    0.03167710876141104    0.029615888825748747    0.02790898421514929    
  0.026650182854228696    0.025919444674685797    0.02579062511525172    0.02633849344565829    0.027642350080249817    
  0.029786345489324132    0.032857244674504064    0.03693946742426641    0.04210598420180017    0.048401892544669346    
  0.05581723277162337    0.06425158451344522    0.07348397450808992    0.08316531834637958    0.09283757227267404    
  0.10196557339432658    0.10996767236315037    0.1162524664745938    0.12028327697046001    0.12167414334216634    
  0.13631404599437377    0.1347157412119379    0.1300810789581016    0.12284948318362594    0.11364028482426798    
  0.10314634408924801    0.09205415737245011    0.0809899505192504    0.07047739351957001    0.06090472282595467    
  0.052512512620691405    0.04540841063023586    0.03959968627666152    0.03502804976572066    0.03159827416956047    
  0.02920041771496843    0.0277261154634265    0.02707705893679403    0.027165334945350256    0.027908984215149236    
  0.029226266858458364    0.031029191451347478    0.0332164367519912    0.03566864001977544    0.03824925888642794    