#     DFTpy    
  CRYSTAL 
    
  PRIMVEC    
  4.047034482758621    0.0    0.0    
  0.0    4.047034482758621    0.0    
  0.0    0.0    2.2296551724137905    
  PRIMCOORD    
  4    1    
  Si    0.0    0.0    0.0    
  Si    2.0235172413793108    2.0235172413793108    1.1148275862069001    
  Si    0.0    2.0235172413793108    0.5574137931034501    
  Si    2.0235172413793108    0.0    1.6722413793103401    
  BEGIN_BLOCK_DATAGRID_3D    
  3d_datagrid_density    
  BEGIN_DATAGRID_3D#0    
  41    41    25    
  0.0    0.0    0.0    
  4.047034497854136    0.0    0.0    
  0.0    4.047034497854136    0.0    
  0.0    0.0    2.2296551807304468    
  0.04824590149936015    0.05653166716788779    0.08495802388539275    0.1420287251823943    0.23347568941913624    
  0.35156670288377806    0.472601702789178    0.5695994819719881    0.6289339882458609    0.6544992431430521    
  0.6588804853327672    0.6530536023332318    0.6418785263929655    0.6246533427382034    0.5980199573598137    
  0.5597636411933227    0.5120104139252118    0.46172529967596904    0.41804726750364646    0.3887745464608966    
  0.37853449429414276    0.38877454646089654    0.4180472675036465    0.46172529967596904    0.5120104139252118    
  0.5597636411933228    0.5980199573598137    0.6246533427382033    0.6418785263929654    0.6530536023332318    
  0.6588804853327673    0.6544992431430522    0.6289339882458609    0.5695994819719881    0.47260170278917796    
  0.35156670288377817    0.23347568941913618    0.14202872518239418    0.08495802388539289    0.05653166716788765    
  0.04824590149936015    0.056531667167887885    0.06535634255474694    0.09515096739048103    0.1535592212699048    
  0.24492705857804303    0.36046713404257125    0.47679733996856416    0.5685279087354156    0.6236409787546161    
  0.6466689443915671    0.6499555256314554    0.6439889267136184    0.6333387388307807    0.617274094075212    
  0.5925006275270163    0.556738482171198    0.5118015712837525    0.4641780751691778    0.42258104989954093    
  0.3945848584696711    0.38476859228977833    0.39458485846967106    0.42258104989954104    0.4641780751691778    
  0.5118015712837525    0.5567384821711981    0.5925006275270163    0.6172740940752119    0.6333387388307805    
  0.6439889267136184    0.6499555256314555    0.6466689443915671    0.6236409787546161    0.5685279087354156    
  0.47679733996856405    0.3604671340425713    0.24492705857804303    0.15355922126990468    0.09515096739048112    
  0.06535634255474684    0.056531667167887885    0.08495802388539284    0.09515096739048112    0.12822818429160832    
  0.18923489855468129    0.2787617020396359    0.3855993854282515    0.48778247970169114    0.5644632041089974    
  0.6078302967366865    0.6238874243598638    0.6241702294211655    0.6178065450557081    0.6085826956022563    
  0.5956948709799457    0.576035075717643    0.5471807355667989    0.510134402887154    0.470083158071702    
  0.43451077962600826    0.4102709821482872    0.40171462739634384    0.4102709821482872    0.43451077962600826    
  0.470083158071702    0.510134402887154    0.547180735566799    0.576035075717643    0.5956948709799456    
  0.6085826956022562    0.617806545055708    0.6241702294211656    0.6238874243598639    0.6078302967366865    
  0.5644632041089974    0.48778247970169114    0.3855993854282516    0.2787617020396359    0.18923489855468115    
  0.1282281842916084    0.09515096739048103    0.08495802388539284    0.14202872518239434    0.15355922126990473    
  0.18923489855468115    0.2501416303518014    0.33211403862586136    0.4219983268288935    0.5011615268673287    
  0.555361049053402    0.581984307163222    0.5883235863465872    0.5844227266343901    0.5774701271995679    
  0.5701991862821354    0.5617174669393264    0.549200586930991    0.5301175599971326    0.5044613678078009    
  0.4756359308455272    0.4492640431402996    0.43091762231716385    0.4243709531027993    0.43091762231716385    
  0.4492640431402996    0.4756359308455273    0.5044613678078009    0.5301175599971327    0.549200586930991    
  0.5617174669393263    0.5701991862821353    0.5774701271995678    0.5844227266343902    0.5883235863465871    
  0.581984307163222    0.555361049053402    0.5011615268673287    0.4219983268288936    0.3321140386258613    
  0.25014163035180126    0.18923489855468126    0.15355922126990465    0.14202872518239434    0.23347568941913627    
  0.24492705857804298    0.2787617020396358    0.3321140386258613    0.3972507258871741    0.46136081841027143    
  0.511104578650074    0.5392658849360306    0.5475748646657654    0.5435633111574207    0.5351974604611353    
  0.5275651309019835    0.5223382969891264    0.5185400627356042    0.5136693232654375    0.5051979662955804    
  0.4922157953427024    0.47628399157947854    0.46084905614941984    0.4497232245368514    0.4456836791941725    
  0.4497232245368514    0.46084905614941984    0.47628399157947854    0.4922157953427024    0.5051979662955804    
  0.5136693232654375    0.5185400627356039    0.5223382969891263    0.5275651309019834    0.5351974604611354    
  0.5435633111574208    0.5475748646657654    0.5392658849360307    0.511104578650074    0.46136081841027154    
  0.3972507258871741    0.33211403862586125    0.2787617020396359    0.24492705857804287    0.23347568941913627    
  0.35156670288377817    0.36046713404257125    0.3855993854282515    0.4219983268288936    0.46136081841027154    
  0.49397942182173676    0.51260563504188    0.5157080184967054    0.5073794026705389    0.49419536787938767    
  0.481845022285466    0.47355769901138456    0.4701324127300479    0.47051877346073745    0.47250833396990655    
  0.4736759974746417    0.4724720888493463    0.46888856180911626    0.4642689509930631    0.4604820474212057    
  0.4590318928514396    0.4604820474212057    0.46426895099306315    0.46888856180911626    0.4724720888493463    
  0.4736759974746418    0.47250833396990655    0.4705187734607373    0.4701324127300478    0.47355769901138445    
  0.4818450222854661    0.4941953678793878    0.5073794026705389    0.5157080184967054    0.51260563504188    
  0.4939794218217369    0.46136081841027154    0.4219983268288935    0.3855993854282517    0.3604671340425712    
  0.35156670288377817    0.472601702789178    0.47679733996856427    0.48778247970169136    0.501161526867329    
  0.5111045786500742    0.51260563504188    0.5037275696525955    0.4863941019101699    0.4651629712637274    
  0.4450003287574483    0.4295885199592364    0.42077568248741004    0.4187537127350951    0.4224164636119277    
  0.42977629346564555    0.43854216911138716    0.4467726380972059    0.45330256719358875    0.45775646284301796    
  0.46025461958301495    0.4610487135396837    0.46025461958301495    0.45775646284301796    0.45330256719358875    
  0.4467726380972059    0.43854216911138727    0.42977629346564544    0.4224164636119276    0.418753712735095    
  0.42077568248741    0.4295885199592364    0.4450003287574483    0.4651629712637274    0.48639410191016996    
  0.5037275696525955    0.5126056350418801    0.5111045786500741    0.5011615268673288    0.48778247970169136    
  0.47679733996856416    0.472601702789178    0.569599481971988    0.5685279087354156    0.5644632041089973    
  0.555361049053402    0.5392658849360307    0.5157080184967054    0.4863941019101699    0.45477816717442626    
  0.4248720204014875    0.40009062122359434    0.38265684829140717    0.3735235135006968    0.3725099972898957    
  0.3784846602906483    0.3896161883889542    0.40371994589200344    0.4186110057734227    0.4323465640342765    
  0.44334074578840443    0.45041914428470586    0.4528597096222219    0.45041914428470586    0.44334074578840443    
  0.4323465640342765    0.4186110057734227    0.4037199458920035    0.3896161883889542    0.37848466029064826    
  0.37250999728989564    0.37352351350069674    0.3826568482914073    0.4000906212235944    0.4248720204014875    
  0.4547781671744264    0.4863941019101699    0.5157080184967056    0.5392658849360306    0.5553610490534019    
  0.5644632041089974    0.5685279087354155    0.569599481971988    0.628933988245861    0.6236409787546161    
  0.6078302967366865    0.581984307163222    0.5475748646657654    0.5073794026705388    0.4651629712637274    
  0.4248720204014875    0.38984437022408963    0.36241305857380623    0.3438877126172567    0.33467382017161895    
  0.33437038363682103    0.34185603581014695    0.3554221462180912    0.37294872324717837    0.39207587834613483    
  0.41036151422810807    0.4254708029811722    0.4354300547489932    0.4389069899140816    0.4354300547489932    
  0.4254708029811722    0.41036151422810807    0.39207587834613483    0.3729487232471785    0.3554221462180912    
  0.34185603581014684    0.334370383636821    0.3346738201716188    0.34388771261725676    0.36241305857380623    
  0.38984437022408963    0.4248720204014876    0.4651629712637274    0.5073794026705389    0.5475748646657653    
  0.581984307163222    0.6078302967366866    0.623640978754616    0.628933988245861    0.6544992431430521    
  0.6466689443915671    0.6238874243598639    0.5883235863465872    0.5435633111574208    0.4941953678793878    
  0.4450003287574483    0.40009062122359446    0.3624130585738062    0.33372216863447257    0.31481191731498787    
  0.30574542666354426    0.3059812719452194    0.31442879137438356    0.3294817830512732    0.3490559527942791    
  0.3706600820047855    0.39154548306246234    0.4089639237096894    0.4205223676032252    0.42457197505496524    
  0.4205223676032252    0.4089639237096893    0.3915454830624624    0.3706600820047855    0.34905595279427915    
  0.3294817830512732    0.3144287913743835    0.3059812719452193    0.30574542666354404    0.3148119173149879    
  0.3337221686344726    0.3624130585738062    0.40009062122359446    0.4450003287574483    0.49419536787938784    
  0.5435633111574208    0.5883235863465872    0.623887424359864    0.6466689443915671    0.6544992431430521    
  0.6588804853327673    0.6499555256314555    0.6241702294211656    0.5844227266343903    0.5351974604611354    
  0.481845022285466    0.4295885199592363    0.3826568482914073    0.3438877126172568    0.3148119173149879    
  0.2959721247169338    0.2872297236116765    0.2879516132937088    0.29706891881145864    0.31304111308734517    
  0.3337991305125411    0.35676793573781923    0.37903336952173333    0.3976465008824597    0.4100204970296062    
  0.4143604536025572    0.4100204970296062    0.39764650088245973    0.37903336952173333    0.35676793573781923    
  0.3337991305125412    0.31304111308734517    0.2970689188114585    0.2879516132937087    0.2872297236116763    
  0.29597212471693385    0.314811917314988    0.3438877126172568    0.38265684829140734    0.4295885199592363    
  0.4818450222854661    0.5351974604611354    0.5844227266343902    0.6241702294211656    0.6499555256314555    
  0.6588804853327673    0.653053602333232    0.6439889267136184    0.617806545055708    0.5774701271995679    
  0.5275651309019835    0.47355769901138445    0.42077568248740993    0.3735235135006968    0.33467382017161895    
  0.30574542666354415    0.28722972361167637    0.2789259037073043    0.28016161356070257    0.2898626763738542    
  0.30649654755462097    0.32798557682296575    0.35171688331192097    0.3747143114657656    0.39395000156308185    
  0.4067490586925078    0.4112409415317406    0.4067490586925078    0.39395000156308185    0.3747143114657656    
  0.35171688331192097    0.32798557682296586    0.30649654755462097    0.2898626763738541    0.2801616135607025    
  0.27892590370730413    0.2872297236116764    0.30574542666354415    0.33467382017161895    0.3735235135006968    
  0.42077568248741    0.47355769901138456    0.5275651309019835    0.5774701271995679    0.6178065450557081    
  0.6439889267136184    0.653053602333232    0.6418785263929655    0.6333387388307806    0.6085826956022562    
  0.5701991862821352    0.5223382969891264    0.4701324127300477    0.41875371273509493    0.37250999728989553    
  0.33437038363682103    0.30598127194521924    0.2879516132937085    0.28016161356070257    0.28196808281788677    
  0.2922772941122965    0.30951380233085685    0.3315672912542137    0.3558179013724521    0.37929141800376936    
  0.3989388192842998    0.4120292137507824    0.41662773300171524    0.4120292137507824    0.3989388192842998    
  0.3792914180037694    0.3558179013724521    0.3315672912542139    0.30951380233085685    0.2922772941122964    
  0.2819680828178867    0.2801616135607024    0.2879516132937086    0.3059812719452193    0.33437038363682103    
  0.37250999728989553    0.41875371273509493    0.4701324127300479    0.5223382969891264    0.5701991862821352    
  0.6085826956022563    0.6333387388307805    0.6418785263929655    0.6246533427382036    0.617274094075212    
  0.5956948709799456    0.5617174669393264    0.5185400627356042    0.47051877346073717    0.42241646361192753    
  0.37848466029064837    0.341856035810147    0.31442879137438345    0.29706891881145847    0.28986267637385427    
  0.2922772941122966    0.3032240332874635    0.32107244576250094    0.343669312529025    0.36840115861986794    
  0.3923215329835758    0.4123739870049449    0.42576382570662846    0.43047451640611956    0.42576382570662846    
  0.4123739870049449    0.39232153298357575    0.36840115861986794    0.3436693125290251    0.32107244576250094    
  0.3032240332874633    0.29227729411229647    0.2898626763738541    0.2970689188114586    0.31442879137438356    
  0.341856035810147    0.37848466029064837    0.42241646361192753    0.4705187734607374    0.5185400627356042    
  0.5617174669393263    0.5956948709799457    0.6172740940752119    0.6246533427382036    0.5980199573598137    
  0.5925006275270165    0.576035075717643    0.549200586930991    0.5136693232654376    0.47250833396990655    
  0.42977629346564544    0.38961618838895423    0.3554221462180912    0.32948178305127307    0.31304111308734517    
  0.30649654755462097    0.30951380233085696    0.321072445762501    0.3395189435550192    0.36266609503756864    
  0.3879077226093978    0.4123235135778051    0.4328402975134378    0.4465799357187234    0.45142272215315943    
  0.4465799357187234    0.43284029751343767    0.4123235135778051    0.3879077226093978    0.36266609503756886    
  0.33951894355501927    0.3210724457625009    0.3095138023308569    0.3064965475546209    0.3130411130873453    
  0.32948178305127324    0.3554221462180912    0.38961618838895423    0.42977629346564555    0.47250833396990666    
  0.5136693232654376    0.5492005869309909    0.5760350757176431    0.5925006275270164    0.5980199573598137    
  0.5597636411933228    0.5567384821711983    0.5471807355667989    0.5301175599971327    0.5051979662955806    
  0.4736759974746417    0.43854216911138716    0.4037199458920034    0.3729487232471785    0.34905595279427915    
  0.3337991305125409    0.3279855768229658    0.3315672912542139    0.343669312529025    0.3626660950375687    
  0.3863517840343961    0.4121166735144292    0.43704906996381254    0.4580478629498596    0.4721479032955609    
  0.4771262337775932    0.4721479032955609    0.4580478629498596    0.43704906996381254    0.4121166735144292    
  0.3863517840343962    0.36266609503756875    0.3436693125290249    0.3315672912542138    0.32798557682296575    
  0.3337991305125411    0.34905595279427926    0.3729487232471785    0.40371994589200344    0.43854216911138716    
  0.4736759974746418    0.5051979662955806    0.5301175599971326    0.547180735566799    0.556738482171198    
  0.5597636411933228    0.5120104139252118    0.5118015712837524    0.5101344028871537    0.5044613678078009    
  0.4922157953427024    0.4724720888493464    0.44677263809720597    0.4186110057734228    0.39207587834613483    
  0.3706600820047855    0.3567679357378192    0.35171688331192114    0.3558179013724522    0.368401158619868    
  0.3879077226093979    0.41211667351442927    0.43838902814845987    0.46379472827341817    0.4852042516518588    
  0.4995954586988488    0.5046805139636044    0.4995954586988488    0.4852042516518588    0.46379472827341817    
  0.43838902814845987    0.41211667351442927    0.38790772260939793    0.3684011586198679    0.3558179013724521    
  0.351716883311921    0.3567679357378193    0.3706600820047856    0.39207587834613483    0.4186110057734228    
  0.4467726380972059    0.4724720888493465    0.49221579534270254    0.5044613678078009    0.510134402887154    
  0.5118015712837523    0.5120104139252118    0.4617252996759691    0.4641780751691779    0.470083158071702    
  0.4756359308455273    0.47628399157947865    0.4688885618091163    0.45330256719358875    0.43234656403427657    
  0.41036151422810807    0.3915454830624623    0.3790333695217332    0.3747143114657656    0.3792914180037697    
  0.3923215329835757    0.4123235135778052    0.43704906996381254    0.4637947282734181    0.48958216047811376    
  0.5112635156231412    0.525815792226808    0.5309541122558137    0.525815792226808    0.5112635156231413    
  0.48958216047811376    0.4637947282734181    0.43704906996381254    0.4123235135778052    0.3923215329835757    
  0.3792914180037695    0.37471431146576556    0.37903336952173333    0.3915454830624624    0.41036151422810807    
  0.43234656403427657    0.45330256719358875    0.4688885618091164    0.47628399157947865    0.4756359308455272    
  0.470083158071702    0.4641780751691778    0.4617252996759691    0.41804726750364657    0.42258104989954093    
  0.434510779626008    0.4492640431402997    0.46084905614941984    0.464268950993063    0.4577564628430178    
  0.44334074578840454    0.4254708029811722    0.4089639237096894    0.3976465008824595    0.3939500015630818    
  0.3989388192843001    0.4123739870049449    0.4328402975134376    0.4580478629498596    0.4852042516518588    
  0.5112635156231412    0.5330719232697905    0.5476564964801371    0.5527960983977487    0.5476564964801371    
  0.5330719232697905    0.5112635156231412    0.4852042516518588    0.4580478629498597    0.43284029751343767    
  0.4123739870049447    0.3989388192842999    0.3939500015630817    0.3976465008824596    0.4089639237096895    
  0.4254708029811722    0.44334074578840454    0.4577564628430178    0.4642689509930631    0.46084905614941984    
  0.4492640431402996    0.43451077962600826    0.42258104989954093    0.41804726750364657    0.3887745464608966    
  0.39458485846967106    0.4102709821482871    0.430917622317164    0.44972322453685126    0.4604820474212057    
  0.460254619583015    0.4504191442847059    0.4354300547489932    0.4205223676032252    0.4100204970296062    
  0.4067490586925079    0.4120292137507824    0.4257638257066286    0.4465799357187234    0.4721479032955609    
  0.4995954586988488    0.5258157922268079    0.5476564964801374    0.5622069254400482    0.5673235790636644    
  0.5622069254400481    0.5476564964801374    0.5258157922268079    0.4995954586988488    0.4721479032955609    
  0.4465799357187235    0.42576382570662846    0.41202921375078233    0.4067490586925078    0.4100204970296064    
  0.4205223676032252    0.4354300547489932    0.4504191442847059    0.46025461958301495    0.4604820474212058    
  0.44972322453685126    0.43091762231716385    0.4102709821482872    0.394584858469671    0.3887745464608966    
  0.37853449429414293    0.3847685922897781    0.4017146273963436    0.4243709531027992    0.4456836791941725    
  0.4590318928514396    0.4610487135396836    0.45285970962222166    0.4389069899140815    0.42457197505496513    
  0.4143604536025569    0.4112409415317406    0.41662773300171535    0.4304745164061194    0.4514227221531592    
  0.4771262337775931    0.5046805139636042    0.5309541122558137    0.5527960983977486    0.5673235790636642    
  0.5724274552919951    0.5673235790636642    0.5527960983977486    0.5309541122558137    0.5046805139636042    
  0.47712623377759306    0.4514227221531592    0.4304745164061193    0.41662773300171524    0.4112409415317406    
  0.414360453602557    0.42457197505496513    0.4389069899140815    0.45285970962222155    0.4610487135396835    
  0.4590318928514396    0.4456836791941725    0.42437095310279915    0.4017146273963437    0.38476859228977806    
  0.37853449429414293    0.3887745464608967    0.39458485846967106    0.41027098214828717    0.430917622317164    
  0.4497232245368514    0.4604820474212057    0.460254619583015    0.45041914428470586    0.4354300547489932    
  0.4205223676032252    0.4100204970296062    0.4067490586925079    0.4120292137507825    0.4257638257066286    
  0.44657993571872334    0.4721479032955609    0.4995954586988488    0.5258157922268079    0.5476564964801374    
  0.562206925440048    0.5673235790636643    0.5622069254400481    0.5476564964801374    0.5258157922268079    
  0.4995954586988488    0.472147903295561    0.4465799357187234    0.42576382570662846    0.4120292137507824    
  0.40674905869250794    0.4100204970296063    0.4205223676032252    0.4354300547489932    0.45041914428470586    
  0.46025461958301495    0.4604820474212058    0.4497232245368514    0.43091762231716385    0.4102709821482872    
  0.394584858469671    0.3887745464608967    0.41804726750364657    0.42258104989954093    0.43451077962600826    
  0.4492640431402996    0.46084905614941984    0.464268950993063    0.4577564628430178    0.44334074578840454    
  0.4254708029811724    0.4089639237096894    0.3976465008824595    0.39395000156308185    0.39893881928430003    
  0.4123739870049448    0.4328402975134376    0.4580478629498597    0.48520425165185893    0.5112635156231413    
  0.5330719232697906    0.5476564964801374    0.5527960983977487    0.5476564964801371    0.5330719232697906    
  0.5112635156231412    0.48520425165185893    0.4580478629498598    0.43284029751343767    0.41237398700494465    
  0.3989388192842999    0.3939500015630818    0.3976465008824596    0.40896392370968937    0.4254708029811724    
  0.44334074578840454    0.4577564628430178    0.4642689509930631    0.46084905614941984    0.4492640431402995    
  0.43451077962600826    0.42258104989954093    0.41804726750364657    0.4617252996759692    0.4641780751691779    
  0.470083158071702    0.4756359308455272    0.47628399157947854    0.4688885618091163    0.45330256719358875    
  0.43234656403427657    0.41036151422810807    0.3915454830624623    0.37903336952173317    0.3747143114657655    
  0.3792914180037696    0.39232153298357575    0.4123235135778052    0.43704906996381243    0.4637947282734181    
  0.48958216047811387    0.5112635156231412    0.525815792226808    0.5309541122558139    0.525815792226808    
  0.5112635156231412    0.48958216047811387    0.4637947282734181    0.43704906996381254    0.4123235135778052    
  0.3923215329835757    0.3792914180037696    0.37471431146576556    0.3790333695217334    0.3915454830624624    
  0.41036151422810807    0.43234656403427657    0.45330256719358875    0.4688885618091164    0.47628399157947854    
  0.4756359308455271    0.4700831580717021    0.4641780751691779    0.4617252996759692    0.5120104139252118    
  0.5118015712837524    0.5101344028871537    0.5044613678078009    0.4922157953427024    0.4724720888493464    
  0.44677263809720597    0.4186110057734228    0.39207587834613483    0.3706600820047855    0.3567679357378192    
  0.35171688331192114    0.3558179013724522    0.368401158619868    0.3879077226093979    0.41211667351442927    
  0.43838902814845987    0.46379472827341817    0.4852042516518588    0.4995954586988488    0.5046805139636044    
  0.4995954586988488    0.4852042516518588    0.46379472827341817    0.43838902814845987    0.41211667351442927    
  0.38790772260939793    0.3684011586198679    0.3558179013724521    0.351716883311921    0.3567679357378193    
  0.3706600820047856    0.39207587834613483    0.4186110057734228    0.4467726380972059    0.4724720888493465    
  0.49221579534270254    0.5044613678078009    0.510134402887154    0.5118015712837523    0.5120104139252118    
  0.5597636411933228    0.5567384821711981    0.5471807355667989    0.5301175599971327    0.5051979662955806    
  0.4736759974746417    0.43854216911138716    0.4037199458920034    0.3729487232471785    0.3490559527942791    
  0.33379913051254095    0.32798557682296586    0.33156729125421397    0.34366931252902494    0.3626660950375686    
  0.3863517840343961    0.41211667351442927    0.43704906996381243    0.4580478629498596    0.4721479032955609    
  0.4771262337775931    0.4721479032955609    0.4580478629498597    0.43704906996381243    0.41211667351442927    
  0.38635178403439624    0.3626660950375686    0.343669312529025    0.3315672912542138    0.32798557682296575    
  0.33379913051254106    0.34905595279427915    0.3729487232471785    0.4037199458920034    0.43854216911138727    
  0.4736759974746418    0.5051979662955804    0.5301175599971327    0.547180735566799    0.556738482171198    
  0.5597636411933228    0.5980199573598136    0.5925006275270164    0.576035075717643    0.5492005869309912    
  0.5136693232654376    0.4725083339699065    0.42977629346564533    0.38961618838895423    0.3554221462180911    
  0.3294817830512731    0.3130411130873452    0.30649654755462097    0.3095138023308569    0.32107244576250105    
  0.3395189435550191    0.36266609503756864    0.3879077226093978    0.41232351357780506    0.4328402975134378    
  0.44657993571872323    0.45142272215315943    0.44657993571872334    0.43284029751343767    0.41232351357780506    
  0.3879077226093978    0.36266609503756864    0.33951894355501916    0.32107244576250094    0.30951380233085685    
  0.30649654755462086    0.3130411130873453    0.3294817830512733    0.3554221462180911    0.3896161883889542    
  0.42977629346564533    0.47250833396990666    0.5136693232654376    0.549200586930991    0.5760350757176431    
  0.5925006275270163    0.5980199573598136    0.6246533427382035    0.617274094075212    0.5956948709799456    
  0.5617174669393264    0.5185400627356042    0.4705187734607374    0.4224164636119276    0.3784846602906483    
  0.34185603581014706    0.3144287913743835    0.2970689188114585    0.2898626763738542    0.2922772941122966    
  0.3032240332874635    0.321072445762501    0.3436693125290249    0.36840115861986794    0.3923215329835757    
  0.4123739870049448    0.4257638257066286    0.43047451640611956    0.4257638257066286    0.4123739870049448    
  0.3923215329835757    0.36840115861986794    0.3436693125290251    0.321072445762501    0.3032240332874634    
  0.2922772941122965    0.2898626763738541    0.2970689188114586    0.31442879137438356    0.34185603581014706    
  0.37848466029064837    0.4224164636119276    0.47051877346073745    0.5185400627356042    0.5617174669393264    
  0.5956948709799457    0.6172740940752119    0.6246533427382035    0.6418785263929655    0.6333387388307805    
  0.6085826956022562    0.5701991862821352    0.5223382969891263    0.4701324127300479    0.41875371273509493    
  0.37250999728989553    0.33437038363682103    0.30598127194521924    0.2879516132937085    0.2801616135607026    
  0.2819680828178867    0.29227729411229647    0.30951380233085674    0.3315672912542138    0.35581790137245206    
  0.3792914180037694    0.39893881928429986    0.4120292137507824    0.41662773300171524    0.4120292137507824    
  0.39893881928429986    0.3792914180037694    0.35581790137245206    0.3315672912542138    0.30951380233085674    
  0.29227729411229636    0.2819680828178867    0.28016161356070235    0.2879516132937086    0.3059812719452193    
  0.33437038363682103    0.37250999728989553    0.41875371273509493    0.4701324127300479    0.5223382969891263    
  0.5701991862821352    0.6085826956022563    0.6333387388307804    0.6418785263929655    0.653053602333232    
  0.6439889267136184    0.617806545055708    0.5774701271995679    0.5275651309019835    0.47355769901138445    
  0.42077568248741004    0.3735235135006968    0.33467382017161895    0.3057454266635441    0.28722972361167637    
  0.27892590370730436    0.2801616135607026    0.2898626763738542    0.30649654755462086    0.3279855768229658    
  0.351716883311921    0.37471431146576556    0.39395000156308185    0.4067490586925078    0.4112409415317406    
  0.4067490586925078    0.39395000156308185    0.37471431146576556    0.351716883311921    0.32798557682296603    
  0.30649654755462086    0.2898626763738541    0.28016161356070257    0.2789259037073042    0.2872297236116764    
  0.30574542666354415    0.33467382017161895    0.3735235135006968    0.42077568248741004    0.47355769901138456    
  0.5275651309019835    0.5774701271995678    0.6178065450557081    0.6439889267136184    0.653053602333232    
  0.6588804853327673    0.6499555256314555    0.6241702294211655    0.5844227266343903    0.5351974604611354    
  0.4818450222854661    0.4295885199592362    0.3826568482914072    0.34388771261725687    0.31481191731498787    
  0.29597212471693374    0.2872297236116765    0.2879516132937087    0.2970689188114586    0.3130411130873453    
  0.3337991305125411    0.3567679357378193    0.3790333695217334    0.39764650088245973    0.4100204970296062    
  0.41436045360255735    0.4100204970296062    0.3976465008824597    0.37903336952173344    0.3567679357378193    
  0.3337991305125412    0.3130411130873453    0.29706891881145847    0.2879516132937086    0.28722972361167637    
  0.2959721247169338    0.314811917314988    0.34388771261725687    0.3826568482914073    0.4295885199592363    
  0.48184502228546616    0.5351974604611354    0.5844227266343902    0.6241702294211656    0.6499555256314555    
  0.6588804853327673    0.6544992431430522    0.6466689443915673    0.6238874243598638    0.5883235863465871    
  0.5435633111574208    0.49419536787938767    0.4450003287574483    0.4000906212235944    0.36241305857380623    