#     DFTpy    
  CRYSTAL 
    
  PRIMVEC    
  5.340758620689651    0.0    0.0    
  0.0    5.340758620689651    0.0    
  0.0    0.0    2.9424137931034506    
  PRIMCOORD    
  4    1    
  Si    0.0    0.0    0.0    
  Si    2.6703793103448303    2.6703793103448303    1.4712068965517202    
  Si    0.0    2.6703793103448303    0.7356034482758601    
  Si    2.6703793103448303    0.0    2.2068103448275904    
  BEGIN_BLOCK_DATAGRID_3D    
  3d_datagrid_density    
  BEGIN_DATAGRID_3D#0    
  51    51    28    
  0.0    0.0    0.0    
  5.340758640610783    0.0    0.0    
  0.0    5.340758640610783    0.0    
  0.0    0.0    2.9424138040787104    
  0.0545448666597138    0.06307305333037262    0.09150840447337787    0.14506933625690835    0.22182320525339103    
  0.3043832972545159    0.3660827267825813    0.38962267006233076    0.3776530523006594    0.3455916636273124    
  0.30881771236590516    0.2766624950486682    0.2531598642325857    0.23947161468408523    0.23544065960350843    
  0.24030665035908363    0.2530024925843876    0.2720895727818064    0.29539866377135865    0.3197793998409041    
  0.34151344065678113    0.3575203247750444    0.36666918907746926    0.37015874975705876    0.37059662356788237    
  0.37041928044330824    0.37059662356788237    0.37015874975705876    0.36666918907746926    0.3575203247750444    
  0.34151344065678113    0.3197793998409042    0.29539866377135876    0.27208957278180645    0.2530024925843877    
  0.24030665035908358    0.2354406596035085    0.23947161468408523    0.25315986423258574    0.27666249504866824    
  0.30881771236590516    0.34559166362731236    0.3776530523006594    0.3896226700623307    0.3660827267825814    
  0.30438329725451585    0.22182320525339103    0.14506933625690832    0.09150840447337782    0.06307305333037266    
  0.0545448666597138    0.0630730533303727    0.07208803006629862    0.10164920212222393    0.15593376257906016    
  0.23166419347265785    0.31099776421736525    0.36840284227774434    0.38833193426898416    0.37433188938339773    
  0.34159538293092984    0.3048617511650153    0.27297888846193125    0.24974549845399388    0.23622866678224294    
  0.23223907925856238    0.23702245821376522    0.24954526925824475    0.2684217050583099    0.29155757579116826    
  0.315903318813464    0.3378408789477145    0.3543275104716499    0.36415602958604243    0.3683484116767673    
  0.3693091762713148    0.36932415822499526    0.3693091762713148    0.36834841167676735    0.3641560295860425    
  0.3543275104716499    0.3378408789477145    0.315903318813464    0.29155757579116826    0.2684217050583099    
  0.24954526925824475    0.23702245821376522    0.23223907925856238    0.23622866678224294    0.24974549845399388    
  0.2729788884619313    0.3048617511650153    0.34159538293092984    0.37433188938339773    0.38833193426898416    
  0.3684028422777444    0.31099776421736525    0.23166419347265785    0.1559337625790601    0.10164920212222384    
  0.07208803006629867    0.0630730533303727    0.09150840447337791    0.10164920212222382    0.1335435790652433    
  0.18839028892125007    0.2595398857462415    0.3285801580114669    0.37352711568102354    0.3835076551716393    
  0.36414984993927824    0.3297789054893386    0.2933146516886474    0.26229050358074907    0.23987400938204625    
  0.22687665422976355    0.22302213212472663    0.2275742487909459    0.23959169848894102    0.2578318212548953    
  0.28040411377309676    0.30453637856385707    0.32689473683836523    0.34456019697320633    0.35614141501765206    
  0.3621910883587642    0.364553607344954    0.36508779171760947    0.364553607344954    0.3621910883587642    
  0.3561414150176521    0.34456019697320633    0.32689473683836523    0.3045363785638572    0.28040411377309676    
  0.25783182125489534    0.23959169848894107    0.22757424879094587    0.22302213212472674    0.2268766542297635    
  0.23987400938204625    0.26229050358074907    0.2933146516886474    0.3297789054893386    0.36414984993927824    
  0.3835076551716393    0.3735271156810236    0.32858015801146695    0.2595398857462415    0.18839028892125    
  0.13354357906524325    0.10164920212222386    0.09150840447337791    0.1450693362569083    0.15593376257906016    
  0.1883902889212501    0.2396074338942555    0.2994553903202128    0.35053375326304537    0.3766682620925596    
  0.37292901761033426    0.3468019793134129    0.31079336350266995    0.2751597277126072    0.24564844495782479    
  0.2245875839325797    0.21244600818001885    0.20883297511555307    0.21304300944181528    0.2242638019501002    
  0.24144738735589094    0.26298173870386216    0.28648329394157346    0.3090361574293058    0.327944615560898    
  0.34162786603257417    0.3500329722170713    0.3542277908905941    0.3554503360772161    0.3542277908905941    
  0.35003297221707136    0.3416278660325743    0.327944615560898    0.3090361574293058    0.2864832939415735    
  0.2629817387038622    0.24144738735589094    0.2242638019501002    0.21304300944181528    0.20883297511555313    
  0.2124460081800188    0.2245875839325797    0.24564844495782479    0.2751597277126072    0.31079336350266995    
  0.3468019793134129    0.3729290176103343    0.3766682620925596    0.35053375326304537    0.29945539032021284    
  0.23960743389425546    0.18839028892125    0.15593376257906016    0.1450693362569083    0.22182320525339097    
  0.23166419347265782    0.2595398857462415    0.2994553903202128    0.340021787762857    0.3673915131423703    
  0.37221374975896576    0.354652004392042    0.3226409379960654    0.28599067726371025    0.25201786977366414    
  0.22465589300172661    0.20539897786185124    0.19437588035245607    0.1910919413895532    0.1948871248756301    
  0.2050874295398323    0.2208453680230771    0.24084069850400172    0.2631104820162344    0.2852157187745642    
  0.30476884497294293    0.3200861313965907    0.33055387491706484    0.33644356722505153    0.33831810321161854    
  0.33644356722505153    0.33055387491706484    0.3200861313965907    0.30476884497294293    0.2852157187745642    
  0.2631104820162345    0.24084069850400172    0.2208453680230771    0.20508742953983236    0.19488712487563006    
  0.19109194138955327    0.19437588035245607    0.20539897786185124    0.22465589300172661    0.25201786977366414    
  0.2859906772637102    0.3226409379960654    0.354652004392042    0.37221374975896576    0.3673915131423703    
  0.340021787762857    0.2994553903202127    0.25953988574624137    0.23166419347265785    0.22182320525339097    
  0.3043832972545158    0.3109977642173652    0.3285801580114669    0.35053375326304526    0.3673915131423703    
  0.37055342360623417    0.35657849025636795    0.3284979880101709    0.29316119146148634    0.2574072060581758    
  0.2259444471112308    0.20120978214959703    0.18402149095614312    0.1742434861153828    0.17132314593807532    
  0.17466154036909826    0.18370714731884966    0.19778233067975706    0.21582657274905787    0.23626637118452049    
  0.2571239145189839    0.27635809403365325    0.292301369201801    0.30395155970304977    0.31094289897540367    
  0.3132613777568893    0.31094289897540367    0.30395155970304977    0.292301369201801    0.27635809403365325    
  0.2571239145189839    0.23626637118452054    0.2158265727490579    0.19778233067975706    0.18370714731884968    
  0.17466154036909823    0.17132314593807538    0.17424348611538276    0.18402149095614312    0.2012097821495971    
  0.2259444471112308    0.2574072060581758    0.29316119146148634    0.3284979880101708    0.356578490256368    
  0.3705534236062342    0.3673915131423703    0.3505337532630452    0.3285801580114669    0.31099776421736525    
  0.3043832972545158    0.3660827267825813    0.36840284227774434    0.3735271156810236    0.37666826209255955    
  0.3722137497589658    0.356578490256368    0.3300784336828667    0.29647498834744745    0.2608118121650046    
  0.2274095095663035    0.1990702683073605    0.17718593267779764    0.1621115119852804    0.15355811630139282    
  0.1509794639875859    0.1538491213280523    0.16170530792326906    0.17399138969237837    0.18985452248275184    
  0.20804818384634685    0.22699265249962577    0.24498077265437554    0.26045712258570886    0.2722376830138395    
  0.2795677832282444    0.28205163124874455    0.2795677832282444    0.27223768301383955    0.26045712258570886    
  0.24498077265437554    0.22699265249962577    0.20804818384634693    0.18985452248275186    0.17399138969237837    
  0.1617053079232691    0.15384912132805226    0.15097946398758597    0.15355811630139282    0.16211151198528043    
  0.1771859326777977    0.1990702683073605    0.2274095095663035    0.2608118121650046    0.29647498834744745    
  0.3300784336828667    0.356578490256368    0.3722137497589658    0.37666826209255944    0.37352711568102354    
  0.3684028422777444    0.3660827267825813    0.3896226700623307    0.3883319342689841    0.3835076551716393    
  0.37292901761033426    0.3546520043920419    0.32849798801017094    0.29647498834744745    0.26194238395953706    
  0.22831573685178982    0.19821322126828791    0.1732522711539786    0.15418100482698274    0.14108523413295299    
  0.133633960871924    0.13134484116476172    0.13376539098470183    0.14048647198818273    0.1510242440353862    
  0.16468112855493153    0.1804701680562625    0.19713333503045158    0.21325648526869018    0.22744917257063652    
  0.23851231939545497    0.24553511174064138    0.2479423351478089    0.2455351117406414    0.23851231939545497    
  0.22744917257063657    0.2132564852686902    0.19713333503045163    0.18047016805626254    0.16468112855493153    
  0.1510242440353862    0.1404864719881828    0.13376539098470178    0.13134484116476178    0.133633960871924    
  0.141085234132953    0.1541810048269828    0.1732522711539786    0.19821322126828786    0.22831573685178988    
  0.26194238395953706    0.29647498834744745    0.32849798801017094    0.3546520043920419    0.37292901761033426    
  0.3835076551716393    0.3883319342689841    0.3896226700623307    0.3776530523006594    0.3743318893833978    
  0.3641498499392783    0.34680197931341294    0.3226409379960654    0.29316119146148634    0.26081181216500465    
  0.22831573685178988    0.19801115342158673    0.17154463496017316    0.14987150284385523    0.13337636433037112    
  0.1220206965092571    0.1155103581575042    0.11345649094900484    0.11547147778288082    0.12117127939123574    
  0.13011143543129353    0.1417060300606041    0.15516624990555372    0.16948596237904365    0.18349818312031985    
  0.19599521914950485    0.20586318193214367    0.21219237811267544    0.21437431287423758    0.21219237811267544    
  0.2058631819321437    0.19599521914950488    0.18349818312031987    0.16948596237904365    0.15516624990555378    
  0.14170603006060412    0.13011143543129355    0.12117127939123579    0.11547147778288076    0.1134564909490049    
  0.11551035815750417    0.1220206965092571    0.13337636433037117    0.14987150284385523    0.17154463496017314    
  0.19801115342158673    0.22831573685178982    0.26081181216500465    0.29316119146148634    0.3226409379960654    
  0.3468019793134129    0.3641498499392782    0.37433188938339773    0.3776530523006594    0.3455916636273125    
  0.3415953829309299    0.3297789054893387    0.31079336350266995    0.2859906772637103    0.2574072060581758    
  0.22740950956630354    0.19821322126828797    0.17154463496017316    0.14853797878765368    0.12979636415491866    
  0.11551740415736812    0.10562806886739383    0.09990140947552177    0.09803651426957194    0.09969649544841798    
  0.10451329597367384    0.11206894090344294    0.12185689542874054    0.13323271314354002    0.1453823246151399    
  0.1573431320652709    0.1680850368052345    0.1766215887817215    0.18212241598177717    0.1840232773332634    
  0.18212241598177722    0.1766215887817215    0.16808503680523454    0.15734313206527087    0.1453823246151399    
  0.13323271314354002    0.12185689542874056    0.11206894090344294    0.10451329597367388    0.09969649544841792    
  0.098036514269572    0.09990140947552176    0.10562806886739384    0.11551740415736816    0.12979636415491866    
  0.14853797878765362    0.17154463496017316    0.19821322126828797    0.22740950956630354    0.2574072060581758    
  0.28599067726371025    0.31079336350266995    0.32977890548933864    0.3415953829309299    0.3455916636273125    
  0.3088177123659052    0.3048617511650153    0.2933146516886474    0.2751597277126072    0.2520178697736642    
  0.22594444711123085    0.19907026830736052    0.1732522711539786    0.14987150284385517    0.12979636415491863    
  0.11345758102541867    0.10097395155446084    0.09227589371072824    0.08718862255874438    0.08546895189966217    
  0.08681812056759608    0.09089089470126527    0.09729865187573983    0.1055928583546329    0.11522880882732847    
  0.12553280816914192    0.13570443170045296    0.14486915378418413    0.1521709168648701    0.1568821514583338    
  0.15851075330580763    0.15688215145833384    0.1521709168648701    0.14486915378418416    0.13570443170045302    
  0.12553280816914192    0.11522880882732847    0.1055928583546329    0.09729865187573984    0.0908908947012653    
  0.08681812056759602    0.0854689518996622    0.08718862255874436    0.09227589371072824    0.10097395155446089    
  0.11345758102541867    0.12979636415491863    0.14987150284385517    0.17325227115397857    0.19907026830736052    
  0.2259444471112308    0.2520178697736642    0.27515972771260716    0.29331465168864734    0.3048617511650153    
  0.3088177123659052    0.2766624950486683    0.27297888846193136    0.2622905035807492    0.24564844495782479    
  0.22465589300172673    0.20120978214959703    0.1771859326777977    0.1541810048269828    0.13337636433037114    
  0.11551740415736814    0.10097395155446086    0.08984473589980727    0.08206348755131337    0.0774710726656642    
  0.07584757032862655    0.07692344027302102    0.08038638635487394    0.0858834099537781    0.09301051992558765    
  0.10128987154098801    0.11014534765749392    0.11889612673917684    0.126789318954546    0.13307925435245657    
  0.13713434932447827    0.1385348735755262    0.1371343493244783    0.13307925435245657    0.12678931895454604    
  0.11889612673917684    0.11014534765749388    0.10128987154098806    0.09301051992558766    0.08588340995377812    
  0.08038638635487398    0.07692344027302099    0.07584757032862656    0.0774710726656642    0.08206348755131337    
  0.08984473589980732    0.10097395155446086    0.11551740415736812    0.13337636433037114    0.1541810048269828    
  0.17718593267779773    0.201209782149597    0.22465589300172673    0.24564844495782479    0.2622905035807491    
  0.27297888846193136    0.2766624950486683    0.25315986423258574    0.24974549845399388    0.23987400938204634    
  0.2245875839325798    0.20539897786185135    0.18402149095614317    0.16211151198528045    0.14108523413295304    
  0.12202069650925718    0.10562806886739384    0.09227589371072825    0.08206348755131335    0.07491445334832286    
  0.07065735129483514    0.06907371965207257    0.0699154324519448    0.07290342091702044    0.07771853337806459    
  0.08399082749047619    0.09128760345676608    0.09909773567091182    0.10682094353302386    0.11378844704408324    
  0.11933524812019394    0.12290462337006954    0.12413554585841527    0.12290462337006954    0.11933524812019389    
  0.11378844704408328    0.10682094353302389    0.09909773567091182    0.09128760345676609    0.08399082749047623    
  0.0777185333780646    0.07290342091702048    0.06991543245194477    0.06907371965207261    0.07065735129483519    
  0.07491445334832286    0.08206348755131339    0.09227589371072825    0.10562806886739383    0.12202069650925718    
  0.141085234132953    0.16211151198528045    0.18402149095614317    0.20539897786185132    0.22458758393257974    
  0.23987400938204625    0.24974549845399388    0.25315986423258574    0.23947161468408518    0.23622866678224294    
  0.22687665422976355    0.21244600818001885    0.1943758803524561    0.17424348611538282    0.15355811630139285    
  0.13363396087192395    0.1155103581575042    0.09990140947552177    0.08718862255874434    0.07747107266566416    
  0.07065735129483512    0.06655958837254253    0.06495542170017711    0.06560850736328046    0.06826010654308497    
  0.07261240514564417    0.07831786740363503    0.08497325146448516    0.09210776668899101    0.09916957179063354    
  0.10554100517972702    0.110608223151703    0.11386358850594906    0.11498478975851929    0.11386358850594906    
  0.110608223151703    0.10554100517972703    0.09916957179063353    0.09210776668899101    0.08497325146448516    
  0.07831786740363503    0.0726124051456442    0.068260106543085    0.0656085073632804    0.06495542170017715    
  0.06655958837254256    0.07065735129483512    0.07747107266566422    0.08718862255874434    0.09990140947552177    
  0.1155103581575042    0.13363396087192395    0.15355811630139288    0.1742434861153828    0.1943758803524561    
  0.21244600818001877    0.2268766542297635    0.23622866678224294    0.23947161468408518    0.2354406596035084    
  0.23223907925856244    0.22302213212472669    0.20883297511555307    0.1910919413895533    0.17132314593807538    
  0.15097946398758597    0.13134484116476175    0.11345649094900483    0.0980365142695719    0.08546895189966212    
  0.07584757032862648    0.06907371965207251    0.06495542170017715    0.0632697271019342    0.06378118990464954    
  0.06623274635668706    0.0703306671634842    0.07573604467690703    0.08205962791727386    0.08884942492009802    
  0.09557612369895045    0.101647123515258    0.10647446731700898    0.10957427666691329    0.11064149853092403    
  0.10957427666691329    0.10647446731700899    0.10164712351525802    0.09557612369895045    0.08884942492009804    
  0.08205962791727389    0.07573604467690703    0.07033066716348421    0.0662327463566871    0.06378118990464947    
  0.06326972710193422    0.06495542170017714    0.06907371965207251    0.07584757032862656    0.08546895189966212    
  0.09803651426957193    0.11345649094900484    0.13134484116476178    0.15097946398758597    0.17132314593807532    
  0.19109194138955327    0.20883297511555302    0.22302213212472663    0.23223907925856244    0.2354406596035084    
  0.24030665035908358    0.23702245821376522    0.2275742487909459    0.21304300944181528    0.19488712487563012    
  0.17466154036909826    0.1538491213280523    0.13376539098470178    0.11547147778288076    0.09969649544841798    
  0.08681812056759601    0.07692344027302102    0.06991543245194476    0.06560850736328039    0.06378118990464954    
  0.06419014195962609    0.06656556455800702    0.07060327635753431    0.07595859954556598    0.08223893829136228    
  0.08898974284373436    0.09568122221243763    0.10172332748658444    0.10653123395690196    0.1096212717359346    
  0.11068578435821086    0.1096212717359346    0.10653123395690196    0.10172332748658444    0.09568122221243762    
  0.08898974284373436    0.08223893829136235    0.07595859954556601    0.07060327635753429    0.06656556455800708    
  0.06419014195962607    0.06378118990464958    0.06560850736328037    0.06991543245194476    0.07692344027302109    
  0.08681812056759601    0.09969649544841797    0.11547147778288076    0.13376539098470175    0.1538491213280523    
  0.17466154036909826    0.19488712487563015    0.21304300944181517    0.22757424879094587    0.23702245821376522    
  0.24030665035908358    0.25300249258438756    0.2495452692582447    0.23959169848894107    0.2242638019501001    
  0.2050874295398324    0.18370714731884968    0.1617053079232691    0.14048647198818276    0.12117127939123572    
  0.10451329597367384    0.09089089470126525    0.08038638635487395    0.07290342091702043    0.06826010654308498    
  0.06623274635668713    0.06656556455800706    0.0689699361139127    0.07312228480070648    0.0786592114485182    
  0.0851675384147136    0.09216945076516342    0.09911194888022296    0.10538405611462257    0.11038072253505628    
  0.11359686307164636    0.11470600509718348    0.1135968630716464    0.11038072253505621    0.10538405611462259    
  0.09911194888022296    0.09216945076516343    0.08516753841471363    0.07865921144851822    0.0731222848007065    
  0.06896993611391271    0.06656556455800702    0.06623274635668716    0.06826010654308497    0.07290342091702043    
  0.08038638635487402    0.09089089470126525    0.10451329597367384    0.12117127939123574    0.14048647198818276    
  0.1617053079232691    0.18370714731884968    0.2050874295398324    0.22426380195010007    0.23959169848894102    
  0.2495452692582447    0.25300249258438756    0.2720895727818064    0.2684217050583099    0.2578318212548954    
  0.24144738735589094    0.22084536802307714    0.19778233067975712    0.17399138969237843    0.15102424403538617    
  0.13011143543129355    0.11206894090344295    0.09729865187573977    0.08588340995377809    0.07771853337806453    
  0.07261240514564415    0.07033066716348427    0.07060327635753433    0.07312228480070651    0.07754017924373241    
  0.0834649705947008    0.09044863105114996    0.09797138342448317    0.10543358362531927    0.11217731100186719    
  0.1175532647123075    0.12101689020467764    0.12221227022803749    0.12101689020467765    0.11755326471230747    
  0.11217731100186719    0.10543358362531928    0.09797138342448317    0.09044863105115002    0.08346497059470084    
  0.0775401792437324    0.07312228480070651    0.07060327635753431    0.07033066716348428    0.07261240514564414    
  0.07771853337806453    0.08588340995377815    0.09729865187573976    0.11206894090344294    0.13011143543129355    
  0.1510242440353862    0.17399138969237843    0.19778233067975712    0.22084536802307714    0.24144738735589089    
  0.25783182125489534    0.26842170505831    0.2720895727818064    0.2953986637713588    0.29155757579116826    
  0.28040411377309676    0.2629817387038622    0.24084069850400178    0.21582657274905795    0.1898545224827519    
  0.16468112855493156    0.14170603006060414    0.1218568954287406    0.1055928583546329    0.09301051992558765    
  0.08399082749047615    0.07831786740363503    0.07573604467690705    0.07595859954556597    0.07865921144851822    
  0.08346497059470084    0.0899495299761807    0.09761968625134082    0.10589719175046387    0.11411237405239603    
  0.12153424180173528    0.1274477521445764    0.13125660381798165    0.13257104975493295    0.13125660381798165    
  0.1274477521445764    0.12153424180173528    0.11411237405239603    0.10589719175046387    0.09761968625134088    
  0.08994952997618076    0.08346497059470086    0.07865921144851824    0.07595859954556597    0.07573604467690706    
  0.07831786740363501    0.08399082749047615    0.09301051992558772    0.1055928583546329    0.12185689542874058    
  0.14170603006060414    0.16468112855493153    0.18985452248275192    0.21582657274905795    0.24084069850400178    
  0.26298173870386216    0.2804041137730967    0.29155757579116826    0.2953986637713588    0.31977939984090414    
  0.315903318813464    0.3045363785638572    0.28648329394157346    0.2631104820162345    0.23626637118452049    
  0.20804818384634693    0.18047016805626248    0.15516624990555372    0.13323271314354002    0.11522880882732843    
  0.101289871540988    0.09128760345676602    0.08497325146448517    0.08205962791727392    0.08223893829136235    
  0.08516753841471356    0.09044863105114999    0.09761968625134083    0.10613516514946462    0.11534454422230725    
  0.1244884473148845    0.13274195729870822    0.13930860978741    0.14353288177966192    0.14498972536287844    
  0.1435328817796619    0.13930860978741    0.1327419572987082    0.12448844731488445    0.11534454422230725    
  0.1061351651494646    0.09761968625134083    0.09044863105114993    0.08516753841471361    0.08223893829136228    
  0.08205962791727393    0.08497325146448514    0.09128760345676604    0.10128987154098806    0.11522880882732843    
  0.13323271314354002    0.15516624990555372    0.18047016805626254    0.20804818384634693    0.23626637118452049    
  0.2631104820162345    0.28648329394157346    0.3045363785638571    0.315903318813464    0.31977939984090414    
  0.34151344065678113    0.3378408789477145    0.3268947368383653    0.3090361574293058    0.28521571877456425    
  0.257123914518984    0.22699265249962583    0.19713333503045158    0.16948596237904365    0.14538232461513984    
  0.1255328081691419    0.11014534765749384    0.0990977356709118    0.09210776668899102    0.08884942492009805    
  0.08898974284373441    0.09216945076516352    0.09797138342448318    0.10589719175046387    0.11534454422230721    
  0.12558274876954875    0.13575341971492594    0.14492825335898957    0.15222038443050517    0.15690723793279052    
  0.15852288526612193    0.15690723793279054    0.15222038443050517    0.14492825335898957    0.135753419714926    
  0.12558274876954875    0.11534454422230721    0.10589719175046387    0.09797138342448318    0.0921694507651635    
  0.08898974284373436    0.08884942492009809    0.09210776668899101    0.0990977356709118    0.11014534765749388    
  0.1255328081691419    0.14538232461513984    0.16948596237904365    0.19713333503045158    0.22699265249962583    
  0.2571239145189839    0.2852157187745642    0.3090361574293058    0.32689473683836523    0.3378408789477145    
  0.34151344065678113    0.3575203247750445    0.35432751047165    0.34456019697320645    0.327944615560898    
  0.304768844972943    0.27635809403365325    0.2449807726543756    0.21325648526869018    0.18349818312031985    
  0.15734313206527087    0.13570443170045296    0.1188961267391768    0.10682094353302382    0.09916957179063356    
  0.0955761236989505    0.09568122221243766    0.09911194888022296    0.10543358362531922    0.11411237405239603    
  0.12448844731488445    0.1357534197149259    0.1469566444224555    0.1570719367677569    0.16511909830087354    
  0.17029614561766762    0.17208190453564165    0.17029614561766762    0.1651190983008736    0.1570719367677569    
  0.1469566444224555    0.1357534197149259    0.12448844731488445    0.11411237405239608    0.10543358362531927    
  0.09911194888022297    0.09568122221243762    0.09557612369895052    0.09916957179063353    0.10682094353302382    
  0.11889612673917684    0.13570443170045296    0.15734313206527084    0.18349818312031985    0.21325648526869018    
  0.2449807726543756    0.27635809403365325    0.30476884497294293    0.32794461556089793    0.34456019697320633    
  0.35432751047164995    0.3575203247750445    0.36666918907746926    0.36415602958604243    0.3561414150176521    
  0.34162786603257433    0.32008613139659076    0.2923013692018011    0.2604571225857089    0.22744917257063663    
  0.1959952191495049    0.1680850368052346    0.1448691537841842    0.12678931895454604    0.11378844704408324    
  0.10554100517972709    0.10164712351525802    0.10172332748658451    0.10538405611462265    0.11217731100186722    
  0.12153424180173525    0.13274195729870825    0.1449282533589895    0.15707193676775696    0.1680676158019141    
  0.17684533044303918    0.18251058014406848    0.18446858584905693    0.18251058014406854    0.17684533044303913    
  0.1680676158019141    0.15707193676775694    0.1449282533589895    0.13274195729870825    0.12153424180173528    
  0.11217731100186722    0.10538405611462266    0.1017233274865845    0.10164712351525802    0.1055410051797271    
  0.11378844704408324    0.12678931895454607    0.1448691537841842    0.16808503680523457    0.19599521914950485    
  0.22744917257063663    0.2604571225857089    0.2923013692018011    0.32008613139659076    0.3416278660325743    
  0.3561414150176521    0.36415602958604243    0.36666918907746926    0.3701587497570587    0.3683484116767673    
  0.3621910883587642    0.35003297221707136    0.3305538749170648    0.30395155970304977    0.2722376830138395    
  0.23851231939545497    0.20586318193214367    0.17662158878172146    0.15217091686487005    0.13307925435245643    
  0.11933524812019389    0.11060822315170302    0.10647446731700895    0.10653123395690202    0.1103807225350562    
  0.11755326471230752    0.12744775214457632    0.13930860978740994    0.15222038443050517    0.16511909830087346    
  0.1768453304430391    0.18625196344319309    0.19235024691822025    0.19446354478980232    0.19235024691822028    
  0.18625196344319309    0.1768453304430391    0.16511909830087348    0.15222038443050517    0.13930860978740997    
  0.12744775214457638    0.11755326471230752    0.11038072253505626    0.10653123395690196    0.10647446731700895    
  0.11060822315170302    0.11933524812019389    0.13307925435245652    0.15217091686487003    0.17662158878172146    
  0.20586318193214367    0.23851231939545503    0.27223768301383955    0.3039515597030497    0.3305538749170648    
  0.3500329722170713    0.3621910883587642    0.3683484116767673    0.3701587497570587    0.37059662356788237    
  0.3693091762713148    0.364553607344954    0.35422779089059403    0.33644356722505164    0.31094289897540367    
  0.2795677832282444    0.24553511174064138    0.21219237811267538    0.1821224159817771    0.15688215145833379    
  0.13713434932447818    0.12290462337006945    0.11386358850594909    0.10957427666691325    0.1096212717359346    
  0.11359686307164633    0.12101689020467765    0.13125660381798165    0.14353288177966192    0.15690723793279046    
  0.17029614561766757    0.18251058014406848    0.19235024691822034    0.19875357112573258    0.20097757467216443    
  0.19875357112573258    0.19235024691822034    0.18251058014406846    0.17029614561766754    0.15690723793279046    
  0.1435328817796619    0.13125660381798168    0.12101689020467764    0.1135968630716463    0.10962127173593453    