#     DFTpy    
  CRYSTAL 
    
  PRIMVEC    
  5.7388275862069005    0.0    0.0    
  0.0    5.7388275862069005    0.0    
  0.0    0.0    3.161724137931031    
  PRIMCOORD    
  4    1    
  Si    0.0    0.0    0.0    
  Si    2.8694137931034502    2.8694137931034502    1.5808620689655204    
  Si    0.0    2.8694137931034502    0.7904310344827602    
  Si    2.8694137931034502    0.0    2.3712931034482803    
  BEGIN_BLOCK_DATAGRID_3D    
  3d_datagrid_density    
  BEGIN_DATAGRID_3D#0    
  55    55    31    
  0.0    0.0    0.0    
  5.738827607612837    0.0    0.0    
  0.0    5.738827607612837    0.0    
  0.0    0.0    3.1617241497243227    
  0.05723256551954274    0.06581668339183443    0.09423669766475043    0.14719662808174297    0.22216205208561748    
  0.3014792873928946    0.3586564508946105    0.376681959787101    0.3583970965123188    0.3194462243847228    
  0.27555187514161295    0.23632871430756494    0.2058099146377252    0.18486628236168298    0.17301044612353522    
  0.1694278508043849    0.1734566689001973    0.1845811195637251    0.20211959251582304    0.22491296506469893    
  0.25118467431254665    0.2785560947798775    0.30424801956896075    0.3256288137973708    0.3410503013019079    
  0.350433382243573    0.35501825726661895    0.35632464744964537    0.35501825726661895    0.35043338224357307    
  0.3410503013019079    0.3256288137973708    0.3042480195689608    0.2785560947798775    0.25118467431254665    
  0.22491296506469893    0.20211959251582304    0.18458111956372508    0.1734566689001973    0.1694278508043849    
  0.17301044612353522    0.18486628236168298    0.20580991463772516    0.23632871430756497    0.27555187514161295    
  0.3194462243847228    0.3583970965123188    0.37668195978710095    0.3586564508946105    0.30147928739289453    
  0.22216205208561746    0.14719662808174291    0.09423669766475046    0.0658166833918344    0.05723256551954274    
  0.0658166833918344    0.07487219959248761    0.10437347456861294    0.15799693517212637    0.23189215608229746    
  0.3079707210622922    0.36087797615446676    0.37535816335323036    0.35516332844925536    0.31571027510315774    
  0.27205266290160046    0.2332889307336591    0.20320488568474251    0.18258615588330054    0.17092556155650804    
  0.16741077861707682    0.171388414552197    0.18235332585081146    0.1996407635193821    0.22212264577306004    
  0.24807512043952482    0.27519602120871384    0.30079258068971776    0.322291414472176    0.33802740576483187    
  0.34781380836846404    0.35273266642099793    0.3541679265789922    0.35273266642099793    0.34781380836846415    
  0.3380274057648319    0.32229141447217596    0.3007925806897178    0.27519602120871384    0.24807512043952482    
  0.22212264577306    0.19964076351938212    0.18235332585081143    0.17138841455219697    0.1674107786170768    
  0.170925561556508    0.18258615588330054    0.20320488568474251    0.23328893073365906    0.27205266290160046    
  0.31571027510315774    0.35516332844925536    0.37535816335323036    0.36087797615446676    0.3079707210622922    
  0.23189215608229746    0.15799693517212637    0.10437347456861297    0.07487219959248766    0.0658166833918344    
  0.0942366976647505    0.10437347456861291    0.1360845971736946    0.19011711468400525    0.259334821408899    
  0.325138176729925    0.36572066614568716    0.3705005010038207    0.3453311421554567    0.30474492203806286    
  0.26189883924313745    0.22449546064713136    0.19566446678442134    0.17596908382589313    0.16485523368970884    
  0.16152300722581073    0.16534556945476714    0.17584727207977258    0.19240895875560277    0.21398743745429546    
  0.23900250419048438    0.265358938464151    0.2905989518271402    0.31231319925959133    0.3288036427727564    
  0.33960630279977766    0.3453833344063435    0.34715237211924943    0.3453833344063435    0.3396063027997777    
  0.3288036427727564    0.3123131992595913    0.2905989518271402    0.265358938464151    0.23900250419048438    
  0.21398743745429546    0.19240895875560277    0.17584727207977255    0.16534556945476717    0.16152300722581073    
  0.16485523368970884    0.17596908382589313    0.19566446678442131    0.22449546064713136    0.2618988392431374    
  0.3047449220380629    0.3453311421554567    0.3705005010038207    0.36572066614568716    0.32513817672992495    
  0.259334821408899    0.19011711468400525    0.13608459717369462    0.1043734745686129    0.0942366976647505    
  0.14719662808174294    0.1579969351721264    0.19011711468400525    0.2403664007283515    0.29825918342280117    
  0.3462827141958172    0.36842355232448487    0.36000975931115226    0.3287410678802084    0.287287791603131    
  0.2460457252325614    0.21083960566011986    0.18394402692136713    0.16564092000659913    0.15533124919431998    
  0.1522500730482181    0.15581655882980464    0.1655961745005684    0.18103116054290838    0.20119684010903996    
  0.2247127565905063    0.24976686235750345    0.27422426545055323    0.29591541473805616    0.31313283728995145    
  0.32507765887868517    0.3318708491611957    0.3340430225123417    0.33187084916119575    0.3250776588786852    
  0.31313283728995145    0.2959154147380561    0.27422426545055323    0.24976686235750345    0.22471275659050624    
  0.20119684010903996    0.18103116054290838    0.1655961745005684    0.15581655882980464    0.15225007304821808    
  0.15533124919431998    0.16564092000659913    0.18394402692136713    0.21083960566011986    0.2460457252325614    
  0.287287791603131    0.3287410678802084    0.3600097593111522    0.3684235523244849    0.34628271419581713    
  0.29825918342280117    0.24036640072835144    0.19011711468400525    0.15799693517212632    0.14719662808174294    
  0.22216205208561754    0.23189215608229752    0.259334821408899    0.29825918342280117    0.337063798115519    
  0.36184734829490767    0.36336742238478753    0.3419636314391278    0.30572812308137803    0.2645760647240451    
  0.22587884456587531    0.19357792634567772    0.1691177248391296    0.1525192199771567    0.14316826549735653    
  0.14036642892011778    0.14359526853415608    0.15246221762121934    0.16647120603907212    0.18482724151900878    
  0.206368782202201    0.2295857819002392    0.25268664831819876    0.2737765026429823    0.2911937827605107    
  0.3038657493418361    0.3114152165648487    0.31390295624664805    0.3114152165648487    0.30386574934183613    
  0.2911937827605107    0.2737765026429823    0.2526866483181988    0.2295857819002392    0.206368782202201    
  0.1848272415190088    0.16647120603907212    0.1524622176212193    0.14359526853415605    0.14036642892011778    
  0.1431682654973565    0.1525192199771567    0.1691177248391296    0.19357792634567772    0.22587884456587531    
  0.2645760647240451    0.30572812308137803    0.3419636314391278    0.36336742238478753    0.36184734829490767    
  0.337063798115519    0.29825918342280117    0.259334821408899    0.23189215608229746    0.22216205208561754    
  0.3014792873928946    0.3079707210622921    0.32513817672992495    0.3462827141958172    0.36184734829490767    
  0.3631928187114737    0.34689001174096645    0.31602541333588263    0.27752480365943855    0.23828206751222303    
  0.20301257027405584    0.17412580694992866    0.15240403668067018    0.1376759926395085    0.12935639847163782    
  0.12684328857376337    0.129688396937718    0.13753199340224528    0.14992845040705208    0.16620674690240458    
  0.18541734703580484    0.20633294941145985    0.22747876178261464    0.24723269001750026    0.26404058821106946    
  0.2766872606741908    0.284456923395339    0.2870659878579136    0.284456923395339    0.2766872606741908    
  0.26404058821106946    0.24723269001750026    0.22747876178261464    0.20633294941145985    0.18541734703580484    
  0.16620674690240458    0.14992845040705208    0.13753199340224526    0.129688396937718    0.12684328857376334    
  0.12935639847163782    0.13767599263950853    0.15240403668067012    0.17412580694992866    0.20301257027405584    
  0.23828206751222303    0.27752480365943855    0.31602541333588263    0.34689001174096645    0.36319281871147363    
  0.36184734829490767    0.3462827141958172    0.32513817672992495    0.3079707210622922    0.3014792873928946    
  0.35865645089461046    0.36087797615446665    0.36572066614568716    0.36842355232448487    0.36336742238478753    
  0.34689001174096645    0.31918903467330745    0.28394857683556013    0.24621291871773185    0.2103327076747506    
  0.17910794290809565    0.15389393965149425    0.1350178345132052    0.12219910259361395    0.11492291719041164    
  0.11270096630970411    0.11515254787341979    0.12193846787523559    0.13264966465407924    0.1467242048506968    
  0.16340282056644925    0.18170549794813717    0.2004300986345853    0.21820516353127006    0.23363037389120156    
  0.24548461782617262    0.25290335822047527    0.25542208100837743    0.25290335822047527    0.24548461782617267    
  0.23363037389120156    0.21820516353127006    0.20043009863458533    0.18170549794813717    0.16340282056644925    
  0.1467242048506968    0.13264966465407924    0.12193846787523557    0.11515254787341979    0.11270096630970411    
  0.11492291719041164    0.12219910259361395    0.1350178345132052    0.15389393965149425    0.17910794290809565    
  0.21033270767475062    0.24621291871773185    0.28394857683556013    0.31918903467330745    0.3468900117409665    
  0.36336742238478753    0.36842355232448487    0.36572066614568716    0.36087797615446665    0.35865645089461046    
  0.37668195978710095    0.37535816335323036    0.3705005010038207    0.36000975931115226    0.3419636314391279    
  0.31602541333588263    0.28394857683556024    0.24890199272874527    0.21425004630395628    0.18264012768054214    
  0.15570246503644017    0.13415274474819355    0.11804470451292273    0.10706448684210766    0.1007933295070925    
  0.09885427707128887    0.10092446878145794    0.10667932804070028    0.11573931438185123    0.1276337548166331    
  0.14176245170559698    0.15735151312849038    0.17342775260234886    0.18884416944573712    0.20237977115012046    
  0.21290665574082954    0.21956136013809674    0.22183393409681965    0.21956136013809674    0.21290665574082965    
  0.20237977115012043    0.18884416944573712    0.17342775260234888    0.15735151312849038    0.14176245170559695    
  0.12763375481663308    0.11573931438185123    0.10667932804070027    0.10092446878145792    0.09885427707128888    
  0.1007933295070925    0.10706448684210766    0.1180447045129227    0.13415274474819355    0.15570246503644017    
  0.18264012768054216    0.21425004630395628    0.24890199272874527    0.2839485768355602    0.31602541333588263    
  0.3419636314391278    0.36000975931115226    0.3705005010038207    0.37535816335323036    0.37668195978710095    
  0.3583970965123188    0.35516332844925536    0.3453311421554567    0.3287410678802084    0.3057281230813779    
  0.2775248036594385    0.2462129187177318    0.21425004630395633    0.1838961240287101    0.15683474178394527    
  0.13405407664141208    0.11591587759243246    0.10234092963934774    0.09303956597485245    0.08769106160548737    
  0.08600860862905746    0.08771568881888993    0.09250798676504275    0.10003965561059434    0.1099149189587857    
  0.12165537490524019    0.134647992194839    0.14810769980545047    0.16108722810161477    0.17255307977146422    
  0.18152371830587602    0.18722258648641454    0.18917424984886475    0.18722258648641463    0.18152371830587605    
  0.17255307977146422    0.16108722810161474    0.1481076998054505    0.13464799219483897    0.12165537490524019    
  0.1099149189587857    0.10003965561059434    0.09250798676504271    0.08771568881888993    0.08600860862905745    
  0.08769106160548736    0.09303956597485244    0.10234092963934771    0.11591587759243246    0.13405407664141208    
  0.15683474178394527    0.18389612402871006    0.21425004630395628    0.2462129187177318    0.2775248036594385    
  0.3057281230813779    0.3287410678802084    0.3453311421554567    0.35516332844925536    0.3583970965123188    
  0.3194462243847228    0.31571027510315774    0.30474492203806286    0.28728779160313095    0.2645760647240451    
  0.23828206751222303    0.21033270767475062    0.18264012768054208    0.15683474178394533    0.13408399824742026    
  0.11503326790526702    0.09987067942238985    0.08848492837743223    0.08064230156795889    0.07610037450895443    
  0.07463102289893517    0.0759945077852032    0.07991996392281464    0.08610655675760713    0.09422110063339288    
  0.10387039985699059    0.11455614900249735    0.12564045104319993    0.13634908642299262    0.1458300889352712    
  0.15326566611606243    0.1579995360797896    0.15962285905872564    0.15799953607978962    0.15326566611606246    
  0.1458300889352712    0.1363490864229926    0.12564045104319996    0.11455614900249733    0.10387039985699056    
  0.09422110063339287    0.08610655675760713    0.0799199639228146    0.07599450778520318    0.07463102289893517    
  0.07610037450895445    0.08064230156795886    0.08848492837743221    0.09987067942238984    0.11503326790526705    
  0.13408399824742026    0.15683474178394533    0.18264012768054208    0.2103327076747506    0.23828206751222297    
  0.2645760647240451    0.28728779160313095    0.30474492203806286    0.3157102751031577    0.3194462243847228    
  0.275551875141613    0.27205266290160046    0.2618988392431374    0.24604572523256144    0.2258788445658754    
  0.2030125702740559    0.17910794290809562    0.15570246503644014    0.13405407664141208    0.11503326790526702    
  0.09910158217094073    0.08638344820710214    0.07679388856363946    0.07015955015545616    0.0662872306905604    
  0.0649791863922629    0.06602571401778927    0.06919964240119214    0.07425353431729097    0.08090827537882547    
  0.08882831231127916    0.09759132853474299    0.10666728400851626    0.11542363362605525    0.12317098654318871    
  0.12924845019163392    0.13312108111533633    0.13445009686134482    0.13312108111533635    0.12924845019163397    
  0.12317098654318871    0.1154236336260552    0.10666728400851627    0.09759132853474299    0.08882831231127915    
  0.08090827537882547    0.07425353431729097    0.06919964240119211    0.06602571401778928    0.06497918639226288    
  0.06628723069056042    0.07015955015545615    0.07679388856363946    0.08638344820710213    0.09910158217094074    
  0.11503326790526702    0.13405407664141208    0.1557024650364401    0.1791079429080956    0.2030125702740558    
  0.2258788445658754    0.24604572523256144    0.2618988392431374    0.2720526629016004    0.275551875141613    
  0.23632871430756497    0.233288930733659    0.22449546064713136    0.21083960566011986    0.19357792634567772    
  0.17412580694992866    0.15389393965149428    0.13415274474819355    0.11591587759243248    0.09987067942238988    
  0.08638344820710218    0.07556924445116309    0.06738414576467242    0.061700304302271435    0.05835075507657941    
  0.0571531776146853    0.057923014090827146    0.06047569846617003    0.06461424312588814    0.07010579923253345    
  0.07665713552861117    0.08389727213497616    0.0913722582260193    0.09855835000874541    0.10490003699277767    
  0.10987060490430123    0.11303970116121899    0.11412816187015519    0.113039701161219    0.10987060490430127    
  0.10490003699277765    0.09855835000874541    0.09137225822601933    0.08389727213497615    0.07665713552861116    
  0.07010579923253343    0.06461424312588814    0.06047569846617    0.057923014090827146    0.05715317761468529    
  0.058350755076579414    0.06170030430227142    0.06738414576467243    0.07556924445116306    0.0863834482071022    
  0.09987067942238988    0.11591587759243248    0.13415274474819353    0.15389393965149428    0.1741258069499286    
  0.19357792634567772    0.21083960566011986    0.2244954606471314    0.233288930733659    0.23632871430756497    
  0.20580991463772516    0.20320488568474251    0.19566446678442134    0.1839440269213671    0.1691177248391296    
  0.15240403668067018    0.13501783451320523    0.11804470451292268    0.10234092963934775    0.08848492837743223    
  0.07679388856363945    0.0673841457646724    0.06023761724090004    0.055252111071770776    0.052277158012059115    
  0.051144102727000866    0.05168896452325449    0.053757706788672026    0.05718948929539716    0.06178747883488934    
  0.06729313602864256    0.07337475338410378    0.07963348795953329    0.08562586943245762    0.09089839210090606    
  0.09502777224442634    0.09766322567294412    0.09856950013422995    0.09766322567294412    0.09502777224442635    
  0.09089839210090603    0.08562586943245762    0.07963348795953333    0.07337475338410374    0.06729313602864256    
  0.061787478834889324    0.05718948929539716    0.05375770678867199    0.05168896452325449    0.051144102727000866    
  0.05227715801205913    0.055252111071770756    0.06023761724090004    0.06738414576467239    0.07679388856363946    
  0.08848492837743223    0.10234092963934774    0.11804470451292268    0.1350178345132052    0.15240403668067018    
  0.16911772483912954    0.18394402692136713    0.19566446678442134    0.20320488568474246    0.20580991463772516    
  0.184866282361683    0.18258615588330054    0.1759690838258931    0.16564092000659916    0.15251921997715673    
  0.13767599263950853    0.12219910259361398    0.10706448684210766    0.09303956597485248    0.08064230156795887    
  0.07015955015545611    0.061700304302271414    0.055252111071770776    0.050724576662521656    0.047982013126067626    
  0.04687138483230609    0.047243645273651595    0.04895984166331676    0.05187730115481983    0.0558222907300523    
  0.060563650344492015    0.06580177193964214    0.07117996150608126    0.07631338812753283    0.08082135760649521    
  0.08435271584694848    0.08661052012929309    0.08738818575283794    0.08661052012929309    0.08435271584694852    
  0.0808213576064952    0.0763133881275328    0.07117996150608127    0.06580177193964211    0.060563650344492015    
  0.05582229073005228    0.05187730115481983    0.04895984166331674    0.04724364527365159    0.04687138483230607    
  0.04798201312606763    0.05072457666252164    0.055252111071770776    0.061700304302271414    0.07015955015545612    
  0.08064230156795887    0.09303956597485243    0.10706448684210763    0.12219910259361394    0.1376759926395085    
  0.1525192199771567    0.16564092000659916    0.1759690838258931    0.1825861558833005    0.184866282361683    
  0.17301044612353522    0.170925561556508    0.16485523368970884    0.15533124919432    0.14316826549735653    
  0.12935639847163785    0.11492291719041164    0.10079332950709252    0.08769106160548742    0.07610037450895445    
  0.06628723069056039    0.058350755076579414    0.052277158012059156    0.04798201312606763    0.045340701659666735    
  0.04421160148087726    0.044453030414517335    0.04592963282901553    0.04850337550361745    0.052010769887947554    
  0.05623762355363904    0.06090785031348231    0.06569651469540962    0.07026036317733984    0.07426645485427537    
  0.07740814539103145    0.07942073799157896    0.08011496779840453    0.07942073799157894    0.07740814539103152    
  0.07426645485427534    0.07026036317733984    0.06569651469540963    0.06090785031348231    0.05623762355363904    
  0.052010769887947554    0.04850337550361742    0.045929632829015514    0.04445303041451733    0.04421160148087726    
  0.04534070165966674    0.047982013126067626    0.05227715801205914    0.05835075507657941    0.06628723069056039    
  0.07610037450895445    0.0876910616054874    0.1007933295070925    0.11492291719041162    0.12935639847163782    
  0.14316826549735653    0.15533124919432004    0.16485523368970884    0.17092556155650795    0.17301044612353522    
  0.1694278508043849    0.16741077861707684    0.1615230072258107    0.15225007304821808    0.14036642892011775    
  0.12684328857376337    0.11270096630970416    0.09885427707128885    0.08600860862905749    0.07463102289893517    
  0.06497918639226286    0.057153177614685254    0.05114410272700087    0.04687138483230607    0.04421160148087722    
  0.043022324088441595    0.04315984865802258    0.044486114668004575    0.04686084755591734    0.050120916684150106    
  0.05405771708433915    0.058408137653059106    0.06286779822463123    0.0671186302609883    0.07085257354136759    
  0.07378380374389003    0.07566327117422876    0.07631190714144571    0.07566327117422882    0.0737838037438901    
  0.07085257354136758    0.06711863026098827    0.06286779822463127    0.05840813765305909    0.054057717084339145    
  0.05012091668415009    0.04686084755591734    0.044486114668004555    0.043159848658022575    0.0430223240884416    
  0.04421160148087724    0.046871384832306066    0.05114410272700087    0.057153177614685254    0.06497918639226287    
  0.07463102289893517    0.08600860862905746    0.09885427707128884    0.11270096630970414    0.1268432885737633    
  0.14036642892011775    0.1522500730482181    0.16152300722581073    0.1674107786170768    0.1694278508043849    
  0.17345666890019737    0.171388414552197    0.16534556945476717    0.1558165588298047    0.14359526853415613    
  0.12968839693771803    0.11515254787341986    0.10092446878145796    0.08771568881888998    0.07599450778520324    
  0.06602571401778934    0.057923014090827174    0.05168896452325457    0.047243645273651616    0.044453030414517355    
  0.043159848658022616    0.04320843314909716    0.04445313938199081    0.04674772650085079    0.04992328536752988    
  0.053768254193672066    0.058022756100543124    0.062390718584348574    0.06656169982263427    0.07023031425819946    
  0.07311061874504388    0.07495584436340898    0.07559210961969141    0.07495584436340896    0.07311061874504392    
  0.07023031425819945    0.06656169982263428    0.062390718584348574    0.058022756100543096    0.05376825419367205    
  0.04992328536752986    0.04674772650085079    0.04445313938199079    0.043208433149097135    0.04315984865802261    
  0.044453030414517355    0.047243645273651595    0.05168896452325457    0.05792301409082716    0.06602571401778934    
  0.07599450778520324    0.08771568881888996    0.10092446878145793    0.11515254787341983    0.129688396937718    
  0.14359526853415613    0.1558165588298047    0.1653455694547672    0.17138841455219697    0.17345666890019737    
  0.18458111956372514    0.1823533258508114    0.1758472720797725    0.1655961745005684    0.15246221762121934    
  0.13753199340224528    0.12193846787523561    0.10667932804070021    0.09250798676504277    0.07991996392281461    
  0.06919964240119213    0.06047569846616998    0.05375770678867204    0.04895984166331675    0.04592963282901552    
  0.044486114668004596    0.044453139381990796    0.045670872398773175    0.047982628219466326    0.05121010708849714    
  0.055134222589893186    0.05949083032945865    0.06397981653011217    0.06828065873387888    0.07207011952011778    
  0.0750437564633966    0.07694491540229947    0.07759932451451253    0.07694491540229949    0.07504375646339667    
  0.07207011952011774    0.06828065873387887    0.06397981653011216    0.059490830329458635    0.05513422258989317    
  0.05121010708849714    0.04798262821946632    0.04567087239877315    0.04445313938199077    0.04448611466800459    
  0.045929632829015535    0.04895984166331673    0.053757706788672026    0.06047569846616999    0.06919964240119214    
  0.07991996392281461    0.09250798676504275    0.10667932804070021    0.12193846787523559    0.13753199340224526    
  0.15246221762121934    0.16559617450056846    0.17584727207977252    0.18235332585081138    0.18458111956372514    
  0.20211959251582307    0.19964076351938212    0.1924089587556027    0.18103116054290838    0.1664712060390721    
  0.14992845040705208    0.13264966465407924    0.1157393143818512    0.10003965561059441    0.08610655675760713    
  0.07425353431729097    0.06461424312588812    0.057189489295397175    0.051877301154819803    0.04850337550361738    
  0.046860847555917316    0.046747726500850774    0.04798262821946633    0.0503927717076057    0.053787639236416426    
  0.05793779378034201    0.06256821756678564    0.06736296655561301    0.07197597725214215    0.07604971253067161    
  0.07924606121881728    0.08128619881379347    0.08198737876677607    0.08128619881379348    0.07924606121881735    
  0.07604971253067162    0.07197597725214211    0.06736296655561302    0.06256821756678563    0.05793779378034198    
  0.053787639236416426    0.0503927717076057    0.04798262821946631    0.04674772650085075    0.046860847555917316    
  0.04850337550361738    0.05187730115481979    0.05718948929539716    0.06461424312588811    0.07425353431729097    
  0.08610655675760713    0.10003965561059437    0.11573931438185119    0.1326496646540792    0.14992845040705208    
  0.1664712060390721    0.18103116054290838    0.1924089587556027    0.1996407635193821    0.20211959251582307    
  0.22491296506469896    0.22212264577306    0.21398743745429546    0.20119684010904    0.1848272415190088    
  0.1662067469024046    0.1467242048506968    0.12763375481663308    0.10991491895878572    0.0942211006333929    
  0.08090827537882547    0.07010579923253343    0.061787478834889345    0.055822290730052286    0.05201076988794756    
  0.05012091668415013    0.04992328536752987    0.051210107088497187    0.05378763923641646    0.05744977872476457    
  0.061952666118906353    0.06700298800461295    0.0722585227538564    0.07733651884339851    0.08183421169289022    
  0.08536792329292016    0.08762350957622944    0.08839846665433472    0.08762350957622944    0.0853679232929202    
  0.0818342116928902    0.07733651884339851    0.07225852275385644    0.06700298800461293    0.06195266611890634    
  0.05744977872476457    0.05378763923641646    0.05121010708849717    0.049923285367529845    0.050120916684150106    
  0.052010769887947554    0.05582229073005228    0.061787478834889324    0.07010579923253342    0.08090827537882549    
  0.0942211006333929    0.1099149189587857    0.12763375481663308    0.1467242048506968    0.16620674690240458    
  0.1848272415190088    0.20119684010904001    0.21398743745429546    0.22212264577306    0.22491296506469896    
  0.2511846743125467    0.24807512043952482    0.23900250419048438    0.22471275659050635    0.2063687822022011    
  0.18541734703580492    0.16340282056644936    0.14176245170559693    0.12165537490524021    0.10387039985699062    
  0.08882831231127919    0.07665713552861116    0.06729313602864266    0.06056365034449208    0.056237623553639086    
  0.0540577170843392    0.05376825419367207    0.0551342225898932    0.05793779378034203    0.061952666118906326    
  0.06691430552515377    0.07250329705980933    0.07834341890162916    0.08400906328524123    0.08904617683252374    
  0.09301606041625199    0.09555550792689677    0.09642892003691719    0.09555550792689686    0.09301606041625203    
  0.0890461768325237    0.08400906328524123    0.07834341890162923    0.07250329705980933    0.06691430552515376    
  0.06195266611890634    0.05793779378034203    0.05513422258989317    0.05376825419367204    0.05405771708433918    
  0.05623762355363909    0.06056365034449205    0.06729313602864265    0.07665713552861116    0.08882831231127918    
  0.10387039985699062    0.12165537490524021    0.14176245170559693    0.16340282056644934    0.1854173470358049    
  0.2063687822022011    0.22471275659050635    0.23900250419048438    0.24807512043952482    0.2511846743125467    
  0.2785560947798775    0.27519602120871384    0.265358938464151    0.2497668623575034    0.22958578190023915    
  0.20633294941145983    0.1817054979481372    0.15735151312849038    0.134647992194839    0.11455614900249735    
  0.09759132853474295    0.08389727213497611    0.07337475338410374    0.06580177193964208    0.06090785031348229    
  0.05840813765305907    0.05802275610054311    0.059490830329458635    0.06256821756678567    0.0670029880046129    
  0.07250329705980929    0.07871768394386859    0.08523186356944318    0.09157489512114121    0.09723807002189891    
  0.10172021495154608    0.10459720139067676    0.10558861330364279    0.1045972013906768    0.10172021495154608    
  0.09723807002189894    0.09157489512114121    0.08523186356944318    0.07871768394386856    0.07250329705980929    
  0.0670029880046129    0.06256821756678566    0.059490830329458635    0.058022756100543096    0.05840813765305907    
  0.06090785031348231    0.06580177193964208    0.07337475338410372    0.08389727213497612    0.09759132853474292    
  0.11455614900249735    0.13464799219483897    0.1573515131284903    0.1817054979481372    0.20633294941145977    
  0.22958578190023915    0.2497668623575034    0.265358938464151    0.2751960212087138    0.2785560947798775    
  0.3042480195689608    0.30079258068971776    0.2905989518271402    0.27422426545055323    0.25268664831819876    
  0.22747876178261464    0.2004300986345853    0.17342775260234888    0.14810769980545052    0.12564045104319996    
  0.10666728400851626    0.0913722582260193    0.07963348795953333    0.07117996150608123    0.06569651469540962    
  0.06286779822463126    0.06239071858434855    0.06397981653011216    0.06736296655561302    0.07225852275385643    
  0.07834341890162916    0.08523186356944323    0.0924702473801853    0.09954069335319088    0.1058769571447162    
  0.11091099071886731    0.11415242312619348    0.11527142055072771    0.1141524231261935    0.11091099071886731    
  0.1058769571447162    0.09954069335319088    0.09247024738018536    0.0852318635694432    0.07834341890162916    
  0.07225852275385644    0.06736296655561302    0.06397981653011216    0.06239071858434854    0.06286779822463122    