#     DFTpy    
  CRYSTAL 
    
  PRIMVEC    
  3.8480000000000003    0.0    0.0    
  0.0    3.8480000000000003    0.0    
  0.0    0.0    2.1200000000000006    
  PRIMCOORD    
  4    1    
  Si    0.0    0.0    0.0    
  Si    1.9240000000000002    1.9240000000000002    1.0600000000000003    
  Si    0.0    1.9240000000000002    0.5300000000000001    
  Si    1.9240000000000002    0.0    1.5900000000000003    
  BEGIN_BLOCK_DATAGRID_3D    
  3d_datagrid_density    
  BEGIN_DATAGRID_3D#0    
  37    37    21    
  0.0    0.0    0.0    
  3.848000014353114    0.0    0.0    
  0.0    3.848000014353114    0.0    
  0.0    0.0    2.120000007907641    
  0.04978777966960982    0.05974537775113474    0.09458884625076258    0.16590372672086817    0.2802551192538346    
  0.4243056582445714    0.5647448372639977    0.6694450288628764    0.727657476013492    0.748578331944927    
  0.7458725814608012    0.7265165185038496    0.6904445437669205    0.6366116210899457    0.569005225448509    
  0.4980838525465646    0.4370249461958774    0.3965349553266444    0.3824752110047644    0.3965349553266444    
  0.4370249461958774    0.4980838525465646    0.569005225448509    0.6366116210899457    0.6904445437669205    
  0.7265165185038496    0.7458725814608012    0.7485783319449268    0.727657476013492    0.6694450288628763    
  0.5647448372639977    0.4243056582445715    0.2802551192538346    0.16590372672086817    0.09458884625076258    
  0.05974537775113478    0.04978777966960982    0.05974537775113478    0.07043674743498245    0.1071084734698763    
  0.18004608383674986    0.29380651490257625    0.4338146108187398    0.5677228494303623    0.6658787297836977    
  0.7194564988129394    0.7380686531541606    0.7349516207024345    0.7167006962602396    0.6831033041571681    
  0.6328598520879137    0.5693299730649928    0.5021352223518176    0.44382509114534036    0.4049131130561899    
  0.3913533884464681    0.4049131130561899    0.44382509114534036    0.5021352223518176    0.5693299730649928    
  0.6328598520879135    0.683103304157168    0.7167006962602397    0.7349516207024345    0.7380686531541606    
  0.7194564988129394    0.6658787297836977    0.5677228494303623    0.4338146108187399    0.29380651490257625    
  0.18004608383674986    0.1071084734698763    0.0704367474349825    0.05974537775113478    0.09458884625076272    
  0.1071084734698762    0.14802579704066585    0.22374434759406683    0.33353380943066263    0.4602611763625121    
  0.5749356911714639    0.6546994046225318    0.6955491804678345    0.7078646014928992    0.7035801119462246    
  0.6882585374227805    0.6613482910990682    0.6209595653793248    0.5688456636413461    0.5123535744126926    
  0.46217569482248283    0.428072829239258    0.4160676945016239    0.4280728292392579    0.46217569482248283    
  0.5123535744126926    0.5688456636413461    0.6209595653793247    0.6613482910990682    0.6882585374227806    
  0.7035801119462246    0.7078646014928992    0.6955491804678345    0.6546994046225318    0.5749356911714639    
  0.4602611763625121    0.33353380943066263    0.22374434759406683    0.1480257970406659    0.10710847346987624    
  0.09458884625076272    0.16590372672086803    0.1800460838367496    0.22374434759406667    0.29771291939270716    
  0.3950047388481148    0.4972824662613838    0.5818442388437748    0.6349993945169169    0.6581653901706846    
  0.6618378477080851    0.6558486971118446    0.6443589462457218    0.6264864056630934    0.599777911953893    
  0.564062926167034    0.5236240094297866    0.4862611112273298    0.46010273948211733    0.4507451996819694    
  0.46010273948211733    0.4862611112273298    0.5236240094297866    0.564062926167034    0.5997779119538929    
  0.6264864056630934    0.6443589462457219    0.6558486971118446    0.6618378477080851    0.6581653901706846    
  0.6349993945169169    0.5818442388437748    0.4972824662613838    0.3950047388481148    0.2977129193927071    
  0.22374434759406672    0.18004608383674967    0.16590372672086803    0.2802551192538346    0.29380651490257614    
  0.3335338094306625    0.3950047388481147    0.46747680075191456    0.534903209973328    0.5829564853126195    
  0.6066667524920327    0.6111985911067582    0.6059030209912194    0.5980504332957269    0.5903605944661791    
  0.5817380990939547    0.5694373826571772    0.5516920870384906    0.5297584608818036    0.5080210730579167    
  0.49205691112506567    0.48620529524507133    0.49205691112506567    0.5080210730579168    0.5297584608818036    
  0.5516920870384906    0.5694373826571771    0.5817380990939547    0.5903605944661791    0.5980504332957269    
  0.6059030209912194    0.6111985911067582    0.6066667524920327    0.5829564853126195    0.5349032099733281    
  0.46747680075191467    0.3950047388481147    0.3335338094306625    0.29380651490257614    0.2802551192538346    
  0.4243056582445716    0.4338146108187398    0.4602611763625121    0.4972824662613839    0.5349032099733281    
  0.5626721006084748    0.5744998634233178    0.5714333377093903    0.5598283785269191    0.5469152273031063    
  0.5374866500135784    0.5330262552944335    0.5323006053758657    0.5325247338005379    0.5309588582710411    
  0.526509500244875    0.5203361816164194    0.5150065483632312    0.5129140554378108    0.5150065483632312    
  0.5203361816164194    0.526509500244875    0.5309588582710411    0.5325247338005379    0.5323006053758657    
  0.5330262552944335    0.5374866500135784    0.5469152273031063    0.5598283785269191    0.5714333377093903    
  0.5744998634233178    0.5626721006084748    0.5349032099733281    0.4972824662613839    0.4602611763625121    
  0.4338146108187399    0.4243056582445716    0.5647448372639976    0.567722849430362    0.5749356911714639    
  0.5818442388437747    0.5829564853126193    0.5744998634233178    0.5565391656920667    0.5330039173766953    
  0.5095983376332445    0.491285934030329    0.48090366090865677    0.4789962690978009    0.48418169613561246    
  0.493733621225564    0.5044792431129631    0.5138483754889893    0.5205167862042874    0.524293549436306    
  0.5254902671004522    0.524293549436306    0.5205167862042874    0.5138483754889893    0.5044792431129631    
  0.493733621225564    0.48418169613561246    0.47899626909780096    0.48090366090865677    0.49128593403032905    
  0.5095983376332445    0.5330039173766952    0.5565391656920667    0.5744998634233178    0.5829564853126193    
  0.5818442388437747    0.5749356911714639    0.567722849430362    0.5647448372639976    0.6694450288628763    
  0.6658787297836976    0.6546994046225316    0.6349993945169169    0.6066667524920327    0.5714333377093903    
  0.5330039173766954    0.4961584326935761    0.46540670893898917    0.4439571671962128    0.43332640023676705    
  0.433392335676679    0.4426032122060563    0.45829172587393324    0.477158139663888    0.49584761192020615    
  0.5114316108723985    0.5216945444382416    0.5252692379361139    0.5216945444382416    0.5114316108723984    
  0.49584761192020615    0.477158139663888    0.45829172587393324    0.4426032122060563    0.4333923356766791    
  0.43332640023676705    0.4439571671962128    0.46540670893898917    0.4961584326935761    0.5330039173766954    
  0.5714333377093903    0.6066667524920327    0.6349993945169169    0.6546994046225316    0.6658787297836976    
  0.6694450288628763    0.727657476013492    0.7194564988129394    0.6955491804678344    0.6581653901706845    
  0.6111985911067582    0.5598283785269191    0.5095983376332445    0.46540670893898917    0.4308586432528971    
  0.4080692002843931    0.3977366801940965    0.39929353191958983    0.41106419064702165    0.430447484874297    
  0.45413908670191167    0.4783921157958627    0.49935800383052786    0.5135810454720287    0.5186178059093312    
  0.5135810454720287    0.49935800383052786    0.47839211579586266    0.45413908670191167    0.430447484874297    
  0.41106419064702165    0.3992935319195899    0.3977366801940965    0.40806920028439314    0.4308586432528971    
  0.4654067089389891    0.5095983376332445    0.5598283785269191    0.6111985911067582    0.6581653901706845    
  0.6955491804678344    0.7194564988129394    0.727657476013492    0.7485783319449268    0.7380686531541606    
  0.7078646014928992    0.6618378477080852    0.6059030209912194    0.5469152273031062    0.491285934030329    
  0.4439571671962128    0.4080692002843931    0.38514125523187337    0.3753998623515286    0.37803747648025665    
  0.3913637408649319    0.41287737210011577    0.43930054981224387    0.46666627514084275    0.4906143399893782    
  0.5070173762377157    0.5128564695259652    0.5070173762377157    0.4906143399893782    0.46666627514084275    
  0.43930054981224387    0.4128773721001157    0.3913637408649319    0.3780374764802567    0.3753998623515286    
  0.3851412552318734    0.4080692002843931    0.4439571671962128    0.491285934030329    0.5469152273031062    
  0.6059030209912194    0.6618378477080852    0.7078646014928992    0.7380686531541606    0.7485783319449268    
  0.7458725814608012    0.7349516207024345    0.7035801119462244    0.6558486971118446    0.5980504332957269    
  0.5374866500135782    0.48090366090865677    0.4333264002367671    0.3977366801940966    0.3753998623515286    
  0.3663598157617012    0.36978091537455243    0.3840700820261765    0.40684130870141166    0.4348306612397598    
  0.46392009346674057    0.48945978928692846    0.5069912219551818    0.5132384890487373    0.5069912219551818    
  0.48945978928692846    0.46392009346674057    0.4348306612397599    0.40684130870141166    0.3840700820261765    
  0.3697809153745525    0.3663598157617012    0.3753998623515286    0.3977366801940966    0.43332640023676705    
  0.48090366090865677    0.5374866500135781    0.5980504332957269    0.6558486971118446    0.7035801119462244    
  0.7349516207024345    0.7458725814608012    0.7265165185038496    0.7167006962602395    0.6882585374227805    
  0.644358946245722    0.5903605944661791    0.5330262552944335    0.4789962690978011    0.433392335676679    
  0.3992935319195899    0.37803747648025665    0.36978091537455254    0.37385898199205125    0.3888468719234018    
  0.4124490570798674    0.441379989329164    0.4714069831423692    0.49773086661539157    0.5157731005513335    
  0.5221959946443341    0.5157731005513336    0.49773086661539157    0.4714069831423692    0.4413799893291641    
  0.41244905707986745    0.3888468719234018    0.3738589819920513    0.36978091537455254    0.3780374764802567    
  0.3992935319195899    0.433392335676679    0.4789962690978011    0.5330262552944334    0.5903605944661791    
  0.644358946245722    0.6882585374227805    0.7167006962602395    0.7265165185038496    0.6904445437669205    
  0.6831033041571681    0.6613482910990681    0.6264864056630937    0.5817380990939546    0.5323006053758658    
  0.4841816961356127    0.4426032122060564    0.41106419064702177    0.3913637408649319    0.3840700820261765    
  0.38884687192340167    0.4044710031636989    0.4287019652286779    0.4582014117419495    0.4886537097043573    
  0.515220085735462    0.5333563426691974    0.5397980525326911    0.5333563426691974    0.515220085735462    
  0.4886537097043573    0.4582014117419495    0.4287019652286779    0.4044710031636989    0.3888468719234018    
  0.3840700820261765    0.391363740864932    0.41106419064702177    0.4426032122060563    0.4841816961356127    
  0.5323006053758657    0.5817380990939546    0.6264864056630937    0.6613482910990681    0.683103304157168    
  0.6904445437669205    0.6366116210899456    0.6328598520879134    0.6209595653793247    0.599777911953893    
  0.5694373826571771    0.5325247338005379    0.49373362122556413    0.4582917258739332    0.430447484874297    
  0.41287737210011577    0.4068413087014116    0.4124490570798674    0.4287019652286779    0.4534057932648865    
  0.48317060933038775    0.5136403945199475    0.5400298901802221    0.5579456458721099    0.5642896968623395    
  0.5579456458721099    0.5400298901802221    0.5136403945199475    0.48317060933038786    0.4534057932648865    
  0.4287019652286779    0.4124490570798675    0.4068413087014116    0.41287737210011577    0.430447484874297    
  0.4582917258739331    0.49373362122556413    0.5325247338005379    0.569437382657177    0.5997779119538931    
  0.6209595653793247    0.6328598520879134    0.6366116210899456    0.5690052254485088    0.5693299730649927    
  0.568845663641346    0.564062926167034    0.5516920870384905    0.5309588582710407    0.504479243112963    
  0.47715813966388787    0.45413908670191167    0.43930054981224387    0.4348306612397598    0.4413799893291637    
  0.4582014117419494    0.48317060933038786    0.512885957560162    0.543011281461936    0.5688915737319609    
  0.5863568340448057    0.5925217273053908    0.5863568340448057    0.5688915737319609    0.543011281461936    
  0.512885957560162    0.48317060933038786    0.4582014117419494    0.44137998932916384    0.4348306612397598    
  0.43930054981224387    0.45413908670191167    0.47715813966388776    0.504479243112963    0.5309588582710407    
  0.5516920870384905    0.564062926167034    0.5688456636413461    0.5693299730649927    0.5690052254485088    
  0.4980838525465646    0.5021352223518176    0.5123535744126925    0.5236240094297867    0.5297584608818035    
  0.5265095002448749    0.5138483754889893    0.49584761192020615    0.47839211579586266    0.46666627514084263    
  0.46392009346674057    0.4714069831423694    0.4886537097043573    0.5136403945199475    0.543011281461936    
  0.5725137290901376    0.5976722770118436    0.614561858597515    0.6205075398799802    0.614561858597515    
  0.5976722770118436    0.5725137290901376    0.543011281461936    0.5136403945199475    0.4886537097043573    
  0.47140698314236945    0.46392009346674057    0.46666627514084263    0.47839211579586266    0.495847611920206    
  0.5138483754889893    0.5265095002448748    0.5297584608818035    0.5236240094297868    0.5123535744126925    
  0.5021352223518175    0.4980838525465646    0.4370249461958773    0.4438250911453402    0.46217569482248266    
  0.4862611112273296    0.5080210730579167    0.5203361816164191    0.5205167862042873    0.5114316108723984    
  0.49935800383052786    0.4906143399893781    0.48945978928692846    0.4977308666153914    0.5152200857354619    
  0.5400298901802222    0.5688915737319609    0.5976722770118437    0.6220802865883391    0.6384051242134218    
  0.644141453031802    0.6384051242134218    0.6220802865883392    0.5976722770118436    0.5688915737319609    
  0.5400298901802221    0.5152200857354619    0.49773086661539145    0.48945978928692846    0.4906143399893781    
  0.49935800383052786    0.5114316108723984    0.5205167862042873    0.5203361816164191    0.5080210730579167    
  0.4862611112273296    0.46217569482248266    0.4438250911453401    0.4370249461958773    0.3965349553266444    
  0.4049131130561898    0.4280728292392578    0.4601027394821175    0.49205691112506567    0.5150065483632312    
  0.524293549436306    0.5216945444382414    0.5135810454720287    0.5070173762377157    0.5069912219551818    
  0.5157731005513335    0.5333563426691975    0.5579456458721099    0.5863568340448057    0.6145618585975148    
  0.6384051242134218    0.6543194857904086    0.6599061531405512    0.6543194857904086    0.6384051242134218    
  0.6145618585975148    0.5863568340448055    0.5579456458721099    0.5333563426691975    0.5157731005513337    
  0.5069912219551818    0.5070173762377157    0.5135810454720287    0.5216945444382413    0.524293549436306    
  0.5150065483632311    0.49205691112506567    0.4601027394821176    0.4280728292392579    0.4049131130561898    
  0.3965349553266444    0.38247521100476434    0.39135338844646794    0.4160676945016238    0.4507451996819695    
  0.48620529524507106    0.512914055437811    0.5254902671004521    0.525269237936114    0.5186178059093313    
  0.5128564695259652    0.5132384890487371    0.5221959946443341    0.539798052532691    0.5642896968623395    
  0.5925217273053909    0.6205075398799804    0.6441414530318021    0.6599061531405513    0.6654386907561025    
  0.6599061531405513    0.6441414530318021    0.6205075398799804    0.5925217273053908    0.5642896968623395    
  0.539798052532691    0.5221959946443341    0.5132384890487371    0.5128564695259652    0.5186178059093313    
  0.5252692379361139    0.5254902671004521    0.5129140554378109    0.48620529524507106    0.45074519968196963    
  0.4160676945016238    0.39135338844646794    0.38247521100476434    0.3965349553266444    0.4049131130561898    
  0.4280728292392578    0.4601027394821174    0.49205691112506567    0.5150065483632311    0.5242935494363061    
  0.5216945444382415    0.5135810454720287    0.5070173762377157    0.5069912219551818    0.5157731005513333    
  0.5333563426691975    0.55794564587211    0.5863568340448057    0.6145618585975148    0.6384051242134219    
  0.6543194857904084    0.6599061531405513    0.6543194857904086    0.6384051242134219    0.6145618585975148    
  0.5863568340448057    0.5579456458721099    0.5333563426691975    0.5157731005513336    0.5069912219551818    
  0.5070173762377157    0.5135810454720287    0.5216945444382414    0.5242935494363061    0.5150065483632311    
  0.49205691112506567    0.4601027394821175    0.4280728292392579    0.4049131130561898    0.3965349553266444    
  0.4370249461958773    0.4438250911453402    0.46217569482248266    0.4862611112273296    0.5080210730579167    
  0.5203361816164191    0.5205167862042873    0.5114316108723984    0.49935800383052786    0.4906143399893781    
  0.48945978928692846    0.4977308666153913    0.5152200857354619    0.5400298901802222    0.5688915737319609    
  0.5976722770118436    0.6220802865883391    0.6384051242134218    0.644141453031802    0.6384051242134219    
  0.6220802865883391    0.5976722770118436    0.5688915737319609    0.5400298901802221    0.5152200857354619    
  0.4977308666153914    0.48945978928692846    0.4906143399893781    0.49935800383052786    0.5114316108723984    
  0.5205167862042873    0.5203361816164191    0.5080210730579167    0.4862611112273296    0.46217569482248266    
  0.4438250911453401    0.4370249461958773    0.4980838525465646    0.5021352223518174    0.5123535744126924    
  0.5236240094297868    0.5297584608818033    0.5265095002448749    0.5138483754889892    0.4958476119202061    
  0.4783921157958627    0.46666627514084263    0.4639200934667405    0.4714069831423693    0.4886537097043572    
  0.5136403945199475    0.543011281461936    0.5725137290901378    0.5976722770118436    0.6145618585975148    
  0.6205075398799803    0.6145618585975148    0.5976722770118437    0.5725137290901378    0.543011281461936    
  0.5136403945199475    0.4886537097043572    0.4714069831423694    0.4639200934667405    0.46666627514084263    
  0.4783921157958627    0.495847611920206    0.5138483754889892    0.5265095002448748    0.5297584608818033    
  0.5236240094297868    0.5123535744126925    0.5021352223518174    0.4980838525465646    0.5690052254485088    
  0.5693299730649927    0.568845663641346    0.564062926167034    0.5516920870384905    0.5309588582710407    
  0.504479243112963    0.47715813966388787    0.45413908670191167    0.43930054981224387    0.4348306612397597    
  0.4413799893291637    0.4582014117419494    0.48317060933038786    0.512885957560162    0.543011281461936    
  0.5688915737319609    0.5863568340448057    0.5925217273053908    0.5863568340448057    0.5688915737319609    
  0.543011281461936    0.512885957560162    0.48317060933038786    0.4582014117419494    0.44137998932916384    
  0.4348306612397597    0.43930054981224387    0.45413908670191167    0.47715813966388776    0.504479243112963    
  0.5309588582710407    0.5516920870384905    0.564062926167034    0.568845663641346    0.5693299730649927    
  0.5690052254485088    0.6366116210899457    0.6328598520879136    0.6209595653793247    0.5997779119538931    
  0.569437382657177    0.5325247338005378    0.493733621225564    0.4582917258739332    0.430447484874297    
  0.4128773721001158    0.4068413087014118    0.4124490570798675    0.4287019652286778    0.45340579326488645    
  0.4831706093303879    0.5136403945199475    0.5400298901802223    0.55794564587211    0.5642896968623394    
  0.55794564587211    0.5400298901802223    0.5136403945199475    0.4831706093303879    0.45340579326488645    
  0.4287019652286778    0.41244905707986756    0.4068413087014118    0.4128773721001158    0.430447484874297    
  0.4582917258739331    0.493733621225564    0.5325247338005378    0.5694373826571771    0.5997779119538931    
  0.6209595653793247    0.6328598520879135    0.6366116210899457    0.6904445437669205    0.6831033041571681    
  0.6613482910990681    0.6264864056630937    0.5817380990939546    0.5323006053758658    0.4841816961356127    
  0.4426032122060564    0.41106419064702177    0.3913637408649319    0.3840700820261765    0.38884687192340167    
  0.4044710031636989    0.4287019652286779    0.4582014117419495    0.4886537097043573    0.515220085735462    
  0.5333563426691974    0.5397980525326911    0.5333563426691974    0.515220085735462    0.4886537097043573    
  0.4582014117419495    0.4287019652286779    0.4044710031636989    0.3888468719234018    0.3840700820261765    
  0.391363740864932    0.41106419064702177    0.4426032122060563    0.4841816961356127    0.5323006053758657    
  0.5817380990939546    0.6264864056630937    0.6613482910990681    0.683103304157168    0.6904445437669205    
  0.7265165185038496    0.7167006962602395    0.6882585374227805    0.6443589462457219    0.5903605944661791    
  0.5330262552944335    0.4789962690978012    0.433392335676679    0.3992935319195899    0.37803747648025654    
  0.36978091537455243    0.37385898199205114    0.3888468719234018    0.4124490570798675    0.441379989329164    
  0.4714069831423694    0.49773086661539145    0.5157731005513336    0.5221959946443341    0.5157731005513336    
  0.49773086661539145    0.4714069831423694    0.441379989329164    0.4124490570798675    0.3888468719234018    
  0.37385898199205125    0.3697809153745524    0.37803747648025654    0.3992935319195899    0.433392335676679    
  0.4789962690978012    0.5330262552944334    0.5903605944661792    0.6443589462457219    0.6882585374227805    
  0.7167006962602395    0.7265165185038496    0.7458725814608012    0.7349516207024345    0.7035801119462244    
  0.6558486971118446    0.5980504332957269    0.5374866500135782    0.48090366090865677    0.4333264002367671    
  0.39773668019409664    0.3753998623515286    0.3663598157617012    0.36978091537455243    0.3840700820261765    
  0.40684130870141166    0.4348306612397598    0.46392009346674057    0.48945978928692846    0.5069912219551818    
  0.5132384890487371    0.5069912219551818    0.48945978928692846    0.46392009346674057    0.4348306612397599    
  0.40684130870141166    0.3840700820261765    0.3697809153745525    0.3663598157617012    0.37539986235152867    
  0.39773668019409664    0.43332640023676705    0.48090366090865677    0.5374866500135781    0.5980504332957269    
  0.6558486971118446    0.7035801119462244    0.7349516207024345    0.7458725814608012    0.7485783319449268    
  0.7380686531541606    0.7078646014928992    0.6618378477080852    0.6059030209912194    0.5469152273031062    
  0.491285934030329    0.4439571671962128    0.4080692002843931    0.38514125523187337    0.3753998623515286    
  0.37803747648025665    0.3913637408649319    0.41287737210011577    0.43930054981224387    0.46666627514084275    
  0.4906143399893782    0.5070173762377157    0.5128564695259652    0.5070173762377157    0.4906143399893782    
  0.46666627514084275    0.43930054981224387    0.4128773721001157    0.3913637408649319    0.3780374764802567    
  0.3753998623515286    0.3851412552318734    0.4080692002843931    0.4439571671962128    0.491285934030329    
  0.5469152273031062    0.6059030209912194    0.6618378477080852    0.7078646014928992    0.7380686531541606    
  0.7485783319449268    0.727657476013492    0.7194564988129394    0.6955491804678344    0.6581653901706845    
  0.6111985911067582    0.5598283785269191    0.5095983376332445    0.46540670893898917    0.4308586432528971    
  0.4080692002843931    0.3977366801940965    0.39929353191958983    0.41106419064702165    0.430447484874297    
  0.45413908670191167    0.4783921157958627    0.49935800383052786    0.5135810454720287    0.5186178059093312    
  0.5135810454720287    0.49935800383052786    0.4783921157958627    0.45413908670191167    0.430447484874297    
  0.41106419064702165    0.3992935319195899    0.3977366801940965    0.40806920028439314    0.4308586432528971    
  0.4654067089389891    0.5095983376332445    0.5598283785269191    0.6111985911067582    0.6581653901706845    
  0.6955491804678343    0.7194564988129394    0.727657476013492    0.6694450288628763    0.6658787297836976    
  0.6546994046225316    0.6349993945169169    0.6066667524920327    0.5714333377093903    0.5330039173766953    
  0.4961584326935761    0.46540670893898917    0.4439571671962129    0.4333264002367672    0.4333923356766791    
  0.4426032122060563    0.4582917258739332    0.477158139663888    0.4958476119202061    0.5114316108723985    
  0.5216945444382416    0.5252692379361139    0.5216945444382416    0.5114316108723985    0.4958476119202061    
  0.477158139663888    0.4582917258739332    0.4426032122060563    0.4333923356766792    0.4333264002367672    
  0.44395716719621303    0.46540670893898917    0.4961584326935761    0.5330039173766953    0.5714333377093903    
  0.6066667524920327    0.6349993945169169    0.6546994046225316    0.6658787297836976    0.6694450288628763    
  0.5647448372639976    0.567722849430362    0.5749356911714639    0.5818442388437747    0.5829564853126193    
  0.5744998634233178    0.5565391656920667    0.5330039173766953    0.5095983376332445    0.491285934030329    
  0.48090366090865677    0.4789962690978009    0.48418169613561246    0.493733621225564    0.5044792431129631    
  0.5138483754889893    0.5205167862042874    0.524293549436306    0.5254902671004522    0.524293549436306    
  0.5205167862042874    0.5138483754889893    0.5044792431129631    0.493733621225564    0.48418169613561246    
  0.47899626909780096    0.48090366090865677    0.491285934030329    0.5095983376332445    0.5330039173766952    
  0.5565391656920667    0.5744998634233178    0.5829564853126193    0.5818442388437747    0.5749356911714639    
  0.567722849430362    0.5647448372639976    0.4243056582445716    0.43381461081873973    0.4602611763625121    
  0.4972824662613839    0.5349032099733281    0.562672100608475    0.5744998634233178    0.5714333377093903    
  0.5598283785269191    0.5469152273031062    0.5374866500135782    0.5330262552944334    0.5323006053758658    
  0.5325247338005379    0.530958858271041    0.5265095002448749    0.5203361816164193    0.5150065483632312    
  0.512914055437811    0.5150065483632311    0.5203361816164193    0.5265095002448749    0.530958858271041    
  0.5325247338005379    0.5323006053758658    0.5330262552944335    0.5374866500135782    0.5469152273031062    
  0.5598283785269191    0.5714333377093903    0.5744998634233178    0.5626721006084751    0.5349032099733281    
  0.4972824662613839    0.4602611763625121    0.43381461081873973    0.4243056582445716    0.2802551192538346    
  0.29380651490257614    0.3335338094306625    0.3950047388481147    0.46747680075191456    0.5349032099733281    
  0.5829564853126195    0.6066667524920327    0.6111985911067582    0.6059030209912194    0.5980504332957269    
  0.5903605944661791    0.5817380990939547    0.5694373826571771    0.5516920870384906    0.5297584608818036    
  0.5080210730579167    0.49205691112506567    0.48620529524507133    0.49205691112506567    0.5080210730579167    
  0.5297584608818036    0.5516920870384906    0.5694373826571771    0.5817380990939547    0.5903605944661792    
  0.5980504332957269    0.6059030209912194    0.6111985911067582    0.6066667524920327    0.5829564853126195    
  0.5349032099733281    0.46747680075191467    0.3950047388481147    0.3335338094306625    0.2938065149025762    
  0.2802551192538346    0.16590372672086803    0.18004608383674986    0.22374434759406672    0.297712919392707    
  0.3950047388481149    0.4972824662613838    0.5818442388437749    0.6349993945169169    0.6581653901706845    
  0.6618378477080851    0.6558486971118447    0.6443589462457219    0.6264864056630935    0.599777911953893    
  0.5640629261670341    0.5236240094297866    0.4862611112273298    0.4601027394821175    0.45074519968196936    
  0.4601027394821175    0.4862611112273298    0.5236240094297866    0.5640629261670341    0.5997779119538929    
  0.6264864056630935    0.644358946245722    0.6558486971118447    0.6618378477080851    0.6581653901706845    
  0.6349993945169169    0.5818442388437749    0.4972824662613839    0.3950047388481149    0.297712919392707    
  0.22374434759406672    0.18004608383674986    0.16590372672086803    0.09458884625076268    0.1071084734698762    
  0.14802579704066585    0.22374434759406683    0.33353380943066263    0.4602611763625121    0.5749356911714639    
  0.6546994046225318    0.6955491804678345    0.7078646014928992    0.7035801119462246    0.6882585374227805    
  0.6613482910990682    0.6209595653793248    0.5688456636413461    0.5123535744126926    0.46217569482248283    
  0.428072829239258    0.4160676945016239    0.4280728292392579    0.46217569482248283    0.5123535744126926    
  0.5688456636413461    0.6209595653793247    0.6613482910990682    0.6882585374227806    0.7035801119462246    
  0.7078646014928992    0.6955491804678345    0.6546994046225318    0.5749356911714639    0.4602611763625121    