#     DFTpy    
  CRYSTAL 
    
  PRIMVEC    
  4.843172413793101    0.0    0.0    
  0.0    4.843172413793101    0.0    
  0.0    0.0    2.6682758620689704    
  PRIMCOORD    
  4    1    
  Si    0.0    0.0    0.0    
  Si    2.4215862068965506    2.4215862068965506    1.3341379310344803    
  Si    0.0    2.4215862068965506    0.6670689655172402    
  Si    2.4215862068965506    0.0    2.0012068965517202    
  BEGIN_BLOCK_DATAGRID_3D    
  3d_datagrid_density    
  BEGIN_DATAGRID_3D#0    
  46    46    26    
  0.0    0.0    0.0    
  4.8431724318582265    0.0    0.0    
  0.0    4.8431724318582265    0.0    
  0.0    0.0    2.6682758720216904    
  0.05029068733173704    0.058783357506604676    0.08750433169310226    0.14290092358552456    0.22479225647633266    
  0.31690375705731466    0.3919514929922173    0.43062013969947494    0.4335207159169319    0.4150195510926645    
  0.3905204254404408    0.3699629824506333    0.35792748425221343    0.3555195870464697    0.3616256989022499    
  0.37356634296874297    0.38752234364077076    0.3990522430021756    0.40422356804089943    0.40138536449595696    
  0.39238553094926215    0.3818842953033937    0.3750219491746136    0.37502194917461357    0.38188429530339374    
  0.3923855309492622    0.40138536449595696    0.40422356804089943    0.3990522430021757    0.3875223436407708    
  0.373566342968743    0.36162569890224994    0.3555195870464697    0.3579274842522135    0.3699629824506333    
  0.3905204254404408    0.4150195510926645    0.4335207159169319    0.43062013969947494    0.3919514929922173    
  0.3169037570573146    0.22479225647633272    0.14290092358552456    0.08750433169310226    0.058783357506604725    
  0.05029068733173704    0.0587833575066047    0.06781270100529727    0.09780471338941361    0.15411523763182733    
  0.23507709063755994    0.3237970012940652    0.39410099971928086    0.42858172033370795    0.42894800999886984    
  0.40943695852206197    0.3847842561434533    0.3643701661833148    0.35248902735428933    0.35015158996436724    
  0.356257098392702    0.36821656827113175    0.38236338833652894    0.3944256869867369    0.4005671594736131    
  0.3990638118110366    0.3915052183922836    0.3822080123184211    0.3760238065189402    0.3760238065189402    
  0.38220801231842116    0.39150521839228364    0.3990638118110366    0.4005671594736131    0.3944256869867369    
  0.38236338833652894    0.3682165682711318    0.3562570983927021    0.35015158996436724    0.35248902735428944    
  0.3643701661833148    0.3847842561434533    0.40943695852206197    0.42894800999886984    0.42858172033370806    
  0.3941009997192808    0.32379700129406513    0.23507709063755997    0.1541152376318273    0.09780471338941361    
  0.0678127010052973    0.0587833575066047    0.0875043316931023    0.0978047133894137    0.1305317329818088    
  0.18788338256639933    0.26442620282424634    0.34230187043268473    0.39886574244857065    0.4218059107828635    
  0.4154156462024302    0.39329785739314826    0.36829733119587754    0.3482922725267449    0.3368231112058711    
  0.3346536957137456    0.34072450916148167    0.35269478788822944    0.36730778211153264    0.38074790324502555    
  0.3894507852209019    0.39152197187374266    0.3878724137192766    0.3818776180828055    0.3775682857100422    
  0.37756828571004214    0.3818776180828055    0.38787241371927667    0.39152197187374266    0.3894507852209019    
  0.38074790324502555    0.36730778211153264    0.3526947878882295    0.34072450916148167    0.3346536957137456    
  0.3368231112058711    0.3482922725267449    0.36829733119587754    0.39329785739314826    0.4154156462024302    
  0.4218059107828635    0.3988657424485706    0.3423018704326847    0.2644262028242464    0.18788338256639933    
  0.1305317329818088    0.09780471338941371    0.0875043316931023    0.1429009235855245    0.1541152376318273    
  0.18788338256639928    0.24205129884869414    0.3071820816377385    0.36602265674447293    0.40182496519832495    
  0.40876655174356286    0.3935782382974416    0.36830279141882966    0.3430422503035794    0.3236776738530644    
  0.3127738193790657    0.3107804728521996    0.316710802699538    0.3285723130418374    0.34365855698763625    
  0.3587650307539869    0.37072334453867634    0.37747765387938564    0.3790790311916532    0.37761328485422896    
  0.3759122626840331    0.3759122626840331    0.37761328485422896    0.37907903119165326    0.3774776538793857    
  0.3707233445386764    0.3587650307539869    0.34365855698763625    0.3285723130418375    0.31671080269953805    
  0.3107804728521996    0.3127738193790657    0.3236776738530644    0.3430422503035793    0.36830279141882966    
  0.3935782382974416    0.40876655174356286    0.4018249651983249    0.3660226567444728    0.3071820816377385    
  0.24205129884869414    0.18788338256639925    0.1541152376318273    0.1429009235855245    0.22479225647633266    
  0.23507709063755997    0.26442620282424634    0.30718208163773847    0.3522268914041511    0.3856490472647039    
  0.39772727802061975    0.38822313915075285    0.3647725075030132    0.33692838909501505    0.311805691216785    
  0.2933085454135042    0.2830529910263974    0.28118445584079094    0.28681551551946516    0.2983360984247898    
  0.31360387072821716    0.3300311460680789    0.34488939958240683    0.35605469123085665    0.3627969845482544    
  0.36589566848597416    0.3668732503926718    0.3668732503926718    0.36589566848597416    0.36279698454825443    
  0.35605469123085665    0.34488939958240683    0.3300311460680789    0.31360387072821716    0.29833609842478986    
  0.2868155155194652    0.28118445584079094    0.2830529910263974    0.2933085454135042    0.311805691216785    
  0.33692838909501505    0.3647725075030132    0.3882231391507529    0.39772727802061975    0.38564904726470384    
  0.3522268914041511    0.30718208163773847    0.26442620282424634    0.23507709063755997    0.22479225647633266    
  0.31690375705731466    0.3237970012940652    0.3423018704326846    0.3660226567444729    0.3856490472647039    
  0.39255811196100737    0.38316956506711014    0.3604260160082845    0.33114164124150336    0.30204259807444284    
  0.2776421996311574    0.26025339519442786    0.2507181576435007    0.24892769114055432    0.25410759507818526    
  0.2650103429476233    0.2799839173738193    0.2969596994135957    0.3136150999507408    0.3278676555861852    
  0.33844799672325976    0.34509520661053517    0.34820520579186043    0.3482052057918604    0.34509520661053517    
  0.33844799672325987    0.3278676555861852    0.3136150999507408    0.29695969941359573    0.2799839173738193    
  0.26501034294762343    0.2541075950781853    0.24892769114055432    0.2507181576435007    0.26025339519442786    
  0.2776421996311573    0.30204259807444284    0.3311416412415033    0.3604260160082845    0.3831695650671101    
  0.3925581119610073    0.38564904726470395    0.3660226567444729    0.3423018704326846    0.32379700129406525    
  0.31690375705731466    0.39195149299221727    0.39410099971928086    0.3988657424485706    0.4018249651983249    
  0.3977272780206198    0.3831695650671102    0.3585100586523821    0.3275662793877468    0.29546978346062797    
  0.26653626721295715    0.24342345757270306    0.2273536564395626    0.21860804697616784    0.21688804541499682    
  0.22152962184921934    0.2315894595268294    0.24579501592528968    0.2624676375142273    0.2796185651742148    
  0.29528449569867266    0.3079248148625743    0.31662583403054595    0.32101701272991756    0.3210170127299175    
  0.31662583403054595    0.30792481486257434    0.29528449569867266    0.2796185651742148    0.26246763751422736    
  0.24579501592528968    0.2315894595268295    0.2215296218492194    0.21688804541499676    0.21860804697616784    
  0.2273536564395626    0.24342345757270298    0.26653626721295715    0.29546978346062797    0.32756627938774685    
  0.35851005865238206    0.38316956506711014    0.39772727802061986    0.4018249651983249    0.3988657424485706    
  0.39410099971928086    0.39195149299221727    0.430620139699475    0.42858172033370795    0.4218059107828635    
  0.40876655174356286    0.3882231391507529    0.3604260160082845    0.3275662793877468    0.29313703093328153    
  0.2607142928055389    0.23300210619179645    0.21153805317315114    0.19687955661772302    0.18894398178710184    
  0.1873138775473124    0.19141721649356655    0.20053012053893943    0.21364558508735762    0.22936723743135165    
  0.2459764015139806    0.2616707414233743    0.2748417042838277    0.2842639826040868    0.2891577381270183    
  0.2891577381270183    0.2842639826040868    0.27484170428382776    0.2616707414233743    0.24597640151398065    
  0.22936723743135162    0.21364558508735762    0.20053012053893954    0.1914172164935666    0.1873138775473124    
  0.18894398178710187    0.19687955661772305    0.21153805317315102    0.23300210619179645    0.2607142928055389    
  0.29313703093328153    0.3275662793877468    0.3604260160082845    0.38822313915075296    0.4087665517435629    
  0.4218059107828635    0.42858172033370806    0.430620139699475    0.4335207159169319    0.42894800999886984    
  0.41541564620243016    0.3935782382974416    0.36477250750301315    0.33114164124150336    0.29546978346062797    
  0.2607142928055388    0.22944958270726976    0.20347972652310806    0.18373289944203083    0.17039865228492487    
  0.16320124591075033    0.1616753408028216    0.1653102224275017    0.1735055524049159    0.18541876761358425    
  0.1998621854312178    0.21534817522245073    0.2302546767878132    0.24302305708247687    0.25233228477751696    
  0.2572331595075234    0.2572331595075233    0.2523322847775169    0.2430230570824769    0.2302546767878132    
  0.21534817522245073    0.1998621854312178    0.18541876761358425    0.173505552404916    0.16531022242750176    
  0.16167534080282156    0.1632012459107503    0.17039865228492487    0.18373289944203083    0.20347972652310806    
  0.22944958270726978    0.2607142928055389    0.2954697834606279    0.3311416412415033    0.3647725075030132    
  0.39357823829744165    0.41541564620243016    0.42894800999886984    0.4335207159169319    0.4150195510926644    
  0.40943695852206197    0.3932978573931482    0.36830279141882966    0.33692838909501505    0.30204259807444284    
  0.2665362672129572    0.2330021061917964    0.20347972652310808    0.17930045573662268    0.16107167437701786    
  0.14881327036682077    0.142194843447489    0.14075987421446448    0.14402538029239256    0.15143169475414583    
  0.16222194062724482    0.17536372707515765    0.1895694126689496    0.20339644761875575    0.21538706843216796    
  0.22422822057873187    0.22891975866789108    0.22891975866789102    0.22422822057873182    0.21538706843216798    
  0.20339644761875575    0.1895694126689496    0.17536372707515765    0.16222194062724482    0.15143169475414597    
  0.14402538029239256    0.14075987421446445    0.142194843447489    0.14881327036682077    0.16107167437701786    
  0.17930045573662268    0.20347972652310808    0.23300210619179645    0.26653626721295715    0.30204259807444284    
  0.3369283890950151    0.36830279141882966    0.3932978573931482    0.40943695852206197    0.4150195510926644    
  0.39052042544044074    0.3847842561434533    0.36829733119587754    0.34304225030357943    0.311805691216785    
  0.2776421996311573    0.243423457572703    0.21153805317315102    0.18373289944203086    0.1610716743770178    
  0.1439985975198079    0.13249138273776115    0.126253059784552    0.1248659631790945    0.1278526407554205    
  0.13464737459654172    0.14452942284666395    0.1565736322387393    0.16964803573786735    0.18246263843019056    
  0.19366626874733184    0.20199083853523067    0.20643277902543133    0.20643277902543128    0.20199083853523064    
  0.1936662687473319    0.18246263843019064    0.16964803573786735    0.15657363223873927    0.14452942284666395    
  0.13464737459654183    0.1278526407554205    0.12486596317909449    0.126253059784552    0.13249138273776118    
  0.14399859751980787    0.1610716743770178    0.1837328994420309    0.21153805317315102    0.24342345757270298    
  0.2776421996311573    0.311805691216785    0.34304225030357943    0.36829733119587754    0.3847842561434534    
  0.39052042544044074    0.3699629824506334    0.36437016618331486    0.34829227252674494    0.3236776738530644    
  0.2933085454135042    0.26025339519442786    0.2273536564395626    0.19687955661772305    0.17039865228492493    
  0.1488132703668208    0.13249138273776123    0.1214269483620438    0.11538290133460864    0.11398524298833763    
  0.11676033177573106    0.12313050243652808    0.13238933466597963    0.14367324182783076    0.15594657928832306    
  0.1680211579677908    0.17862728984750198    0.18654421459781198    0.1907830618975743    0.19078306189757424    
  0.18654421459781198    0.17862728984750204    0.16802115796779088    0.15594657928832306    0.1436732418278307    
  0.13238933466597963    0.12313050243652815    0.11676033177573106    0.11398524298833763    0.11538290133460864    
  0.1214269483620438    0.13249138273776115    0.1488132703668208    0.17039865228492493    0.1968795566177231    
  0.2273536564395626    0.26025339519442786    0.29330854541350426    0.32367767385306445    0.3482922725267449    
  0.3643701661833149    0.3699629824506334    0.35792748425221343    0.35248902735428944    0.33682311120587105    
  0.3127738193790657    0.2830529910263975    0.2507181576435007    0.2186080469761679    0.1889439817871018    
  0.16320124591075033    0.14219484344748903    0.126253059784552    0.11538290133460867    0.10938706739736927    
  0.10792727368526166    0.11054720828110959    0.11667418845263787    0.12561016472246075    0.13651442705152164    
  0.14838824951035423    0.16008579117648097    0.17037589789104338    0.17806703748513592    0.18218873618002296    
  0.18218873618002288    0.17806703748513594    0.17037589789104343    0.16008579117648097    0.14838824951035423    
  0.13651442705152161    0.12561016472246075    0.11667418845263798    0.11054720828110963    0.10792727368526163    
  0.10938706739736927    0.11538290133460867    0.12625305978455198    0.14219484344748903    0.16320124591075033    
  0.1889439817871019    0.21860804697616784    0.2507181576435007    0.2830529910263975    0.3127738193790657    
  0.33682311120587105    0.3524890273542895    0.35792748425221343    0.35551958704646963    0.35015158996436724    
  0.3346536957137456    0.3107804728521996    0.281184455840791    0.24892769114055432    0.21688804541499682    
  0.18731387754731235    0.16167534080282162    0.14075987421446445    0.1248659631790945    0.11398524298833763    
  0.10792727368526159    0.10637897304299206    0.10891362275269881    0.11497782489638599    0.12387745558662674    
  0.1347657665687033    0.1466349403377839    0.15832941352080307    0.16860991197466257    0.17628443710676597    
  0.18039228761544138    0.18039228761544132    0.17628443710676597    0.16860991197466263    0.15832941352080307    
  0.1466349403377839    0.1347657665687033    0.12387745558662674    0.11497782489638608    0.10891362275269884    
  0.106378973042992    0.10792727368526159    0.11398524298833763    0.12486596317909446    0.14075987421446445    
  0.16167534080282162    0.18731387754731246    0.21688804541499673    0.24892769114055432    0.281184455840791    
  0.31078047285219956    0.3346536957137456    0.3501515899643673    0.35551958704646963    0.36162569890224994    
  0.356257098392702    0.3407245091614816    0.316710802699538    0.28681551551946516    0.2541075950781853    
  0.22152962184921934    0.19141721649356655    0.1653102224275017    0.14402538029239256    0.1278526407554205    
  0.11676033177573103    0.11054720828110963    0.10891362275269881    0.11145920441822904    0.11764757928155578    
  0.1267786299373699    0.1379783940853711    0.15019858354374027    0.16223548846493507    0.17280187042904926    
  0.1806723883081936    0.18487644601416242    0.18487644601416237    0.18067238830819352    0.1728018704290493    
  0.1622354884649351    0.15019858354374027    0.1379783940853711    0.1267786299373699    0.11764757928155585    
  0.11145920441822908    0.1089136227526988    0.11054720828110963    0.116760331775731    0.12785264075542047    
  0.14402538029239256    0.1653102224275017    0.1914172164935666    0.22152962184921932    0.2541075950781852    
  0.2868155155194652    0.316710802699538    0.3407245091614816    0.3562570983927021    0.36162569890224994    
  0.37356634296874297    0.3682165682711318    0.35269478788822944    0.3285723130418375    0.2983360984247899    
  0.26501034294762343    0.2315894595268295    0.2005301205389395    0.17350555240491597    0.15143169475414595    
  0.13464737459654177    0.12313050243652815    0.11667418845263794    0.11497782489638605    0.11764757928155588    
  0.12414796431825231    0.13375942400770333    0.14556421986476267    0.15845098066808758    0.17114052011824102    
  0.1822675456541295    0.1905420445419492    0.19495511665132023    0.1949551166513202    0.19054204454194915    
  0.18226754565412956    0.17114052011824102    0.15845098066808758    0.1455642198647627    0.1337594240077033    
  0.1241479643182524    0.11764757928155592    0.11497782489638603    0.11667418845263791    0.12313050243652815    
  0.13464737459654175    0.15143169475414595    0.17350555240491602    0.20053012053893954    0.2315894595268295    
  0.2650103429476233    0.29833609842479    0.3285723130418375    0.35269478788822956    0.36821656827113197    
  0.37356634296874297    0.38752234364077087    0.38236338833652894    0.3673077821115326    0.34365855698763637    
  0.3136038707282172    0.27998391737381934    0.24579501592528982    0.21364558508735768    0.18541876761358433    
  0.16222194062724488    0.144529422846664    0.1323893346659796    0.1256101647224608    0.12387745558662674    
  0.12677862993736994    0.13375942400770324    0.14406870186564433    0.1567325177480078    0.17055937585374334    
  0.18417464162213434    0.19611208826040438    0.20498764362090596    0.2097203910776603    0.20972039107766025    
  0.2049876436209059    0.19611208826040438    0.18417464162213434    0.17055937585374334    0.15673251774800784    
  0.1440687018656443    0.13375942400770335    0.12677862993737    0.12387745558662674    0.12561016472246078    
  0.13238933466597957    0.14452942284666395    0.16222194062724488    0.18541876761358433    0.21364558508735776    
  0.24579501592528974    0.2799839173738193    0.31360387072821727    0.34365855698763637    0.3673077821115326    
  0.382363388336529    0.38752234364077087    0.39905224300217557    0.3944256869867369    0.38074790324502544    
  0.3587650307539869    0.3300311460680789    0.2969596994135956    0.26246763751422736    0.22936723743135162    
  0.19986218543121786    0.17536372707515757    0.1565736322387393    0.1436732418278307    0.13651442705152161    
  0.13476576656870326    0.1379783940853711    0.1455642198647626    0.15673251774800775    0.1704465386586103    
  0.18542455865925614    0.2001826234332855    0.21313500072986194    0.22277699531540168    0.2279237741355877    
  0.22792377413558762    0.22277699531540168    0.213135000729862    0.20018262343328547    0.18542455865925617    
  0.1704465386586103    0.15673251774800775    0.14556421986476273    0.13797839408537116    0.13476576656870326    
  0.13651442705152161    0.14367324182783067    0.15657363223873927    0.17536372707515757    0.19986218543121786    
  0.22936723743135165    0.26246763751422725    0.2969596994135956    0.33003114606807893    0.3587650307539869    
  0.38074790324502544    0.394425686986737    0.39905224300217557    0.4042235680408993    0.40056715947361304    
  0.3894507852209018    0.3707233445386764    0.34488939958240683    0.3136150999507409    0.2796185651742148    
  0.2459764015139806    0.2153481752224507    0.18956941266894958    0.16964803573786735    0.15594657928832303    
  0.14838824951035418    0.146634940337784    0.15019858354374022    0.15845098066808744    0.17055937585374334    
  0.1854245586592561    0.20167220526321566    0.21770064629226513    0.23179040463433173    0.242297638914897    
  0.24791433921610578    0.24791433921610576    0.24229763891489706    0.2317904046343318    0.21770064629226507    
  0.20167220526321566    0.18542455865925617    0.1705593758537433    0.15845098066808763    0.15019858354374027    
  0.14663494033778396    0.14838824951035418    0.15594657928832298    0.1696480357378673    0.18956941266894958    
  0.2153481752224507    0.24597640151398065    0.27961856517421474    0.3136150999507408    0.34488939958240694    
  0.3707233445386764    0.3894507852209018    0.4005671594736131    0.4042235680408993    0.4013853644959569    
  0.3990638118110366    0.3915219718737426    0.37747765387938564    0.35605469123085665    0.3278676555861852    
  0.29528449569867266    0.2616707414233743    0.23025467678781322    0.20339644761875572    0.18246263843019056    
  0.16802115796779088    0.16008579117648097    0.15832941352080304    0.1622354884649351    0.17114052011824085    
  0.18417464162213426    0.20018262343328552    0.21770064629226507    0.23500579241850011    0.25023831345444436    
  0.2616120430897656    0.2676977186141152    0.2676977186141151    0.2616120430897656    0.2502383134544444    
  0.23500579241850006    0.21770064629226507    0.2001826234332855    0.18417464162213423    0.17114052011824096    
  0.16223548846493513    0.15832941352080301    0.16008579117648097    0.16802115796779082    0.18246263843019062    
  0.20339644761875572    0.23025467678781322    0.2616707414233744    0.2952844956986726    0.3278676555861852    
  0.3560546912308567    0.37747765387938564    0.3915219718737426    0.39906381181103673    0.4013853644959569    
  0.39238553094926215    0.3915052183922836    0.3878724137192765    0.37907903119165337    0.3627969845482544    
  0.33844799672325987    0.30792481486257434    0.2748417042838277    0.2430230570824769    0.21538706843216798    
  0.1936662687473319    0.17862728984750195    0.17037589789104343    0.16860991197466252    0.17280187042904926    
  0.18226754565412942    0.19611208826040433    0.213135000729862    0.2317904046343318    0.25023831345444447    
  0.2664856449438327    0.27861993546418024    0.2851131713968689    0.28511317139686887    0.2786199354641802    
  0.2664856449438327    0.2502383134544444    0.2317904046343318    0.213135000729862    0.1961120882604043    
  0.18226754565412956    0.1728018704290493    0.16860991197466252    0.17037589789104343    0.17862728984750192    
  0.19366626874733187    0.21538706843216798    0.2430230570824769    0.2748417042838277    0.30792481486257434    
  0.3384479967232598    0.36279698454825443    0.3790790311916533    0.3878724137192765    0.39150521839228364    
  0.39238553094926215    0.3818842953033937    0.3822080123184211    0.38187761808280557    0.377613284854229    
  0.36589566848597427    0.3450952066105353    0.316625834030546    0.2842639826040868    0.252332284777517    
  0.22422822057873182    0.20199083853523073    0.18654421459781198    0.1780670374851359    0.17628443710676595    
  0.18067238830819357    0.19054204454194912    0.20498764362090593    0.22277699531540177    0.242297638914897    
  0.26161204308976566    0.27861993546418024    0.2913156214002947    0.29810591355377486    0.29810591355377486    
  0.29131562140029466    0.2786199354641803    0.26161204308976566    0.242297638914897    0.22277699531540182    
  0.2049876436209059    0.19054204454194923    0.18067238830819357    0.17628443710676595    0.17806703748513594    
  0.18654421459781198    0.2019908385352307    0.22422822057873182    0.25233228477751696    0.2842639826040868    
  0.31662583403054595    0.3450952066105352    0.36589566848597427    0.37761328485422896    0.3818776180828055    
  0.3822080123184212    0.3818842953033937    0.3750219491746136    0.37602380651894013    0.3775682857100421    
  0.3759122626840331    0.36687325039267177    0.3482052057918604    0.3210170127299175    0.28915773812701817    
  0.2572331595075234    0.22891975866789108    0.2064327790254312    0.1907830618975742    0.18218873618002282    
  0.18039228761544127    0.18487644601416225    0.19495511665132007    0.20972039107766013    0.22792377413558768    
  0.24791433921610576    0.2676977186141151    0.28511317139686876    0.29810591355377464    0.30505175159706227    
  0.3050517515970622    0.29810591355377464    0.28511317139686876    0.26769771861411507    0.24791433921610576    
  0.2279237741355877    0.20972039107766013    0.19495511665132015    0.18487644601416234    0.18039228761544118    
  0.18218873618002288    0.19078306189757416    0.20643277902543122    0.22891975866789108    0.25723315950752335    
  0.2891577381270182    0.32101701272991734    0.3482052057918604    0.36687325039267177    0.3759122626840331    
  0.3775682857100421    0.3760238065189402    0.3750219491746136    0.3750219491746136    0.37602380651894013    
  0.37756828571004203    0.37591226268403305    0.36687325039267177    0.3482052057918604    0.3210170127299175    
  0.28915773812701817    0.2572331595075234    0.22891975866789102    0.2064327790254312    0.19078306189757419    
  0.18218873618002282    0.18039228761544127    0.18487644601416225    0.19495511665132007    0.20972039107766013    
  0.22792377413558762    0.2479143392161057    0.2676977186141151    0.28511317139686876    0.2981059135537747    
  0.30505175159706227    0.3050517515970622    0.29810591355377475    0.28511317139686887    0.26769771861411507    
  0.2479143392161057    0.22792377413558762    0.2097203910776601    0.19495511665132015    0.1848764460141623    
  0.18039228761544124    0.18218873618002285    0.19078306189757416    0.20643277902543122    0.22891975866789102    
  0.25723315950752335    0.28915773812701817    0.3210170127299174    0.3482052057918604    0.3668732503926718    
  0.37591226268403305    0.37756828571004203    0.3760238065189402    0.3750219491746136    0.3818842953033937    
  0.38220801231842116    0.38187761808280557    0.377613284854229    0.36589566848597427    0.3450952066105352    
  0.31662583403054606    0.2842639826040868    0.25233228477751696    0.22422822057873182    0.20199083853523067    
  0.18654421459781198    0.1780670374851359    0.176284437106766    0.18067238830819346    0.1905420445419491    
  0.2049876436209059    0.22277699531540174    0.24229763891489706    0.26161204308976566    0.27861993546418024    
  0.2913156214002947    0.29810591355377486    0.29810591355377475    0.2913156214002947    0.27861993546418024    
  0.2616120430897656    0.242297638914897    0.22277699531540174    0.2049876436209059    0.19054204454194917    
  0.18067238830819357    0.176284437106766    0.17806703748513592    0.18654421459781198    0.20199083853523067    
  0.22422822057873182    0.25233228477751696    0.2842639826040868    0.316625834030546    0.34509520661053517    
  0.3658956684859743    0.377613284854229    0.3818776180828055    0.3822080123184212    0.3818842953033937    
  0.39238553094926215    0.3915052183922836    0.3878724137192766    0.37907903119165337    0.3627969845482544    
  0.3384479967232598    0.3079248148625744    0.2748417042838277    0.243023057082477    0.21538706843216798    
  0.1936662687473319    0.17862728984750195    0.17037589789104338    0.1686099119746626    0.17280187042904926    
  0.18226754565412945    0.19611208826040433    0.213135000729862    0.2317904046343318    0.25023831345444447    
  0.26648564494383264    0.2786199354641802    0.28511317139686887    0.28511317139686887    0.2786199354641802    
  0.26648564494383276    0.25023831345444447    0.2317904046343318    0.213135000729862    0.1961120882604043    
  0.18226754565412953    0.17280187042904932    0.16860991197466255    0.17037589789104338    0.17862728984750192    
  0.19366626874733192    0.21538706843216798    0.24302305708247696    0.27484170428382776    0.30792481486257434    
  0.33844799672325976    0.36279698454825443    0.37907903119165337    0.3878724137192766    0.39150521839228364    
  0.39238553094926215    0.40138536449595696    0.3990638118110366    0.3915219718737426    0.37747765387938564    
  0.35605469123085665    0.3278676555861852    0.2952844956986727    0.2616707414233743    0.2302546767878132    
  0.2033964476187557    0.18246263843019056    0.16802115796779088    0.16008579117648095    0.15832941352080304    
  0.1622354884649351    0.1711405201182409    0.1841746416221343    0.20018262343328552    0.21770064629226507    
  0.23500579241850017    0.25023831345444436    0.2616120430897656    0.2676977186141151    0.26769771861411507    
  0.2616120430897656    0.25023831345444436    0.23500579241850006    0.21770064629226504    0.20018262343328552    
  0.18417464162213426    0.17114052011824096    0.16223548846493513    0.15832941352080301    0.16008579117648097    
  0.16802115796779082    0.1824626384301906    0.2033964476187557    0.2302546767878132    0.26167074142337443    
  0.2952844956986726    0.32786765558618514    0.3560546912308567    0.3774776538793857    0.3915219718737426    
  0.3990638118110367    0.40138536449595696    0.4042235680408993    0.40056715947361304    0.3894507852209018    
  0.3707233445386764    0.3448893995824069    0.3136150999507409    0.2796185651742148    0.2459764015139806    
  0.2153481752224507    0.18956941266894958    0.16964803573786735    0.15594657928832303    0.14838824951035418    
  0.146634940337784    0.15019858354374022    0.1584509806680875    0.17055937585374334    0.1854245586592561    
  0.20167220526321566    0.21770064629226513    0.23179040463433173    0.242297638914897    0.24791433921610578    