#     DFTpy    
  CRYSTAL 
    
  PRIMVEC    
  4.146551724137931    0.0    0.0    
  0.0    4.146551724137931    0.0    
  0.0    0.0    2.2844827586206904    
  PRIMCOORD    
  4    1    
  Si    0.0    0.0    0.0    
  Si    2.073275862068971    2.073275862068971    1.1422413793103403    
  Si    0.0    2.073275862068971    0.5711206896551702    
  Si    2.073275862068971    0.0    1.7133620689655205    
  BEGIN_BLOCK_DATAGRID_3D    
  3d_datagrid_density    
  BEGIN_DATAGRID_3D#0    
  41    41    25    
  0.0    0.0    0.0    
  4.146551739604647    0.0    0.0    
  0.0    4.146551739604647    0.0    
  0.0    0.0    2.2844827671418546    
  0.04782763330515968    0.056294691859495344    0.08540744496693287    0.14378160707179266    0.2363073555485668    
  0.3529027011316121    0.467553962275774    0.5536999052010982    0.6010998879530018    0.6172498252486185    
  0.6163464825071214    0.6092577954136779    0.6002670155633171    0.5881075967239786    0.5685627061528226    
  0.5381009279749783    0.4974879297829895    0.4528231012978141    0.412993482184503    0.38590627585213194    
  0.37636868837517606    0.3859062758521319    0.412993482184503    0.4528231012978141    0.4974879297829895    
  0.5381009279749783    0.5685627061528226    0.5881075967239786    0.6002670155633172    0.6092577954136777    
  0.6163464825071214    0.6172498252486185    0.6010998879530018    0.5536999052010982    0.467553962275774    
  0.3529027011316121    0.2363073555485668    0.1437816070717927    0.08540744496693287    0.05629469185949539    
  0.04782763330515968    0.056294691859495254    0.0653284559897399    0.09586014052679324    0.15553781281297352    
  0.24773752920490916    0.3613475270647808    0.47092060204741226    0.551732063427227    0.5951441365979886    
  0.6090892847124953    0.6073362482235378    0.6001896415897716    0.591646779314994    0.5804593770442051    
  0.562555627089954    0.5344309993643298    0.49659053658733476    0.45463895979906094    0.4169779935470503    
  0.3912375678646673    0.38214950119905927    0.3912375678646673    0.41697799354705034    0.45463895979906094    
  0.49659053658733476    0.5344309993643298    0.562555627089954    0.5804593770442051    0.5916467793149941    
  0.6001896415897715    0.6073362482235378    0.6090892847124953    0.5951441365979886    0.551732063427227    
  0.4709206020474124    0.3613475270647808    0.2477375292049092    0.15553781281297352    0.09586014052679322    
  0.06532845598973985    0.056294691859495254    0.08540744496693296    0.09586014052679324    0.12972028728327448    
  0.19173442420887715    0.28124068626896176    0.3848936957174142    0.47938675617900667    0.5451289619067441    
  0.5775697002009511    0.5855213259125868    0.5814528852235437    0.5741295347383427    0.5667884675510347    
  0.5582321721696505    0.5447869103936641    0.5230548723079991    0.49288459477544627    0.4585547634974427    
  0.4270929935739073    0.4052657328550433    0.3974972398152741    0.4052657328550433    0.4270929935739073    
  0.45855476349744284    0.49288459477544627    0.5230548723079991    0.5447869103936641    0.5582321721696506    
  0.5667884675510347    0.5741295347383427    0.5814528852235437    0.5855213259125868    0.5775697002009511    
  0.5451289619067441    0.47938675617900667    0.3848936957174142    0.28124068626896176    0.19173442420887718    
  0.12972028728327448    0.09586014052679324    0.08540744496693296    0.1437816070717927    0.15553781281297346    
  0.19173442420887707    0.25279188485276394    0.33313916245337905    0.41803735408844006    0.48855347890389744    
  0.5322682241315952    0.5494006313574153    0.5491603150282637    0.5419089514578966    0.53429868948043    
  0.5285715823722628    0.5235957169838372    0.5162431083515682    0.503341688576471    0.4839758961421404    
  0.46066903799435077    0.43844211462730615    0.42260366040877323    0.4168884618945181    0.42260366040877323    
  0.4384421146273062    0.4606690379943508    0.4839758961421404    0.503341688576471    0.5162431083515683    
  0.5235957169838373    0.5285715823722628    0.53429868948043    0.5419089514578965    0.5491603150282636    
  0.5494006313574153    0.5322682241315954    0.48855347890389744    0.4180373540884401    0.3331391624533791    
  0.252791884852764    0.1917344242088771    0.15553781281297346    0.1437816070717927    0.23630735554856686    
  0.24773752920490924    0.28124068626896176    0.33313916245337893    0.3945643461430196    0.45202437405828527    
  0.49285603441588044    0.5118200744675228    0.5126926643944482    0.5039521907504549    0.4933624503300877    
  0.48540037482044596    0.48133662063553373    0.48008771480422263    0.47907606802991665    0.47545845275415766    
  0.46770696822197344    0.45661929484563335    0.4449834414441745    0.43622367644552906    0.43297977389252096    
  0.4362236764455292    0.4449834414441745    0.45661929484563335    0.46770696822197344    0.47545845275415766    
  0.47907606802991676    0.48008771480422263    0.48133662063553373    0.48540037482044596    0.4933624503300877    
  0.5039521907504549    0.5126926643944482    0.5118200744675228    0.49285603441588044    0.45202437405828527    
  0.3945643461430196    0.33313916245337893    0.28124068626896176    0.24773752920490924    0.23630735554856686    
  0.3529027011316121    0.3613475270647808    0.3848936957174142    0.41803735408844006    0.45202437405828527    
  0.47737798069753096    0.4880256324751015    0.48404379786768414    0.4706474299419089    0.4545887927508135    
  0.44107640592296415    0.43277236318463896    0.4301712274914223    0.43219699045517995    0.43670933616636354    
  0.44121400042849734    0.44381341031249527    0.4439234801608667    0.44229985453351667    0.4404165148146746    
  0.4396121686556576    0.4404165148146746    0.44229985453351667    0.4439234801608667    0.44381341031249527    
  0.44121400042849734    0.43670933616636354    0.43219699045517995    0.4301712274914223    0.43277236318463896    
  0.44107640592296415    0.4545887927508135    0.4706474299419089    0.48404379786768414    0.4880256324751016    
  0.47737798069753096    0.45202437405828527    0.41803735408844006    0.3848936957174142    0.3613475270647808    
  0.3529027011316121    0.4675539622757741    0.4709206020474122    0.4793867561790068    0.4885534789038975    
  0.49285603441588044    0.4880256324751016    0.47321435377476034    0.45130750777726897    0.42724759057025274    
  0.405775798102996    0.390061785977406    0.3814974688519159    0.38004608999198    0.38460831539957996    
  0.393331181542386    0.40399915788798313    0.41452262958519215    0.4233629722106419    0.4297209169005618    
  0.4334304360414843    0.4346340992459366    0.4334304360414843    0.4297209169005618    0.4233629722106419    
  0.41452262958519215    0.40399915788798313    0.393331181542386    0.38460831539957996    0.3800460899919799    
  0.3814974688519158    0.390061785977406    0.40577579810299585    0.42724759057025274    0.45130750777726897    
  0.47321435377476034    0.4880256324751016    0.49285603441588044    0.4885534789038975    0.4793867561790068    
  0.47092060204741226    0.4675539622757741    0.5536999052010982    0.551732063427227    0.5451289619067441    
  0.5322682241315951    0.5118200744675228    0.48404379786768414    0.45130750777726886    0.4174498204956889    
  0.386484030754836    0.36152705028232246    0.34439579942641835    0.33569847467785713    0.3350725451133666    
  0.34140225586624295    0.3530125338151753    0.36786048880444644    0.38373606904669716    0.39849422009799496    
  0.41031178656463946    0.41788631404555915    0.4204868964468012    0.41788631404555915    0.41031178656463946    
  0.39849422009799496    0.38373606904669716    0.36786048880444644    0.35301253381517533    0.34140225586624295    
  0.3350725451133666    0.33569847467785713    0.3443957994264183    0.3615270502823224    0.386484030754836    
  0.4174498204956889    0.45130750777726886    0.48404379786768414    0.5118200744675228    0.5322682241315952    
  0.5451289619067441    0.5517320634272271    0.5536999052010982    0.6010998879530016    0.5951441365979886    
  0.577569700200951    0.5494006313574153    0.5126926643944482    0.4706474299419089    0.42724759057025286    
  0.38648403075483606    0.3515983160420679    0.32471199332016226    0.30685513791359287    0.29816821358123047    
  0.29809897055835993    0.3055495623146289    0.31897175246302856    0.3364106398210735    0.35555186283827406    
  0.373876995445492    0.38896721900504566    0.39885756556321805    0.4022960814708641    0.39885756556321805    
  0.3889672190050456    0.373876995445492    0.35555186283827406    0.3364106398210735    0.3189717524630286    
  0.3055495623146288    0.2980989705583599    0.29816821358123047    0.30685513791359287    0.3247119933201622    
  0.3515983160420679    0.38648403075483606    0.42724759057025286    0.4706474299419089    0.5126926643944482    
  0.5494006313574153    0.577569700200951    0.5951441365979886    0.6010998879530016    0.6172498252486185    
  0.6090892847124953    0.5855213259125868    0.5491603150282636    0.5039521907504548    0.4545887927508135    
  0.40577579810299597    0.3615270502823224    0.3247119933201622    0.29696947195354706    0.2789014936424202    
  0.27036011314465735    0.2706827338047179    0.27881295772041376    0.2933002080040104    0.3122293557395379    
  0.3331990463315266    0.3534725195912574    0.37032072511088804    0.3814447254311314    0.3853283175007363    
  0.3814447254311314    0.37032072511088804    0.3534725195912574    0.3331990463315266    0.312229355739538    
  0.2933002080040104    0.27881295772041376    0.2706827338047179    0.27036011314465735    0.27890149364242006    
  0.296969471953547    0.3247119933201622    0.3615270502823224    0.40577579810299597    0.4545887927508135    
  0.5039521907504548    0.5491603150282636    0.5855213259125868    0.6090892847124955    0.6172498252486185    
  0.6163464825071215    0.6073362482235378    0.5814528852235437    0.5419089514578965    0.4933624503300877    
  0.4410764059229642    0.390061785977406    0.3443957994264184    0.30685513791359287    0.2789014936424202    
  0.2609348636486145    0.25264963213664965    0.25332291732377243    0.2619268875579861    0.27706274539550896    
  0.29682464567671035    0.31875618706005715    0.3400143836922493    0.357731805029982    0.36946027435888446    
  0.37356140587918196    0.36946027435888446    0.357731805029982    0.3400143836922493    0.31875618706005715    
  0.29682464567671035    0.2770627453955089    0.2619268875579861    0.25332291732377243    0.25264963213664965    
  0.2609348636486145    0.27890149364242006    0.30685513791359287    0.3443957994264184    0.390061785977406    
  0.4410764059229642    0.4933624503300877    0.5419089514578965    0.5814528852235437    0.6073362482235378    
  0.6163464825071215    0.609257795413678    0.6001896415897715    0.5741295347383426    0.53429868948043    
  0.48540037482044607    0.4327723631846388    0.38149746885191577    0.33569847467785713    0.29816821358123047    
  0.27036011314465747    0.2526496321366496    0.24470441216832198    0.24578509716393088    0.254855953736995    
  0.27050659120162956    0.29081005545257765    0.31328433929683824    0.335057389325477    0.3532184497631387    
  0.3652562685773291    0.3694695241541894    0.3652562685773291    0.3532184497631388    0.335057389325477    
  0.31328433929683824    0.29081005545257765    0.27050659120162956    0.254855953736995    0.24578509716393088    
  0.24470441216832198    0.25264963213664954    0.27036011314465735    0.29816821358123047    0.33569847467785713    
  0.38149746885191577    0.4327723631846389    0.48540037482044607    0.53429868948043    0.5741295347383426    
  0.6001896415897715    0.609257795413678    0.6002670155633173    0.5916467793149942    0.5667884675510346    
  0.5285715823722629    0.48133662063553373    0.43017122749142217    0.3800460899919799    0.3350725451133666    
  0.29809897055835993    0.2706827338047179    0.2533229173237725    0.24578509716393082    0.24736498581389815    
  0.2569963625009988    0.2732059783003997    0.29401693269963214    0.3169352877921992    0.3391012776604754    
  0.3576015220243222    0.36988358157186835    0.3741875438410212    0.36988358157186835    0.3576015220243222    
  0.33910127766047543    0.3169352877921992    0.2940169326996322    0.2732059783003997    0.2569963625009988    
  0.24736498581389815    0.24578509716393088    0.25332291732377243    0.27068273380471786    0.29809897055835993    
  0.3350725451133666    0.3800460899919799    0.43017122749142217    0.48133662063553373    0.5285715823722629    
  0.5667884675510347    0.5916467793149942    0.6002670155633173    0.5881075967239786    0.5804593770442054    
  0.5582321721696506    0.5235957169838373    0.48008771480422263    0.43219699045517995    0.38460831539957996    
  0.341402255866243    0.3055495623146288    0.278812957720414    0.26192688755798615    0.25485595373699504    
  0.25699636250099883    0.26726980260093597    0.2841267036125525    0.30552498665233024    0.32896123940376887    
  0.35160178339210263    0.37053291423022705    0.3831382488192937    0.38756480583186476    0.3831382488192937    
  0.37053291423022705    0.35160178339210263    0.32896123940376887    0.30552498665233024    0.28412670361255254    
  0.2672698026009359    0.25699636250099883    0.25485595373699504    0.2619268875579861    0.27881295772041387    
  0.3055495623146288    0.341402255866243    0.38460831539957996    0.43219699045517995    0.48008771480422263    
  0.5235957169838372    0.5582321721696506    0.5804593770442054    0.5881075967239786    0.5685627061528226    
  0.5625556270899541    0.5447869103936641    0.5162431083515683    0.47907606802991676    0.43670933616636354    
  0.3933311815423861    0.3530125338151754    0.31897175246302856    0.29330020800401047    0.27706274539550896    
  0.2705065912016296    0.2732059783003998    0.2841267036125525    0.30166766419826435    0.3237259096958415    
  0.34778972877862585    0.3710502705257956    0.39057404753967345    0.4036353835227931    0.4082364845356094    
  0.4036353835227932    0.3905740475396735    0.3710502705257956    0.34778972877862585    0.3237259096958414    
  0.30166766419826446    0.2841267036125525    0.2732059783003998    0.2705065912016296    0.27706274539550896    
  0.2933002080040104    0.31897175246302856    0.3530125338151754    0.3933311815423861    0.43670933616636354    
  0.47907606802991676    0.5162431083515683    0.5447869103936641    0.562555627089954    0.5685627061528226    
  0.5381009279749782    0.5344309993643298    0.523054872307999    0.5033416885764709    0.47545845275415755    
  0.44121400042849734    0.4039991578879831    0.3678604888044464    0.3364106398210735    0.312229355739538    
  0.2968246456767104    0.29081005545257765    0.2940169326996321    0.30552498665233013    0.3237259096958415    
  0.34647229193310175    0.3712427133820512    0.3952400545526969    0.4154844909256914    0.429103021187831    
  0.43391732710638153    0.429103021187831    0.4154844909256914    0.3952400545526969    0.3712427133820512    
  0.34647229193310175    0.3237259096958416    0.3055249866523302    0.2940169326996321    0.29081005545257765    
  0.2968246456767104    0.312229355739538    0.3364106398210735    0.3678604888044464    0.4039991578879831    
  0.44121400042849734    0.47545845275415755    0.5033416885764709    0.523054872307999    0.5344309993643298    
  0.5381009279749782    0.4974879297829895    0.4965905365873349    0.4928845947754462    0.4839758961421404    
  0.4677069682219734    0.4438134103124954    0.4145226295851921    0.38373606904669716    0.35555186283827417    
  0.3331990463315265    0.31875618706005715    0.31328433929683824    0.31693528779219926    0.3289612394037688    
  0.34778972877862585    0.3712427133820514    0.39677367242373485    0.42156728956431383    0.4425734732025852    
  0.4567669976438465    0.46179833628285993    0.4567669976438465    0.4425734732025852    0.42156728956431383    
  0.39677367242373485    0.37124271338205134    0.3477897287786259    0.32896123940376887    0.3169352877921993    
  0.3132843392968383    0.3187561870600571    0.3331990463315265    0.35555186283827417    0.38373606904669716    
  0.4145226295851921    0.4438134103124954    0.4677069682219734    0.4839758961421404    0.4928845947754462    
  0.4965905365873349    0.4974879297829895    0.4528231012978141    0.45463895979906094    0.45855476349744273    
  0.46066903799435077    0.45661929484563335    0.4439234801608667    0.4233629722106419    0.39849422009799484    
  0.373876995445492    0.35347251959125753    0.34001438369224934    0.33505738932547713    0.3391012776604754    
  0.3516017833921025    0.3710502705257956    0.39524005455269684    0.42156728956431383    0.44715537301468605    
  0.4688697414009384    0.48356681872692187    0.48878219432705144    0.48356681872692187    0.4688697414009384    
  0.44715537301468594    0.42156728956431383    0.39524005455269684    0.37105027052579564    0.3516017833921025    
  0.3391012776604754    0.33505738932547713    0.34001438369224934    0.3534725195912574    0.373876995445492    
  0.3984942200979949    0.4233629722106419    0.4439234801608667    0.45661929484563335    0.46066903799435077    
  0.45855476349744284    0.45463895979906094    0.4528231012978141    0.4129934821845031    0.4169779935470504    
  0.4270929935739073    0.43844211462730615    0.4449834414441745    0.4422998545335167    0.4297209169005617    
  0.41031178656463946    0.38896721900504583    0.37032072511088804    0.357731805029982    0.3532184497631387    
  0.3576015220243222    0.37053291423022694    0.3905740475396735    0.4154844909256915    0.4425734732025854    
  0.4688697414009384    0.4911563840657079    0.5062251053000321    0.5115692642504335    0.5062251053000321    
  0.49115638406570794    0.4688697414009384    0.4425734732025854    0.4154844909256915    0.3905740475396735    
  0.370532914230227    0.3576015220243222    0.353218449763139    0.357731805029982    0.3703207251108881    
  0.38896721900504583    0.41031178656463946    0.4297209169005617    0.4422998545335167    0.4449834414441745    
  0.43844211462730615    0.4270929935739073    0.4169779935470504    0.4129934821845031    0.3859062758521319    
  0.39123756786466735    0.4052657328550433    0.4226036604087734    0.43622367644552934    0.4404165148146746    
  0.4334304360414843    0.4178863140455592    0.3988575655632181    0.3814447254311315    0.36946027435888457    
  0.3652562685773292    0.36988358157186835    0.3831382488192937    0.4036353835227931    0.429103021187831    
  0.4567669976438464    0.48356681872692187    0.5062251053000321    0.5215126154391091    0.5269277281730508    
  0.521512615439109    0.5062251053000321    0.48356681872692187    0.4567669976438464    0.429103021187831    
  0.40363538352279316    0.3831382488192937    0.3698835815718684    0.3652562685773292    0.3694602743588845    
  0.3814447254311315    0.3988575655632181    0.4178863140455592    0.4334304360414843    0.4404165148146746    
  0.4362236764455293    0.4226036604087734    0.4052657328550433    0.3912375678646674    0.3859062758521319    
  0.37636868837517606    0.3821495011990594    0.397497239815274    0.4168884618945181    0.432979773892521    
  0.4396121686556575    0.4346340992459365    0.42048689644680115    0.4022960814708641    0.3853283175007362    
  0.3735614058791819    0.3694695241541894    0.3741875438410213    0.3875648058318647    0.4082364845356093    
  0.43391732710638153    0.4617983362828599    0.48878219432705144    0.5115692642504335    0.5269277281730507    
  0.5323647037760411    0.5269277281730507    0.5115692642504335    0.48878219432705144    0.4617983362828599    
  0.43391732710638153    0.40823648453560935    0.38756480583186476    0.3741875438410213    0.36946952415418943    
  0.3735614058791818    0.3853283175007363    0.4022960814708641    0.4204868964468012    0.4346340992459365    
  0.4396121686556575    0.43297977389252096    0.4168884618945181    0.397497239815274    0.3821495011990593    
  0.37636868837517606    0.38590627585213194    0.39123756786466735    0.40526573285504336    0.4226036604087733    
  0.4362236764455293    0.4404165148146746    0.4334304360414843    0.4178863140455592    0.39885756556321805    
  0.3814447254311315    0.36946027435888457    0.3652562685773292    0.3698835815718684    0.38313824881929365    
  0.4036353835227931    0.4291030211878311    0.4567669976438464    0.4835668187269219    0.5062251053000321    
  0.5215126154391091    0.5269277281730508    0.521512615439109    0.5062251053000321    0.4835668187269219    
  0.4567669976438464    0.42910302118783095    0.40363538352279316    0.38313824881929365    0.3698835815718684    
  0.3652562685773292    0.36946027435888457    0.3814447254311315    0.39885756556321805    0.4178863140455592    
  0.4334304360414843    0.4404165148146746    0.4362236764455293    0.4226036604087733    0.40526573285504325    
  0.3912375678646674    0.38590627585213194    0.41299348218450316    0.4169779935470503    0.4270929935739074    
  0.43844211462730615    0.4449834414441745    0.4422998545335167    0.4297209169005618    0.4103117865646395    
  0.38896721900504583    0.37032072511088804    0.357731805029982    0.3532184497631387    0.3576015220243222    
  0.37053291423022694    0.3905740475396735    0.4154844909256915    0.4425734732025853    0.4688697414009384    
  0.4911563840657079    0.5062251053000321    0.5115692642504335    0.5062251053000321    0.4911563840657079    
  0.4688697414009384    0.4425734732025853    0.4154844909256915    0.3905740475396735    0.370532914230227    
  0.3576015220243222    0.3532184497631389    0.35773180502998186    0.3703207251108881    0.38896721900504583    
  0.4103117865646395    0.4297209169005618    0.4422998545335167    0.4449834414441745    0.43844211462730615    
  0.4270929935739075    0.4169779935470503    0.41299348218450316    0.4528231012978141    0.45463895979906105    
  0.45855476349744273    0.46066903799435077    0.45661929484563335    0.4439234801608667    0.4233629722106419    
  0.39849422009799496    0.373876995445492    0.35347251959125753    0.34001438369224934    0.33505738932547713    
  0.33910127766047543    0.35160178339210263    0.3710502705257956    0.39524005455269695    0.42156728956431383    
  0.4471553730146861    0.4688697414009384    0.48356681872692187    0.4887821943270515    0.48356681872692187    
  0.4688697414009383    0.44715537301468605    0.42156728956431383    0.39524005455269684    0.37105027052579576    
  0.35160178339210263    0.33910127766047543    0.33505738932547713    0.34001438369224934    0.35347251959125753    
  0.373876995445492    0.39849422009799496    0.4233629722106419    0.4439234801608667    0.45661929484563335    
  0.46066903799435077    0.45855476349744273    0.45463895979906094    0.4528231012978141    0.4974879297829895    
  0.4965905365873349    0.4928845947754462    0.4839758961421404    0.4677069682219734    0.4438134103124954    
  0.4145226295851921    0.38373606904669716    0.35555186283827417    0.3331990463315265    0.31875618706005715    
  0.31328433929683824    0.31693528779219926    0.3289612394037688    0.34778972877862585    0.3712427133820514    
  0.39677367242373485    0.42156728956431383    0.4425734732025852    0.4567669976438465    0.46179833628285993    
  0.4567669976438465    0.4425734732025852    0.42156728956431383    0.39677367242373485    0.37124271338205134    
  0.3477897287786259    0.32896123940376887    0.3169352877921993    0.3132843392968383    0.3187561870600571    
  0.3331990463315265    0.35555186283827417    0.38373606904669716    0.4145226295851921    0.4438134103124954    
  0.4677069682219734    0.4839758961421404    0.4928845947754462    0.4965905365873349    0.4974879297829895    
  0.5381009279749783    0.5344309993643298    0.5230548723079991    0.5033416885764709    0.47545845275415766    
  0.44121400042849734    0.40399915788798313    0.3678604888044464    0.3364106398210735    0.312229355739538    
  0.2968246456767104    0.2908100554525776    0.29401693269963214    0.3055249866523301    0.3237259096958415    
  0.34647229193310175    0.37124271338205134    0.39524005455269684    0.41548449092569145    0.429103021187831    
  0.43391732710638153    0.429103021187831    0.41548449092569145    0.39524005455269684    0.37124271338205134    
  0.34647229193310175    0.3237259096958416    0.30552498665233013    0.2940169326996322    0.2908100554525777    
  0.2968246456767104    0.31222935573953786    0.3364106398210735    0.3678604888044464    0.4039991578879831    
  0.44121400042849734    0.47545845275415755    0.5033416885764709    0.5230548723079991    0.5344309993643298    
  0.5381009279749783    0.5685627061528226    0.5625556270899541    0.5447869103936641    0.5162431083515683    
  0.47907606802991676    0.43670933616636354    0.393331181542386    0.3530125338151754    0.31897175246302856    
  0.29330020800401047    0.27706274539550907    0.2705065912016297    0.2732059783003998    0.28412670361255243    
  0.3016676641982643    0.3237259096958415    0.34778972877862585    0.37105027052579553    0.39057404753967345    
  0.403635383522793    0.4082364845356094    0.40363538352279316    0.3905740475396735    0.37105027052579553    
  0.34778972877862585    0.3237259096958415    0.30166766419826446    0.2841267036125525    0.2732059783003997    
  0.2705065912016297    0.27706274539550896    0.29330020800401047    0.31897175246302856    0.3530125338151754    
  0.393331181542386    0.43670933616636354    0.47907606802991676    0.5162431083515683    0.5447869103936641    
  0.5625556270899541    0.5685627061528226    0.5881075967239786    0.5804593770442052    0.5582321721696506    
  0.5235957169838372    0.48008771480422274    0.43219699045517995    0.38460831539957996    0.341402255866243    
  0.3055495623146288    0.27881295772041387    0.2619268875579861    0.25485595373699504    0.25699636250099883    
  0.26726980260093597    0.2841267036125525    0.30552498665233024    0.32896123940376887    0.3516017833921027    
  0.37053291423022694    0.3831382488192938    0.38756480583186476    0.38313824881929376    0.37053291423022694    
  0.35160178339210263    0.32896123940376887    0.30552498665233024    0.28412670361255254    0.26726980260093597    
  0.25699636250099883    0.2548559537369951    0.2619268875579861    0.27881295772041387    0.3055495623146288    
  0.341402255866243    0.38460831539957996    0.43219699045517995    0.48008771480422274    0.5235957169838372    
  0.5582321721696506    0.5804593770442052    0.5881075967239786    0.6002670155633173    0.5916467793149941    
  0.5667884675510347    0.5285715823722629    0.48133662063553373    0.43017122749142217    0.3800460899919799    
  0.33507254511336654    0.29809897055835993    0.27068273380471797    0.25332291732377243    0.24578509716393088    
  0.24736498581389824    0.2569963625009988    0.27320597830039955    0.29401693269963214    0.31693528779219915    
  0.3391012776604753    0.35760152202432216    0.36988358157186835    0.3741875438410212    0.3698835815718683    
  0.35760152202432216    0.3391012776604754    0.31693528779219915    0.29401693269963214    0.27320597830039967    
  0.2569963625009988    0.2473649858138982    0.24578509716393088    0.2533229173237724    0.27068273380471786    
  0.29809897055835993    0.3350725451133665    0.3800460899919799    0.4301712274914223    0.48133662063553373    
  0.5285715823722629    0.5667884675510347    0.5916467793149942    0.6002670155633173    0.6092577954136779    
  0.6001896415897716    0.5741295347383426    0.5342986894804299    0.48540037482044607    0.4327723631846388    
  0.38149746885191577    0.33569847467785713    0.29816821358123047    0.27036011314465747    0.2526496321366497    
  0.24470441216832192    0.24578509716393093    0.254855953736995    0.27050659120162956    0.2908100554525777    
  0.3132843392968383    0.33505738932547713    0.35321844976313876    0.3652562685773291    0.36946952415418943    
  0.3652562685773291    0.3532184497631387    0.3350573893254772    0.3132843392968383    0.2908100554525777    
  0.2705065912016296    0.254855953736995    0.24578509716393093    0.24470441216832192    0.2526496321366496    
  0.27036011314465735    0.29816821358123047    0.33569847467785713    0.38149746885191577    0.4327723631846388    
  0.48540037482044596    0.5342986894804299    0.5741295347383426    0.6001896415897717    0.6092577954136779    
  0.6163464825071215    0.6073362482235378    0.5814528852235437    0.5419089514578965    0.4933624503300877    
  0.4410764059229642    0.390061785977406    0.3443957994264184    0.30685513791359287    0.2789014936424202    
  0.2609348636486145    0.25264963213664965    0.25332291732377243    0.2619268875579861    0.27706274539550885    
  0.29682464567671035    0.31875618706005715    0.3400143836922493    0.3577318050299819    0.36946027435888457    
  0.3735614058791819    0.36946027435888457    0.3577318050299819    0.3400143836922493    0.31875618706005715    
  0.2968246456767104    0.27706274539550896    0.26192688755798604    0.2533229173237724    0.2526496321366496    
  0.26093486364861446    0.27890149364242006    0.30685513791359287    0.3443957994264184    0.390061785977406    
  0.4410764059229642    0.4933624503300877    0.5419089514578965    0.5814528852235437    0.6073362482235378    
  0.6163464825071215    0.6172498252486185    0.6090892847124955    0.5855213259125868    0.5491603150282635    