#     DFTpy    
  CRYSTAL 
    
  PRIMVEC    
  4.942689655172411    0.0    0.0    
  0.0    4.942689655172411    0.0    
  0.0    0.0    2.72310344827586    
  PRIMCOORD    
  4    1    
  Si    0.0    0.0    0.0    
  Si    2.4713448275862104    2.4713448275862104    1.36155172413793    
  Si    0.0    2.4713448275862104    0.6807758620689702    
  Si    2.4713448275862104    0.0    2.042327586206901    
  BEGIN_BLOCK_DATAGRID_3D    
  3d_datagrid_density    
  BEGIN_DATAGRID_3D#0    
  49    49    26    
  0.0    0.0    0.0    
  4.942689673608737    0.0    0.0    
  0.0    4.942689673608737    0.0    
  0.0    0.0    2.723103458433088    
  0.051202142977469486    0.05895464676871346    0.08488634005990846    0.13451044017958602    0.20853079625346949    
  0.2946132528679    0.3694179621932165    0.41312560425881056    0.42195364438204397    0.40643251658902857    
  0.38096311409520206    0.35627901788351274    0.3381218609257843    0.32876237310493833    0.3283955183578724    
  0.3358566650092653    0.3489934896437702    0.36483945268682383    0.37977405451139884    0.39015780041049464    
  0.39365243317132226    0.3904956505887445    0.383582178306185    0.3770787810345102    0.3744674759868408    
  0.3770787810345102    0.383582178306185    0.39049565058874464    0.39365243317132226    0.3901578004104945    
  0.37977405451139884    0.3648394526868238    0.3489934896437702    0.33585666500926525    0.3283955183578724    
  0.3287623731049384    0.3381218609257843    0.35627901788351274    0.38096311409520206    0.40643251658902857    
  0.42195364438204397    0.4131256042588106    0.36941796219321643    0.2946132528679001    0.20853079625346949    
  0.13451044017958602    0.08488634005990846    0.05895464676871358    0.051202142977469486    0.05895464676871351    
  0.06715266743363321    0.09416393368527214    0.14466979303830108    0.2181813782892087    0.30170132847051695    
  0.37254152604471463    0.41239677471435987    0.4186182089221221    0.4018834467931252    0.37611823722025356    
  0.3515329642325141    0.3335490676628221    0.3243017214455641    0.32395528656583134    0.3313713578002169    
  0.344463967178923    0.36036808051534464    0.37558568829207156    0.38657559651081724    0.3910022997689004    
  0.3889656748586998    0.3831166610220622    0.37736907645993695    0.37502980847298384    0.37736907645993695    
  0.38311666102206215    0.3889656748586998    0.3910022997689004    0.38657559651081724    0.37558568829207156    
  0.36036808051534464    0.344463967178923    0.3313713578002169    0.32395528656583134    0.3243017214455641    
  0.3335490676628221    0.3515329642325142    0.37611823722025356    0.40188344679312527    0.4186182089221221    
  0.4123967747143599    0.37254152604471463    0.30170132847051706    0.2181813782892087    0.14466979303830105    
  0.09416393368527214    0.06715266743363328    0.05895464676871351    0.08488634005990837    0.0941639336852721    
  0.12359543694114876    0.1754245470942107    0.2460458713046527    0.3211533482595415    0.3802956758584696    
  0.4093494783423074    0.4084991089773704    0.3885680159297124    0.3620777094618848    0.3378035308339326    
  0.3203089164107665    0.311367532494223    0.3110631849432824    0.3183320108401793    0.33127078289244816    
  0.34728909802431135    0.363220331936998    0.37579699512190545    0.38270882787235216    0.3836998093874289    
  0.38076049945600904    0.3770968156592763    0.3755111991739295    0.3770968156592763    0.38076049945600904    
  0.3836998093874289    0.38270882787235216    0.3757969951219054    0.36322033193699793    0.3472890980243113    
  0.33127078289244816    0.3183320108401793    0.3110631849432824    0.311367532494223    0.3203089164107665    
  0.33780353083393255    0.3620777094618848    0.3885680159297124    0.40849910897737035    0.4093494783423074    
  0.3802956758584696    0.32115334825954156    0.2460458713046527    0.1754245470942107    0.12359543694114873    
  0.09416393368527214    0.08488634005990837    0.13451044017958597    0.14466979303830096    0.17542454709421068    
  0.22552408205194655    0.2877573059094469    0.3474415958846995    0.38827497774728364    0.4018392082134335    
  0.39145361592430433    0.3674768273623625    0.3402390238965814    0.3165319421155992    0.2997785401586358    
  0.291272710966317    0.2909927654162253    0.29798607374871755    0.3106081881140572    0.3266434959899535    
  0.3433753410210159    0.35792651399387154    0.3680668045749316    0.3731050595865538    0.37414234345926567    
  0.373373238833512    0.3728437367590327    0.37337323883351203    0.37414234345926567    0.3731050595865539    
  0.3680668045749316    0.35792651399387154    0.3433753410210159    0.32664349598995357    0.3106081881140572    
  0.29798607374871755    0.2909927654162253    0.29127271096631707    0.2997785401586358    0.3165319421155992    
  0.3402390238965814    0.3674768273623624    0.3914536159243044    0.4018392082134335    0.38827497774728364    
  0.34744159588469964    0.2877573059094469    0.2255240820519466    0.17542454709421065    0.14466979303830108    
  0.13451044017958597    0.20853079625346935    0.21818137828920856    0.24604587130465264    0.28775730590944687    
  0.33401062956794464    0.37193955619027336    0.3907790858772565    0.3876104453322073    0.3677775927174574    
  0.3402226326588321    0.3126684614080712    0.2898435416244732    0.27403282914909605    0.26604347057854655    
  0.2657457708713515    0.2723184057433608    0.2844057114653394    0.3001878847502928    0.3174151864816707    
  0.33363813842026563    0.34677361834766    0.35575838995865616    0.3608069328192227    0.36302578880460357    
  0.3635997002474197    0.3630257888046035    0.3608069328192227    0.35575838995865616    0.34677361834765996    
  0.3336381384202656    0.3174151864816707    0.3001878847502928    0.2844057114653394    0.2723184057433608    
  0.2657457708713515    0.2660434705785466    0.27403282914909605    0.28984354162447307    0.3126684614080712    
  0.3402226326588321    0.3677775927174574    0.3876104453322073    0.39077908587725646    0.37193955619027347    
  0.33401062956794464    0.2877573059094468    0.24604587130465264    0.21818137828920864    0.20853079625346935    
  0.29461325286789997    0.30170132847051695    0.3211533482595415    0.3474415958846996    0.37193955619027347    
  0.38563510186807043    0.38325492338619277    0.36569367476695547    0.338635892955655    0.3089202329536957    
  0.28177380017304965    0.2601795378475684    0.24548527075579163    0.23807679404538026    0.23772669369731705    
  0.24374711474224556    0.2550629053771532    0.27021560689457924    0.28736799044761074    0.30446576347888216    
  0.3196181941979034    0.3315316357757742    0.33972107888427533    0.34435611156658497    0.34583643507247847    
  0.34435611156658485    0.33972107888427533    0.33153163577577427    0.3196181941979034    0.3044657634788821    
  0.2873679904476107    0.2702156068945792    0.2550629053771532    0.24374711474224556    0.23772669369731705    
  0.23807679404538026    0.24548527075579163    0.26017953784756837    0.28177380017304965    0.3089202329536957    
  0.338635892955655    0.36569367476695547    0.38325492338619277    0.38563510186807043    0.3719395561902734    
  0.34744159588469953    0.3211533482595415    0.301701328470517    0.29461325286789997    0.3694179621932164    
  0.3725415260447146    0.3802956758584696    0.3882749777472836    0.39077908587725657    0.3832549233861927    
  0.3645249603812164    0.33721751333846556    0.3061271912509729    0.27595231572728374    0.24996605162828486    
  0.22991086411345682    0.21646620284563134    0.2096922995715157    0.2092825306642716    0.21466867271413342    
  0.22501946706113327    0.23917758226022376    0.2556389321070352    0.27267680634358227    0.28860191189056533    
  0.30203297132893453    0.3120474596397545    0.31816697281204603    0.32021795017326654    0.318166972812046    
  0.3120474596397545    0.3020329713289346    0.28860191189056533    0.2726768063435822    0.2556389321070352    
  0.23917758226022376    0.22501946706113327    0.21466867271413342    0.2092825306642716    0.20969229957151575    
  0.21646620284563134    0.22991086411345682    0.24996605162828486    0.2759523157272838    0.3061271912509729    
  0.33721751333846556    0.3645249603812164    0.3832549233861928    0.39077908587725657    0.3882749777472836    
  0.3802956758584696    0.3725415260447146    0.3694179621932164    0.41312560425881056    0.4123967747143599    
  0.40934947834230745    0.4018392082134335    0.3876104453322074    0.36569367476695536    0.3372175133384656    
  0.3050992286091449    0.27289645403817975    0.24366022373676358    0.21938593652711322    0.20104866012887637    
  0.18890038406914533    0.1827793176426191    0.18232669668827275    0.18706770642673792    0.19635762787360833    
  0.20927280302096926    0.2245710004975577    0.24078776506061123    0.25642066368123384    0.2701010482143422    
  0.2807021510751437    0.2873964188846404    0.28968335165362763    0.28739641888464035    0.2807021510751437    
  0.2701010482143423    0.25642066368123384    0.24078776506061117    0.2245710004975577    0.20927280302096926    
  0.19635762787360833    0.18706770642673792    0.18232669668827275    0.18277931764261912    0.18890038406914533    
  0.20104866012887634    0.21938593652711322    0.24366022373676363    0.27289645403817975    0.3050992286091449    
  0.3372175133384656    0.3656936747669554    0.3876104453322074    0.4018392082134335    0.4093494783423074    
  0.4123967747143599    0.41312560425881056    0.42195364438204386    0.4186182089221221    0.4084991089773704    
  0.3914536159243044    0.3677775927174575    0.33863589295565494    0.3061271912509729    0.27289645403817964    
  0.24152795854095296    0.2140514182954386    0.19173023032064349    0.1751029363966136    0.16417577223529142    
  0.15866598811958282    0.1581946774592303    0.16234696506820837    0.17059659714408495    0.18218684434303647    
  0.19608226062838535    0.21103377479483051    0.2257067507743611    0.23880012768539433    0.24913875917742545    
  0.2557663255184969    0.25804966128933005    0.2557663255184969    0.24913875917742545    0.23880012768539438    
  0.2257067507743611    0.2110337747948305    0.19608226062838535    0.18218684434303647    0.17059659714408495    
  0.16234696506820834    0.1581946774592303    0.15866598811958285    0.16417577223529142    0.17510293639661356    
  0.19173023032064349    0.21405141829543867    0.24152795854095296    0.2728964540381797    0.3061271912509729    
  0.338635892955655    0.3677775927174575    0.39145361592430433    0.4084991089773704    0.4186182089221221    
  0.42195364438204386    0.40643251658902857    0.4018834467931252    0.38856801592971246    0.3674768273623625    
  0.3402226326588322    0.30892023295369564    0.2759523157272838    0.24366022373676363    0.21405141829543867    
  0.18860016467101817    0.16817049033732417    0.1530633005887706    0.14316977086657526    0.1381719202216275    
  0.13769709255863408    0.141357229264211    0.1486819592947708    0.1590221244869578    0.17150334938018638    
  0.18505645438800875    0.19849690429197417    0.21061526034550193    0.22027052445341533    0.22650151550225273    
  0.2286559364512686    0.22650151550225261    0.22027052445341533    0.210615260345502    0.19849690429197417    
  0.18505645438800872    0.17150334938018638    0.15902212448695785    0.1486819592947708    0.141357229264211    
  0.13769709255863408    0.13817192022162753    0.14316977086657526    0.15306330058877057    0.16817049033732417    
  0.1886001646710182    0.21405141829543867    0.24366022373676358    0.2759523157272838    0.3089202329536957    
  0.3402226326588322    0.3674768273623624    0.3885680159297124    0.4018834467931252    0.40643251658902857    
  0.38096311409520206    0.3761182372202535    0.3620777094618848    0.3402390238965814    0.31266846140807136    
  0.28177380017304965    0.24996605162828492    0.21938593652711322    0.19173023032064349    0.16817049033732412    
  0.14934910426563877    0.135451472704739    0.12634342198436357    0.12172637010086682    0.12124540312261463    
  0.12451536923509324    0.13108116124718913    0.14035747242710173    0.15158855755860268    0.16384777637664913    
  0.17607800937210077    0.18716468337154707    0.19603401939686604    0.20177298817564304    0.20375986746420263    
  0.201772988175643    0.19603401939686604    0.18716468337154718    0.17607800937210077    0.1638477763766491    
  0.15158855755860265    0.14035747242710178    0.13108116124718913    0.12451536923509324    0.12124540312261463    
  0.12172637010086687    0.12634342198436357    0.135451472704739    0.1493491042656388    0.16817049033732415    
  0.19173023032064349    0.21938593652711322    0.24996605162828492    0.28177380017304965    0.31266846140807136    
  0.34023902389658134    0.3620777094618848    0.3761182372202535    0.38096311409520206    0.35627901788351274    
  0.3515329642325141    0.3378035308339326    0.3165319421155992    0.2898435416244733    0.26017953784756837    
  0.22991086411345688    0.20104866012887634    0.17510293639661353    0.15306330058877057    0.13545147270473903    
  0.12241493099086238    0.11384233772367244    0.10947214565195058    0.10896490316238175    0.11192938369786994    
  0.11791255966657835    0.12636854684046991    0.13662177163436168    0.1478452514725843    0.1590767607892351    
  0.16928236992255596    0.17745790830364294    0.1827508259737505    0.1845835271370574    0.1827508259737505    
  0.17745790830364294    0.16928236992255608    0.1590767607892351    0.14784525147258426    0.13662177163436168    
  0.12636854684046991    0.11791255966657835    0.11192938369786992    0.10896490316238175    0.10947214565195061    
  0.11384233772367244    0.12241493099086238    0.13545147270473903    0.15306330058877057    0.17510293639661353    
  0.20104866012887632    0.22991086411345688    0.2601795378475684    0.28984354162447323    0.31653194211559915    
  0.3378035308339326    0.3515329642325141    0.35627901788351274    0.33812186092578433    0.3335490676628221    
  0.3203089164107665    0.2997785401586358    0.27403282914909616    0.24548527075579157    0.2164662028456314    
  0.18890038406914525    0.16417577223529142    0.14316977086657517    0.12634342198436352    0.11384233772367243    
  0.10558585348709236    0.10134107049339582    0.10077822870532688    0.10350458824580588    0.10907394380979354    
  0.11696876635344415    0.12656198211225575    0.13708424895344923    0.147630059596252    0.15721864936539007    
  0.16489801426981035    0.16986623306181153    0.17158554528273479    0.16986623306181148    0.16489801426981032    
  0.15721864936539012    0.147630059596252    0.1370842489534492    0.12656198211225572    0.11696876635344419    
  0.10907394380979353    0.10350458824580588    0.10077822870532688    0.10134107049339582    0.10558585348709236    
  0.11384233772367243    0.12634342198436352    0.1431697708665752    0.16417577223529142    0.18890038406914525    
  0.21646620284563134    0.24548527075579163    0.27403282914909616    0.29977854015863575    0.3203089164107665    
  0.3335490676628221    0.33812186092578433    0.32876237310493833    0.32430172144556396    0.31136753249422294    
  0.29127271096631696    0.2660434705785466    0.2380767940453802    0.2096922995715157    0.1827793176426191    
  0.1586659881195828    0.13817192022162744    0.12172637010086684    0.10947214565195061    0.10134107049339584    
  0.09711352439915562    0.0964689941195108    0.09902363902792292    0.10434474589516762    0.1119341174212773    
  0.12118754273263334    0.13135873231281414    0.14156346613612078    0.15084181151235987    0.1582660818679024    
  0.163063306543293    0.16472198505669317    0.16306330654329296    0.1582660818679024    0.15084181151235995    
  0.1415634661361208    0.1313587323128141    0.12118754273263334    0.1119341174212773    0.10434474589516762    
  0.09902363902792291    0.09646899411951082    0.09711352439915563    0.10134107049339584    0.10947214565195056    
  0.12172637010086684    0.1381719202216275    0.1586659881195828    0.18277931764261904    0.2096922995715157    
  0.23807679404538026    0.2660434705785466    0.2912727109663169    0.31136753249422294    0.324301721445564    
  0.32876237310493833    0.32839551835787245    0.3239552865658312    0.3110631849432824    0.2909927654162254    
  0.2657457708713516    0.23772669369731705    0.20928253066427163    0.18232669668827278    0.15819467745923033    
  0.13769709255863402    0.12124540312261463    0.10896490316238175    0.10077822870532693    0.09646899411951082    
  0.0957300684441461    0.09819390933519842    0.10343985790975892    0.11097473741489104    0.12019371562141927    
  0.13034628453666075    0.1405412345295867    0.1498106477549461    0.15722247068481837    0.16200679896175552    
  0.16365981615376451    0.16200679896175546    0.15722247068481837    0.14981064775494618    0.14054123452958667    
  0.1303462845366607    0.12019371562141927    0.1109747374148911    0.10343985790975893    0.09819390933519842    
  0.0957300684441461    0.09646899411951086    0.10077822870532693    0.10896490316238178    0.12124540312261463    
  0.13769709255863405    0.15819467745923033    0.18232669668827275    0.20928253066427163    0.2377266936973171    
  0.2657457708713516    0.2909927654162253    0.3110631849432824    0.3239552865658312    0.32839551835787245    
  0.33585666500926525    0.33137135780021687    0.31833201084017926    0.29798607374871755    0.2723184057433608    
  0.24374711474224556    0.2146686727141335    0.18706770642673798    0.16234696506820837    0.141357229264211    
  0.12451536923509332    0.11192938369786994    0.10350458824580591    0.09902363902792298    0.09819390933519842    
  0.10066360669875854    0.10601513620731357    0.11374198843715166    0.12321505171102727    0.13365543648017533    
  0.1441424912736045    0.1536784356864733    0.16130305349623578    0.16622406735312856    0.16792410597763233    
  0.16622406735312856    0.16130305349623578    0.1536784356864734    0.1441424912736045    0.13365543648017533    
  0.12321505171102726    0.11374198843715169    0.10601513620731357    0.10066360669875851    0.09819390933519842    
  0.099023639027923    0.1035045882458059    0.11192938369786994    0.12451536923509332    0.14135722926421102    
  0.16234696506820834    0.18706770642673795    0.2146686727141335    0.2437471147422456    0.2723184057433608    
  0.2979860737487175    0.31833201084017926    0.33137135780021687    0.33585666500926525    0.3489934896437701    
  0.3444639671789229    0.33127078289244816    0.3106081881140571    0.28440571146533944    0.2550629053771531    
  0.22501946706113335    0.1963576278736083    0.1705965971440849    0.14868195929477063    0.1310811612471891    
  0.11791255966657835    0.1090739438097935    0.1043447458951676    0.10343985790975886    0.10601513620731355    
  0.11164533601977905    0.1197942962833462    0.12978697986213708    0.1407936020173444    0.15184497255161086    
  0.16189681702795766    0.16994124947994393    0.17513895306498423    0.17693590747220275    0.1751389530649842    
  0.16994124947994393    0.16189681702795766    0.15184497255161086    0.14079360201734434    0.12978697986213708    
  0.11979429628334623    0.11164533601977905    0.1060151362073135    0.10343985790975886    0.10434474589516762    
  0.1090739438097935    0.11791255966657832    0.1310811612471891    0.14868195929477065    0.1705965971440849    
  0.19635762787360833    0.2250194670611333    0.25506290537715315    0.28440571146533944    0.3106081881140571    
  0.33127078289244816    0.3444639671789229    0.3489934896437701    0.36483945268682383    0.3603680805153445    
  0.3472890980243113    0.32664349598995335    0.3001878847502928    0.2702156068945791    0.2391775822602237    
  0.20927280302096918    0.18218684434303647    0.1590221244869578    0.14035747242710178    0.12636854684046983    
  0.11696876635344415    0.11193411742127725    0.11097473741489104    0.11374198843715165    0.11979429628334627    
  0.12855610071197676    0.13929189764513056    0.1511038591253308    0.16295858817242861    0.17375038605030374    
  0.1824043563641154    0.1880088021554221    0.18994932253600488    0.18800880215542198    0.1824043563641154    
  0.17375038605030377    0.16295858817242861    0.15110385912533075    0.13929189764513053    0.12855610071197676    
  0.11979429628334627    0.1137419884371516    0.11097473741489107    0.1119341174212773    0.11696876635344415    
  0.1263685468404698    0.14035747242710178    0.15902212448695782    0.18218684434303647    0.20927280302096918    
  0.2391775822602237    0.27021560689457913    0.3001878847502928    0.32664349598995335    0.34728909802431124    
  0.3603680805153445    0.36483945268682383    0.3797740545113988    0.37558568829207145    0.36322033193699793    
  0.3433753410210159    0.3174151864816707    0.28736799044761074    0.2556389321070353    0.22457100049755763    
  0.19608226062838538    0.17150334938018635    0.15158855755860265    0.13662177163436165    0.12656198211225572    
  0.12118754273263331    0.1201937156214192    0.12321505171102723    0.12978697986213703    0.13929189764513053    
  0.15093011303407552    0.16372845705768893    0.17657825999323173    0.1882966777639068    0.19772049643627465    
  0.20384140473684745    0.20596465978450654    0.20384140473684742    0.19772049643627465    0.18829667776390685    
  0.17657825999323173    0.16372845705768888    0.15093011303407552    0.13929189764513053    0.12978697986213703    
  0.12321505171102717    0.1201937156214192    0.12118754273263334    0.12656198211225572    0.13662177163436162    
  0.15158855755860265    0.17150334938018638    0.19608226062838538    0.22457100049755763    0.2556389321070353    
  0.2873679904476108    0.3174151864816707    0.34337534102101586    0.36322033193699793    0.37558568829207145    
  0.3797740545113988    0.3901578004104946    0.38657559651081713    0.3757969951219054    0.3579265139938715    
  0.33363813842026563    0.3044657634788821    0.27267680634358227    0.24078776506061117    0.21103377479483057    
  0.1850564543880088    0.16384777637664916    0.14784525147258426    0.13708424895344923    0.13135873231281409    
  0.13034628453666075    0.13365543648017525    0.1407936020173444    0.15110385912533075    0.163728457057689    
  0.1776209295874808    0.19158998392587495    0.20435910835219662    0.21465686866308523    0.2213623449205305    
  0.22369183853343894    0.22136234492053042    0.21465686866308523    0.2043591083521967    0.19158998392587495    
  0.1776209295874808    0.163728457057689    0.15110385912533078    0.1407936020173444    0.13365543648017522    
  0.13034628453666075    0.1313587323128141    0.13708424895344923    0.14784525147258423    0.16384777637664916    
  0.18505645438800886    0.21103377479483057    0.24078776506061117    0.27267680634358227    0.30446576347888216    
  0.33363813842026563    0.3579265139938714    0.37579699512190534    0.38657559651081713    0.3901578004104946    
  0.39365243317132215    0.39100229976890016    0.3827088278723521    0.3680668045749315    0.3467736183476599    
  0.31961819419790327    0.2886019118905652    0.2564206636812338    0.225706750774361    0.19849690429197414    
  0.1760780093721007    0.15907676078923502    0.14763005959625197    0.1415634661361207    0.14054123452958656    
  0.1441424912736044    0.1518449725516108    0.16295858817242861    0.17657825999323173    0.19158998392587495    
  0.2067139754065013    0.22056601669671813    0.2317556327581947    0.239050094990209    0.2415855976421133    
  0.23905009499020885    0.2317556327581947    0.22056601669671816    0.20671397540650133    0.1915899839258749    
  0.1765782599932317    0.16295858817242856    0.1518449725516108    0.14414249127360435    0.14054123452958656    
  0.14156346613612072    0.14763005959625197    0.159076760789235    0.1760780093721007    0.19849690429197417    
  0.225706750774361    0.2564206636812338    0.2886019118905652    0.3196181941979033    0.3467736183476599    
  0.36806680457493146    0.38270882787235205    0.3910022997689002    0.39365243317132215    0.3904956505887445    
  0.3889656748586997    0.3836998093874289    0.37310505958655377    0.3557583899586562    0.3315316357757742    
  0.3020329713289346    0.2701010482143422    0.23880012768539433    0.21061526034550196    0.18716468337154712    
  0.16928236992255602    0.15721864936539007    0.1508418115123599    0.14981064775494612    0.15367843568647338    
  0.1618968170279577    0.17375038605030382    0.1882966777639068    0.2043591083521967    0.22056601669671821    
  0.23542034369406906    0.2474176910595249    0.25523360582955845    0.25794886626722435    0.2552336058295583    
  0.2474176910595249    0.23542034369406906    0.22056601669671821    0.20435910835219667    0.1882966777639068    
  0.17375038605030377    0.1618968170279577    0.15367843568647332    0.14981064775494615    0.15084181151235992    
  0.15721864936539007    0.16928236992255594    0.1871646833715471    0.21061526034550196    0.23880012768539433    
  0.2701010482143422    0.3020329713289346    0.33153163577577427    0.3557583899586562    0.37310505958655377    
  0.3836998093874289    0.3889656748586998    0.3904956505887445    0.383582178306185    0.3831166610220622    
  0.38076049945600915    0.37414234345926567    0.3608069328192228    0.33972107888427544    0.3120474596397545    
  0.2807021510751437    0.24913875917742556    0.22027052445341536    0.19603401939686604    0.17745790830364291    
  0.16489801426981032    0.1582660818679024    0.15722247068481832    0.16130305349623575    0.16994124947994396    
  0.18240435636411545    0.19772049643627473    0.21465686866308523    0.23175563275819477    0.247417691059525    
  0.26004676243497554    0.2682584000482506    0.27110746598106333    0.2682584000482505    0.2600467624349756    
  0.24741769105952494    0.23175563275819477    0.2146568686630852    0.19772049643627473    0.18240435636411542    
  0.16994124947994396    0.16130305349623572    0.15722247068481832    0.15826608186790245    0.16489801426981032    
  0.17745790830364286    0.19603401939686604    0.22027052445341536    0.24913875917742556    0.2807021510751437    
  0.3120474596397545    0.3397210788842755    0.3608069328192228    0.3741423434592656    0.38076049945600915    
  0.3831166610220622    0.383582178306185    0.3770787810345102    0.37736907645993684    0.3770968156592764    
  0.373373238833512    0.36302578880460357    0.34435611156658485    0.31816697281204603    0.28739641888464035    
  0.2557663255184968    0.22650151550225261    0.20177298817564301    0.1827508259737505    0.16986623306181153    
  0.163063306543293    0.16200679896175546    0.16622406735312856    0.17513895306498423    0.18800880215542207    
  0.2038414047368475    0.2213623449205305    0.239050094990209    0.25523360582955845    0.2682584000482506    
  0.2767104164616399    0.27963912826614173    0.2767104164616399    0.2682584000482506    0.2552336058295584    
  0.239050094990209    0.22136234492053042    0.2038414047368475    0.1880088021554221    0.17513895306498425    
  0.16622406735312847    0.16200679896175546    0.16306330654329307    0.16986623306181153    0.18275082597375045    
  0.20177298817564301    0.22650151550225261    0.2557663255184968    0.28739641888464035    0.31816697281204603    
  0.34435611156658497    0.3630257888046035    0.373373238833512    0.37709681565927633    0.37736907645993695    
  0.3770787810345102    0.37446747598684077    0.37502980847298384    0.3755111991739295    0.37284373675903276    
  0.3635997002474197    0.3458364350724784    0.32021795017326654    0.2896833516536276    0.2580496612893301    
  0.22865593645126858    0.2037598674642026    0.18458352713705736    0.17158554528273476    0.16472198505669314    
  0.16365981615376454    0.16792410597763227    0.1769359074722028    0.189949322536005    0.20596465978450657    
  0.223691838533439    0.2415855976421135    0.25794886626722435    0.2711074659810634    0.2796391282661418    
  0.2825938670512602    0.2796391282661418    0.2711074659810634    0.25794886626722435    0.24158559764211343    
  0.2236918385334389    0.20596465978450657    0.189949322536005    0.1769359074722028    0.1679241059776322    
  0.16365981615376454    0.16472198505669317    0.17158554528273476    0.18458352713705736    0.2037598674642026    
  0.2286559364512686    0.2580496612893301    0.28968335165362763    0.32021795017326654    0.3458364350724784    
  0.3635997002474197    0.3728437367590327    0.3755111991739295    0.37502980847298395    0.37446747598684077    
  0.37707878103451026    0.37736907645993684    0.37709681565927633    0.373373238833512    0.3630257888046035    
  0.3443561115665849    0.31816697281204603    0.28739641888464035    0.2557663255184968    0.22650151550225261    
  0.201772988175643    0.1827508259737505    0.16986623306181148    0.16306330654329307    0.16200679896175546    
  0.16622406735312856    0.17513895306498423    0.18800880215542207    0.2038414047368475    0.2213623449205305    
  0.23905009499020904    0.25523360582955845    0.2682584000482505    0.27671041646163996    0.2796391282661418    
  0.2767104164616399    0.2682584000482506    0.25523360582955845    0.23905009499020904    0.22136234492053042    
  0.20384140473684748    0.1880088021554221    0.17513895306498423    0.1662240673531285    0.16200679896175546    
  0.16306330654329307    0.16986623306181148    0.18275082597375047    0.201772988175643    0.22650151550225273    