#     DFTpy    
  CRYSTAL 
    
  PRIMVEC    
  5.141724137931031    0.0    0.0    
  0.0    5.141724137931031    0.0    
  0.0    0.0    2.8327586206896505    
  PRIMCOORD    
  4    1    
  Si    0.0    0.0    0.0    
  Si    2.5708620689655204    2.5708620689655204    1.4163793103448301    
  Si    0.0    2.5708620689655204    0.7081896551724101    
  Si    2.5708620689655204    0.0    2.1245689655172404    
  BEGIN_BLOCK_DATAGRID_3D    
  3d_datagrid_density    
  BEGIN_DATAGRID_3D#0    
  49    49    28    
  0.0    0.0    0.0    
  5.141724157109761    0.0    0.0    
  0.0    5.141724157109761    0.0    
  0.0    0.0    2.8327586312558943    
  0.052988065008631506    0.06146951181509562    0.0898795657924789    0.14381820400207576    0.22193909428338862    
  0.30727437180738204    0.3730278608648368    0.4013446894403723    0.39433560954544045    0.3671120765520958    
  0.33493214799546206    0.30714668124673333    0.2879394432476353    0.2786473518378346    0.2791146974301965    
  0.2882466314490431    0.30423536993752776    0.3244969538514645    0.34552808739370744    0.36333214411246034    
  0.3747555229063626    0.37899341745126996    0.3779810175625336    0.3752283830567661    0.3738959343174163    
  0.37522838305676615    0.3779810175625336    0.37899341745126996    0.37475552290636255    0.36333214411246034    
  0.34552808739370744    0.3244969538514645    0.30423536993752776    0.2882466314490431    0.2791146974301965    
  0.2786473518378347    0.2879394432476353    0.30714668124673333    0.33493214799546206    0.3671120765520958    
  0.39433560954544045    0.4013446894403724    0.3730278608648368    0.30727437180738204    0.22193909428338862    
  0.14381820400207587    0.0898795657924789    0.06146951181509565    0.052988065008631506    0.06146951181509555    
  0.07045348024741442    0.10003754575345095    0.15477058862607565    0.23192161096374642    0.31401310049551034    
  0.37536539003258984    0.3999101314462732    0.3907102163754243    0.3626869282694669    0.33046197770029934    
  0.3028866873373989    0.28389120155877934    0.2747092389519938    0.2751585323910585    0.28416935185761644    
  0.30000058624190346    0.32016979439516347    0.3412996203015579    0.3595053176311087    0.3716591919095895    
  0.37684278318330044    0.3767644811095116    0.37468890832306045    0.3736024010378478    0.37468890832306045    
  0.3767644811095116    0.37684278318330044    0.3716591919095895    0.3595053176311087    0.3412996203015579    
  0.32016979439516347    0.30000058624190346    0.2841693518576164    0.2751585323910585    0.2747092389519938    
  0.28389120155877934    0.3028866873373989    0.33046197770029934    0.3626869282694669    0.3907102163754243    
  0.39991013144627324    0.37536539003258984    0.31401310049551034    0.23192161096374642    0.15477058862607568    
  0.10003754575345095    0.07045348024741446    0.06146951181509555    0.08987956579247894    0.10003754575345099    
  0.1320948388800218    0.18757918403319568    0.2602715406158372    0.3319901597866877    0.3805695693428707    
  0.39471543372305445    0.37971191964563494    0.3496981611642626    0.3174848817637377    0.29056958060767796    
  0.2722053902088348    0.26334958702371475    0.263749417491319    0.2724050541171394    0.287755004996661    
  0.3075875811025798    0.3288663342711465    0.3480237558649809    0.3620326870557816    0.3696981947378592    
  0.37212376480740755    0.37188874422437784    0.3714757003269786    0.37188874422437784    0.37212376480740755    
  0.3696981947378592    0.3620326870557816    0.34802375586498097    0.3288663342711465    0.3075875811025798    
  0.287755004996661    0.27240505411713933    0.263749417491319    0.26334958702371475    0.2722053902088348    
  0.2905695806076779    0.3174848817637377    0.3496981611642626    0.37971191964563494    0.39471543372305445    
  0.3805695693428707    0.33199015978668767    0.2602715406158372    0.1875791840331957    0.1320948388800218    
  0.10003754575345099    0.08987956579247894    0.14381820400207582    0.15477058862607565    0.18757918403319557    
  0.23964977425668352    0.30111531276948544    0.35465598876889465    0.3839124389118151    0.3836757179148146    
  0.36125364084329625    0.32906034377877424    0.2972531851856545    0.27150067894221647    0.25416316347473594    
  0.2458305873815012    0.2461602028648553    0.2542545175568496    0.26879530914387223    0.28792825894638774    
  0.3090780229303291    0.32914125910695974    0.3453030600265845    0.35607697734704397    0.3617799345189193    
  0.36402159292358083    0.3645274576920021    0.36402159292358083    0.3617799345189193    0.356076977347044    
  0.3453030600265845    0.32914125910695974    0.3090780229303291    0.2879282589463878    0.26879530914387223    
  0.2542545175568496    0.2461602028648553    0.24583058738150126    0.25416316347473594    0.27150067894221647    
  0.2972531851856545    0.32906034377877424    0.36125364084329625    0.38367571791481464    0.3839124389118151    
  0.35465598876889465    0.30111531276948544    0.23964977425668357    0.18757918403319557    0.15477058862607565    
  0.14381820400207582    0.2219390942833886    0.2319216109637464    0.2602715406158372    0.3011153127694854    
  0.3431691168705868    0.37256924309148853    0.37982633164273805    0.36497139732419953    0.3358972966137848    
  0.3023926581406999    0.27168545073307093    0.24759995287455133    0.23161670766027623    0.22396029065916792    
  0.224208829930795    0.23158638632161757    0.2450282495421897    0.2630359483675032    0.28350596391656024    
  0.30385516172173666    0.321589199724624    0.3350463799503243    0.3438074386316334    0.3484626350085905    
  0.3498826083386416    0.3484626350085904    0.3438074386316334    0.3350463799503243    0.321589199724624    
  0.30385516172173677    0.28350596391656024    0.26303594836750327    0.2450282495421897    0.23158638632161752    
  0.224208829930795    0.22396029065916795    0.23161670766027623    0.24759995287455133    0.27168545073307093    
  0.3023926581406999    0.3358972966137848    0.3649713973241996    0.37982633164273805    0.37256924309148853    
  0.3431691168705868    0.3011153127694855    0.2602715406158372    0.2319216109637464    0.2219390942833886    
  0.30727437180738204    0.31401310049551034    0.33199015978668767    0.35465598876889465    0.37256924309148853    
  0.3770977578587887    0.3647381198377076    0.33850317607554087    0.30528378620791086    0.27193805556464395    
  0.24309946961812448    0.2210844675110989    0.20666337644756538    0.19976703811880825    0.19992928662040105    
  0.20650098170395956    0.21864137460915084    0.23515039040497385    0.2543316597319631    0.27408983875434256    
  0.2923034074845098    0.30729393993468945    0.31811989425985504    0.32453087099123734    0.32663728516686635    
  0.32453087099123734    0.31811989425985504    0.30729393993468945    0.2923034074845098    0.2740898387543426    
  0.2543316597319631    0.23515039040497385    0.21864137460915084    0.20650098170395953    0.19992928662040105    
  0.19976703811880828    0.20666337644756538    0.2210844675110989    0.24309946961812448    0.27193805556464395    
  0.30528378620791086    0.33850317607554087    0.36473811983770754    0.37709775785878863    0.3725692430914886    
  0.35465598876889465    0.33199015978668767    0.31401310049551034    0.30727437180738204    0.3730278608648368    
  0.37536539003258984    0.38056956934287056    0.3839124389118152    0.379826331642738    0.36473811983770754    
  0.3389740360421646    0.3063465803820667    0.27198064950030804    0.24023675511859163    0.21386074367640062    
  0.19412937309788741    0.18132660979902857    0.17519573675533584    0.17526989583217423    0.18101464367047662    
  0.19176092567328762    0.2065349801949068    0.2239626239539277    0.24235561012694912    0.2599482058755599    
  0.27516240042811063    0.2867890174239273    0.29404016266431804    0.2964993040519001    0.294040162664318    
  0.2867890174239273    0.27516240042811063    0.2599482058755599    0.24235561012694917    0.2239626239539277    
  0.20653498019490676    0.19176092567328762    0.1810146436704766    0.17526989583217423    0.17519573675533587    
  0.18132660979902854    0.1941293730978874    0.21386074367640057    0.24023675511859163    0.27198064950030804    
  0.30634658038206675    0.3389740360421646    0.3647381198377075    0.379826331642738    0.3839124389118152    
  0.38056956934287056    0.37536539003258984    0.3730278608648368    0.4013446894403723    0.39991013144627324    
  0.39471543372305445    0.3836757179148147    0.36497139732419964    0.33850317607554087    0.3063465803820667    
  0.2719525700487959    0.2388371577785651    0.20967121643302378    0.18603609721177672    0.16858025201965948    
  0.1573065522065658    0.15187976905833844    0.1518684801258041    0.1568237325457126    0.1661881694095377    
  0.17915269496278066    0.19459636292640745    0.21115369159756295    0.22735674931178387    0.24177760051855537    
  0.25313972883592406    0.2604137484790508    0.26291849428847386    0.2604137484790508    0.25313972883592406    
  0.24177760051855537    0.22735674931178387    0.21115369159756295    0.19459636292640745    0.17915269496278063    
  0.1661881694095377    0.15682373254571258    0.1518684801258041    0.15187976905833847    0.1573065522065658    
  0.16858025201965945    0.18603609721177672    0.20967121643302378    0.2388371577785651    0.2719525700487959    
  0.3063465803820667    0.33850317607554087    0.3649713973241997    0.3836757179148147    0.39471543372305445    
  0.39991013144627324    0.4013446894403723    0.39433560954544034    0.39071021637542425    0.37971191964563494    
  0.36125364084329625    0.33589729661378476    0.30528378620791086    0.27198064950030804    0.23883715777856504    
  0.20830889384160656    0.18210495194600326    0.1611613009268896    0.14578165832278117    0.13584400124098223    
  0.13101990761447835    0.1309306468647821    0.13517630698076108    0.14325884824846566    0.15448835026679558    
  0.16794694945303715    0.18252217545679075    0.1969792958303958    0.21004369609041848    0.22048978561922877    
  0.2272565113748926    0.2296019334005639    0.2272565113748926    0.2204897856192288    0.21004369609041848    
  0.1969792958303958    0.18252217545679078    0.16794694945303715    0.15448835026679555    0.14325884824846566    
  0.13517630698076108    0.1309306468647821    0.13101990761447838    0.1358440012409822    0.14578165832278114    
  0.1611613009268896    0.18210495194600326    0.20830889384160656    0.23883715777856504    0.27198064950030804    
  0.3052837862079108    0.33589729661378476    0.36125364084329625    0.37971191964563494    0.3907102163754243    
  0.39433560954544034    0.367112076552096    0.36268692826946686    0.3496981611642626    0.3290603437787742    
  0.3023926581406999    0.27193805556464395    0.2402367551185917    0.20967121643302372    0.18210495194600326    
  0.1587423387369981    0.1401789057181045    0.12655030074637733    0.11770884095189964    0.11337440670714344    
  0.11321575791123285    0.11685327020012673    0.12381748915825798    0.1335065323219138    0.14516153803071982    
  0.15786264241077033    0.17055224627351206    0.18209410305350524    0.19136727752700328    0.19739213271716863    
  0.19948330144715354    0.19739213271716863    0.19136727752700328    0.18209410305350524    0.17055224627351206    
  0.15786264241077036    0.14516153803071982    0.13350653232191384    0.12381748915825798    0.1168532702001267    
  0.11321575791123285    0.11337440670714345    0.11770884095189964    0.1265503007463773    0.1401789057181045    
  0.1587423387369981    0.18210495194600326    0.20967121643302378    0.2402367551185917    0.27193805556464395    
  0.3023926581406999    0.3290603437787742    0.34969816116426256    0.36268692826946686    0.367112076552096    
  0.33493214799546195    0.3304619777002993    0.31748488176373757    0.2972531851856545    0.27168545073307093    
  0.24309946961812437    0.21386074367640057    0.18603609721177666    0.16116130092688954    0.14017890571810449    
  0.12352114578099846    0.1112640730222439    0.10327774947526107    0.09932503540614032    0.0991004707775033    
  0.10223222434445052    0.10827411628839705    0.11669371848331271    0.1268478019090163    0.13795204465415883    
  0.14907811083871547    0.1592073046061026    0.16733603831783195    0.17260566755211168    0.17443163803385398    
  0.17260566755211168    0.16733603831783195    0.15920730460610266    0.14907811083871547    0.1379520446541589    
  0.1268478019090163    0.11669371848331271    0.10827411628839705    0.1022322243444505    0.0991004707775033    
  0.09932503540614035    0.10327774947526105    0.11126407302224385    0.12352114578099846    0.14017890571810449    
  0.16116130092688954    0.1860360972117767    0.21386074367640057    0.24309946961812434    0.27168545073307093    
  0.2972531851856545    0.3174848817637376    0.3304619777002993    0.33493214799546195    0.30714668124673333    
  0.3028866873373989    0.2905695806076779    0.27150067894221647    0.24759995287455136    0.22108446751109895    
  0.1941293730978874    0.16858025201965945    0.14578165832278114    0.12655030074637727    0.11126407302224395    
  0.09999765362076532    0.09263974388633642    0.08896489166621495    0.08866901323667177    0.09138822510661855    
  0.0967082213762071    0.10415582340853743    0.11316583427534337    0.12303985930941425    0.13293735722542943    
  0.1419313934258705    0.1491215809921359    0.15376229620188675    0.15536559951085283    0.15376229620188675    
  0.14912158099213593    0.14193139342587052    0.13293735722542943    0.12303985930941432    0.11316583427534337    
  0.1041558234085374    0.0967082213762071    0.09138822510661855    0.08866901323667177    0.08896489166621498    
  0.09263974388633642    0.09999765362076528    0.11126407302224395    0.12655030074637727    0.14578165832278114    
  0.16858025201965945    0.19412937309788741    0.22108446751109884    0.24759995287455133    0.27150067894221647    
  0.2905695806076779    0.3028866873373989    0.30714668124673333    0.2879394432476353    0.28389120155877945    
  0.2722053902088348    0.25416316347473594    0.23161670766027623    0.20666337644756538    0.18132660979902854    
  0.1573065522065658    0.1358440012409822    0.11770884095189958    0.10327774947526108    0.09263974388633645    
  0.08568594792289114    0.08217697440803419    0.08179690618118822    0.08419242865827117    0.08898516035532046    
  0.09575070046988585    0.10397381524239172    0.11300586725949266    0.12206041640101625    0.13027311976146105    
  0.13681669288707798    0.14102446030153862    0.1424746207729602    0.14102446030153867    0.13681669288707798    
  0.1302731197614611    0.12206041640101623    0.11300586725949273    0.10397381524239172    0.09575070046988585    
  0.08898516035532046    0.08419242865827116    0.0817969061811882    0.0821769744080342    0.08568594792289114    
  0.09263974388633642    0.10327774947526108    0.11770884095189958    0.1358440012409822    0.1573065522065658    
  0.18132660979902854    0.20666337644756533    0.23161670766027623    0.254163163474736    0.2722053902088348    
  0.2838912015587794    0.2879394432476353    0.2786473518378347    0.27470923895199384    0.26334958702371475    
  0.24583058738150126    0.223960290659168    0.1997670381188083    0.1751957367553358    0.15187976905833847    
  0.1310199076144784    0.11337440670714344    0.09932503540614038    0.088964891666215    0.0821769744080342    
  0.07870567041072865    0.07822570571379243    0.08039271528104854    0.08485355980455282    0.0912141168697501    
  0.09898616422449191    0.1075457769629183    0.11613480524173782    0.12392396033966074    0.13012533288184053    
  0.13410949949661125    0.1354817911850273    0.13410949949661125    0.13012533288184053    0.12392396033966079    
  0.1161348052417378    0.10754577696291834    0.09898616422449191    0.09121411686975009    0.08485355980455281    
  0.08039271528104854    0.07822570571379243    0.07870567041072868    0.0821769744080342    0.08896489166621498    
  0.09932503540614038    0.11337440670714341    0.1310199076144784    0.15187976905833847    0.1751957367553358    
  0.19976703811880825    0.22396029065916795    0.24583058738150126    0.26334958702371475    0.27470923895199384    
  0.2786473518378347    0.27911469743019646    0.2751585323910584    0.2637494174913189    0.2461602028648553    
  0.22420882993079505    0.19992928662040105    0.1752698958321742    0.15186848012580403    0.1309306468647821    
  0.11321575791123283    0.09910047077750334    0.08866901323667174    0.0817969061811882    0.07822570571379238    
  0.07763168694722121    0.07967448886821699    0.08400567452748915    0.09023493915555586    0.09787601257955487    
  0.10630690603635885    0.11477594267664262    0.12246610010404127    0.1286004851731555    0.13255040300224863    
  0.1339129966666284    0.13255040300224863    0.1286004851731555    0.12246610010404133    0.11477594267664262    
  0.10630690603635892    0.09787601257955486    0.09023493915555589    0.08400567452748915    0.07967448886821699    
  0.07763168694722121    0.0782257057137924    0.0817969061811882    0.08866901323667171    0.09910047077750331    
  0.11321575791123283    0.1309306468647821    0.15186848012580406    0.1752698958321742    0.19992928662040102    
  0.22420882993079505    0.24616020286485524    0.2637494174913189    0.2751585323910584    0.27911469743019646    
  0.2882466314490431    0.28416935185761644    0.2724050541171394    0.2542545175568496    0.23158638632161757    
  0.20650098170395959    0.1810146436704766    0.15682373254571258    0.1351763069807611    0.11685327020012674    
  0.10223222434445056    0.09138822510661859    0.08419242865827119    0.08039271528104854    0.07967448886821699    
  0.08169746707899499    0.08609987413078883    0.09246843730998933    0.10029024318421324    0.10891901418884514    
  0.11758715913143084    0.12546983121255365    0.1317785248826122    0.13585725107156393    0.13726829019875816    
  0.13585725107156388    0.1317785248826122    0.1254698312125537    0.11758715913143081    0.10891901418884521    
  0.10029024318421324    0.09246843730998931    0.08609987413078883    0.081697467078995    0.07967448886821699    
  0.08039271528104856    0.08419242865827119    0.09138822510661858    0.10223222434445056    0.11685327020012673    
  0.1351763069807611    0.15682373254571258    0.1810146436704766    0.2065009817039595    0.23158638632161757    
  0.2542545175568496    0.2724050541171394    0.28416935185761644    0.2882466314490431    0.3042353699375277    
  0.30000058624190346    0.287755004996661    0.2687953091438723    0.24502824954218977    0.21864137460915078    
  0.19176092567328762    0.16618816940953765    0.14325884824846566    0.12381748915825798    0.10827411628839705    
  0.09670822137620709    0.08898516035532046    0.08485355980455277    0.08400567452748914    0.08609987413078879    
  0.09075292246708956    0.09750987354186842    0.10580506836768867    0.11494094365990049    0.12411004602713874    
  0.13245787828715427    0.1391616702437436    0.14351466346267924    0.14502514223927618    0.14351466346267924    
  0.1391616702437436    0.1324578782871543    0.12411004602713874    0.11494094365990053    0.10580506836768867    
  0.0975098735418684    0.09075292246708956    0.08609987413078879    0.08400567452748912    0.0848535598045528    
  0.08898516035532045    0.09670822137620706    0.10827411628839705    0.12381748915825797    0.14325884824846566    
  0.16618816940953765    0.19176092567328762    0.21864137460915076    0.24502824954218977    0.26879530914387223    
  0.287755004996661    0.30000058624190346    0.3042353699375277    0.3244969538514645    0.32016979439516347    
  0.3075875811025798    0.2879282589463877    0.2630359483675032    0.23515039040497385    0.2065349801949068    
  0.1791526949627806    0.1544883502667956    0.13350653232191387    0.11669371848331275    0.10415582340853745    
  0.0957507004698859    0.09121411686975013    0.0902349391555559    0.0924684373099893    0.09750987354186842    
  0.10485561265683861    0.11387146728992531    0.12378781128344012    0.1337342009045071    0.14280084268798288    
  0.15010396979847032    0.15486324705616603    0.15651871160576136    0.15486324705616597    0.15010396979847032    
  0.14280084268798293    0.1337342009045071    0.12378781128344012    0.11387146728992531    0.10485561265683858    
  0.09750987354186841    0.09246843730998931    0.09023493915555589    0.09121411686975013    0.0957507004698859    
  0.10415582340853745    0.11669371848331275    0.13350653232191387    0.1544883502667956    0.17915269496278063    
  0.2065349801949068    0.2351503904049738    0.2630359483675032    0.2879282589463877    0.3075875811025797    
  0.32016979439516347    0.3244969538514645    0.34552808739370744    0.34129962030155797    0.3288663342711465    
  0.309078022930329    0.2835059639165602    0.2543316597319631    0.22396262395392763    0.19459636292640742    
  0.16794694945303718    0.1451615380307198    0.12684780190901623    0.11316583427534327    0.10397381524239167    
  0.09898616422449188    0.09787601257955483    0.10029024318421317    0.10580506836768867    0.11387146728992527    
  0.12378439268417962    0.1346913993334952    0.14563922450408703    0.15563562880866882    0.16370780308488342    
  0.16898137882457331    0.17081857239672313    0.16898137882457323    0.16370780308488342    0.15563562880866888    
  0.14563922450408703    0.13469139933349528    0.12378439268417962    0.11387146728992524    0.10580506836768867    
  0.10029024318421319    0.09787601257955483    0.0989861642244919    0.10397381524239166    0.11316583427534324    
  0.12684780190901623    0.1451615380307198    0.16794694945303718    0.19459636292640742    0.22396262395392763    
  0.25433165973196303    0.2835059639165602    0.309078022930329    0.3288663342711464    0.34129962030155797    
  0.34552808739370744    0.3633321441124603    0.3595053176311087    0.3480237558649809    0.3291412591069597    
  0.3038551617217367    0.2740898387543426    0.2423556101269491    0.21115369159756292    0.18252217545679073    
  0.15786264241077036    0.1379520446541589    0.12303985930941422    0.11300586725949265    0.10754577696291824    
  0.10630690603635885    0.1089190141888451    0.11494094365990049    0.12378781128344012    0.13469139933349525    
  0.14671379387864386    0.15880365423699855    0.1698632840981602    0.17880946137393552    0.1846617879261309    
  0.18670205073453847    0.18466178792613086    0.1788094613739355    0.16986328409816026    0.15880365423699858    
  0.14671379387864394    0.13469139933349522    0.12378781128344007    0.11494094365990049    0.1089190141888451    
  0.10630690603635885    0.1075457769629183    0.11300586725949265    0.12303985930941422    0.1379520446541589    
  0.15786264241077036    0.18252217545679073    0.21115369159756295    0.2423556101269491    0.2740898387543426    
  0.30385516172173677    0.3291412591069597    0.3480237558649809    0.3595053176311087    0.3633321441124603    
  0.3747555229063626    0.3716591919095895    0.3620326870557816    0.34530306002658456    0.32158919972462396    
  0.2923034074845098    0.25994820587555983    0.22735674931178387    0.19697929583039586    0.1705522462735121    
  0.14907811083871547    0.13293735722542943    0.12206041640101627    0.11613480524173782    0.11477594267664262    
  0.11758715913143081    0.12411004602713874    0.13373420090450716    0.14563922450408706    0.1588036542369986    
  0.17206945908163912    0.18422121845132483    0.1940580730656597    0.20049493582425335    0.202739126974441    
  0.20049493582425335    0.1940580730656597    0.18422121845132486    0.17206945908163912    0.1588036542369987    
  0.14563922450408706    0.13373420090450716    0.12411004602713874    0.11758715913143081    0.11477594267664265    
  0.11613480524173785    0.12206041640101627    0.13293735722542943    0.14907811083871547    0.1705522462735121    
  0.19697929583039586    0.22735674931178393    0.25994820587555983    0.2923034074845098    0.32158919972462396    
  0.34530306002658456    0.36203268705578157    0.3716591919095895    0.3747555229063626    0.37899341745126996    
  0.3768427831833005    0.36969819473785925    0.35607697734704397    0.33504637995032444    0.30729393993468945    
  0.27516240042811063    0.24177760051855532    0.21004369609041848    0.1820941030535052    0.15920730460610266    
  0.14193139342587052    0.13027311976146105    0.12392396033966076    0.12246610010404126    0.12546983121255365    
  0.13245787828715427    0.14280084268798282    0.15563562880866885    0.16986328409816015    0.18422121845132483    
  0.19737971419215608    0.2080296587113479    0.21499558061856655    0.2174234438991934    0.21499558061856655    
  0.20802965871134788    0.1973797141921561    0.18422121845132483    0.16986328409816023    0.15563562880866885    
  0.14280084268798274    0.13245787828715427    0.12546983121255367    0.12246610010404127    0.12392396033966079    
  0.13027311976146105    0.1419313934258705    0.15920730460610266    0.18209410305350518    0.21004369609041848    
  0.24177760051855537    0.27516240042811063    0.3072939399346894    0.33504637995032444    0.35607697734704397    
  0.36969819473785925    0.3768427831833005    0.37899341745126996    0.3779810175625336    0.3767644811095116    
  0.3721237648074075    0.3617799345189193    0.3438074386316334    0.318119894259855    0.2867890174239273    
  0.25313972883592406    0.2204897856192288    0.19136727752700328    0.16733603831783195    0.14912158099213593    
  0.13681669288707798    0.1301253328818405    0.12860048517315548    0.1317785248826122    0.1391616702437436    
  0.1501039697984703    0.16370780308488345    0.17880946137393547    0.1940580730656597    0.2080296587113479    
  0.21933001003171373    0.22671603067872534    0.22928917500550275    0.22671603067872534    0.21933001003171373    
  0.2080296587113479    0.1940580730656597    0.17880946137393555    0.16370780308488347    0.15010396979847024    
  0.1391616702437436    0.13177852488261219    0.12860048517315548    0.1301253328818405    0.13681669288707798    
  0.1491215809921359    0.16733603831783195    0.1913672775270033    0.2204897856192288    0.25313972883592406    
  0.2867890174239273    0.31811989425985493    0.3438074386316333    0.3617799345189193    0.3721237648074075    
  0.3767644811095116    0.3779810175625336    0.3752283830567662    0.3746889083230605    0.37188874422437784    
  0.36402159292358083    0.34846263500859054    0.3245308709912374    0.29404016266431804    0.26041374847905085    
  0.2272565113748926    0.19739213271716863    0.1726056675521116    0.15376229620188672    0.14102446030153867    
  0.1341094994966112    0.13255040300224866    0.13585725107156388    0.1435146634626793    0.15486324705616608    
  0.16898137882457331    0.18466178792613094    0.20049493582425343    0.21499558061856666    0.22671603067872534    
  0.2343719992492636    0.2370382612151896    0.2343719992492636    0.22671603067872534    0.21499558061856666    
  0.20049493582425337    0.18466178792613094    0.16898137882457331    0.15486324705616603    0.1435146634626793    
  0.13585725107156393    0.13255040300224868    0.13410949949661125    0.1410244603015387    0.15376229620188675    
  0.17260566755211162    0.19739213271716863    0.2272565113748926    0.26041374847905085    0.29404016266431804    
  0.32453087099123734    0.34846263500859054    0.3640215929235809    0.37188874422437784    0.3746889083230605    
  0.3752283830567662    0.37389593431741636    0.3736024010378479    0.3714757003269786    0.3645274576920022    
  0.3498826083386416    0.32663728516686635    0.29649930405190017    0.2629184942884738    0.22960193340056395    
  0.19948330144715362    0.17443163803385406    0.15536559951085283    0.14247462077296025    0.13548179118502732    
  0.1339129966666285    0.1372682901987581    0.14502514223927618    0.15651871160576147    0.17081857239672316    
  0.18670205073453852    0.202739126974441    0.21742344389919344    0.22928917500550275    0.2370382612151896    
  0.239736605230974    0.23703826121518964    0.22928917500550275    0.21742344389919344    0.202739126974441    
  0.18670205073453852    0.17081857239672316    0.15651871160576142    0.14502514223927618    0.1372682901987581    
  0.1339129966666285    0.13548179118502734    0.14247462077296025    0.1553655995108528    0.17443163803385406    
  0.19948330144715362    0.22960193340056395    0.2629184942884739    0.29649930405190017    0.32663728516686635    
  0.3498826083386416    0.3645274576920022    0.3714757003269786    0.3736024010378479    0.37389593431741636    
  0.3752283830567662    0.3746889083230605    0.3718887442243779    0.36402159292358083    0.34846263500859054    
  0.32453087099123745    0.29404016266431804    0.2604137484790508    0.22725651137489267    0.19739213271716863    
  0.17260566755211165    0.15376229620188672    0.14102446030153865    0.13410949949661125    0.13255040300224866    
  0.13585725107156393    0.14351466346267924    0.154863247056166    0.1689813788245733    0.18466178792613094    
  0.20049493582425335    0.2149955806185666    0.22671603067872534    0.23437199924926355    0.23703826121518953    
  0.2343719992492636    0.22671603067872534    0.21499558061856666    0.20049493582425335    0.18466178792613094    
  0.1689813788245733    0.15486324705616603    0.14351466346267924    0.13585725107156393    0.13255040300224866    