#     DFTpy    
  CRYSTAL 
    
  PRIMVEC    
  6.435448275862071    0.0    0.0    
  0.0    6.435448275862071    0.0    
  0.0    0.0    3.5455172413793106    
  PRIMCOORD    
  4    1    
  Si    0.0    0.0    0.0    
  Si    3.2177241379310306    3.2177241379310306    1.7727586206896604    
  Si    0.0    3.2177241379310306    0.8863793103448302    
  Si    3.2177241379310306    0.0    2.6591379310344805    
  BEGIN_BLOCK_DATAGRID_3D    
  3d_datagrid_density    
  BEGIN_DATAGRID_3D#0    
  61    61    37    
  0.0    0.0    0.0    
  6.435448299866416    0.0    0.0    
  0.0    6.435448299866416    0.0    
  0.0    0.0    3.5455172546041576    
  0.05987531322902146    0.06881748832871362    0.09832859436209558    0.15283443882274175    0.22854039258612338    
  0.3056961981372993    0.35665295086115945    0.36565236451975364    0.33812239895098506    0.2914149776315246    
  0.24135419098301414    0.19681501907034887    0.16105498583506453    0.13437717947207778    0.11587327248274232    
  0.10437345139335892    0.09891933036111035    0.09886968904972007    0.10381656262220398    0.11349963618081144    
  0.12774563180182996    0.14634573963136124    0.16883974213867772    0.19428888721044038    0.22115971468431447    
  0.2474245223074321    0.2709345803635576    0.2899589449568021    0.3035702185134912    0.3116002091896116    
  0.31423704548223363    0.3116002091896116    0.30357021851349114    0.2899589449568021    0.27093458036355755    
  0.2474245223074321    0.22115971468431447    0.19428888721044044    0.16883974213867778    0.14634573963136124    
  0.12774563180183    0.11349963618081144    0.10381656262220394    0.09886968904972009    0.09891933036111031    
  0.10437345139335891    0.11587327248274235    0.13437717947207778    0.16105498583506453    0.19681501907034887    
  0.24135419098301414    0.2914149776315246    0.33812239895098495    0.36565236451975364    0.35665295086115945    
  0.30569619813729926    0.22854039258612338    0.15283443882274178    0.09832859436209557    0.06881748832871361    
  0.05987531322902146    0.06881748832871369    0.07824369585209204    0.10884680317280855    0.1639548526300743    
  0.2384152961969672    0.31212846961521146    0.35874550690573515    0.36432075894731514    0.3350954928818113    
  0.2880761654076526    0.23837856646551592    0.19437961166178494    0.15911450886494968    0.13281663683432415    
  0.11457039473594544    0.1032222267921405    0.09783378131917794    0.09777680480850713    0.1026477293428712    
  0.11218630770137122    0.12621990721707735    0.14454461274768507    0.1667126175567057    0.19180910664344322    
  0.21833960550130066    0.24432758874183674    0.26767134750868316    0.28665619296069755    0.30032258864906225    
  0.30843287017953513    0.3111060220814057    0.30843287017953513    0.3003225886490622    0.2866561929606976    
  0.26767134750868316    0.24432758874183674    0.21833960550130066    0.19180910664344322    0.16671261755670574    
  0.1445446127476851    0.12621990721707738    0.11218630770137125    0.10264772934287117    0.09777680480850717    
  0.0978337813191779    0.1032222267921405    0.11457039473594544    0.13281663683432413    0.15911450886494966    
  0.19437961166178497    0.23837856646551592    0.2880761654076526    0.33509549288181123    0.3643207589473151    
  0.3587455069057351    0.3121284696152114    0.23841529619696722    0.16395485263007434    0.10884680317280855    
  0.07824369585209204    0.06881748832871369    0.0983285943620956    0.10884680317280856    0.14161473515624465    
  0.19685427740884123    0.266070128849036    0.32893919688435724    0.3630933581856219    0.3593609237019793    
  0.32578765762047845    0.2781795372753505    0.22966192893590795    0.18727133713576466    0.15345526335582077    
  0.1282654363041504    0.11077161712391796    0.09986884311598893    0.09467595364849814    0.09460127516593933    
  0.09925423935424725    0.10837578343587928    0.12179547339525192    0.13932265443517816    0.16054363040409989    
  0.18460996718147726    0.2101348096031072    0.23528224841829193    0.2580810770277538    0.2768671206730549    
  0.29060422841089795    0.29887850648277836    0.301631025079817    0.29887850648277836    0.29060422841089795    
  0.2768671206730549    0.25808107702775374    0.23528224841829193    0.21013480960310724    0.18460996718147726    
  0.1605436304040999    0.1393226544351782    0.12179547339525194    0.1083757834358793    0.09925423935424722    
  0.09460127516593934    0.09467595364849808    0.09986884311598891    0.11077161712391796    0.12826543630415038    
  0.15345526335582074    0.18727133713576471    0.2296619289359079    0.2781795372753505    0.32578765762047845    
  0.35936092370197925    0.3630933581856219    0.32893919688435724    0.266070128849036    0.19685427740884123    
  0.14161473515624465    0.10884680317280855    0.0983285943620956    0.15283443882274178    0.1639548526300743    
  0.1968542774088412    0.2476547827394654    0.3045995030879198    0.3489598015675518    0.36468664367213594    
  0.34850397582458587    0.30982556858232535    0.2621833722038568    0.2158501616135324    0.1760770547896239    
  0.14455293320730767    0.12110307094908478    0.10479322629040429    0.0945983440602995    0.08972328350628589    
  0.08963004096949784    0.09394895165266003    0.10242568241553349    0.11489406508521031    0.13118112317173014    
  0.15092067560298067    0.17335938098526882    0.1972638619390015    0.22099690460657553    0.24277488168082526    
  0.2610207758167418    0.2746234782244783    0.2829636800090322    0.28576822354728537    0.2829636800090322    
  0.27462347822447825    0.2610207758167418    0.24277488168082526    0.22099690460657553    0.1972638619390015    
  0.17335938098526885    0.15092067560298073    0.13118112317173017    0.11489406508521034    0.1024256824155335    
  0.09394895165266    0.08963004096949787    0.08972328350628585    0.09459834406029947    0.1047932262904043    
  0.12110307094908478    0.14455293320730767    0.17607705478962396    0.2158501616135324    0.2621833722038568    
  0.3098255685823253    0.3485039758245858    0.36468664367213605    0.34895980156755174    0.3045995030879198    
  0.2476547827394654    0.1968542774088412    0.1639548526300743    0.15283443882274178    0.22854039258612338    
  0.23841529619696722    0.266070128849036    0.3045995030879198    0.34145609896980134    0.36212549085420187    
  0.3577067720904699    0.3297035241736269    0.28735455629034745    0.2410560519086196    0.19801670167384752    
  0.16172517208086568    0.13314961009330187    0.11191638388201171    0.09711809467007745    0.08783781434844821    
  0.08338307872869309    0.08327766439883326    0.08717956677339085    0.09484549740087349    0.10611594880162098    
  0.12083474603229419    0.13868594994902522    0.15902359977436373    0.18078854499923497    0.2025666701494252    
  0.22278922365237697    0.24000111986639097    0.25306150024106544    0.2611955422270529    0.2639562086130871    
  0.2611955422270529    0.2530615002410654    0.24000111986639097    0.22278922365237697    0.2025666701494252    
  0.18078854499923497    0.15902359977436373    0.13868594994902525    0.12083474603229419    0.10611594880162104    
  0.09484549740087349    0.08717956677339082    0.08327766439883327    0.08338307872869305    0.0878378143484482    
  0.09711809467007744    0.11191638388201171    0.13314961009330187    0.1617251720808657    0.19801670167384752    
  0.24105605190861965    0.28735455629034745    0.32970352417362686    0.3577067720904699    0.36212549085420187    
  0.3414560989698013    0.3045995030879198    0.266070128849036    0.2384152961969672    0.22854039258612338    
  0.30569619813729926    0.3121284696152114    0.3289391968843572    0.34895980156755174    0.36212549085420187    
  0.35964775071248545    0.33852801287645656    0.3026284235334144    0.2595124879510412    0.2162951341851967    
  0.17754971680691717    0.14536258244006262    0.12015169047757313    0.10142005150000034    0.08833086735977137    
  0.08009671321697444    0.0761312697937727    0.07601989295164414    0.07945399722102058    0.0862097315921906    
  0.09613676550938567    0.10909037334034287    0.12479807721689651    0.1427192267421112    0.1619702082250658    
  0.18136073510925482    0.19954240650947097    0.2152096372920937    0.2272560010875888    0.23484332882077635    
  0.23743512955428336    0.23484332882077635    0.2272560010875888    0.2152096372920937    0.19954240650947094    
  0.1813607351092548    0.1619702082250658    0.14271922674211124    0.12479807721689651    0.10909037334034284    
  0.09613676550938571    0.0862097315921906    0.07945399722102053    0.07601989295164416    0.07613126979377266    
  0.08009671321697441    0.08833086735977137    0.10142005150000033    0.12015169047757313    0.14536258244006264    
  0.17754971680691717    0.2162951341851967    0.25951248795104115    0.3026284235334144    0.33852801287645656    
  0.35964775071248545    0.36212549085420187    0.34895980156755185    0.3289391968843572    0.31212846961521135    
  0.30569619813729926    0.35665295086115945    0.3587455069057352    0.3630933581856219    0.36468664367213594    
  0.3577067720904699    0.33852801287645656    0.3076467763538602    0.26914428879287683    0.22835530307517124    
  0.18971896739505362    0.1559433350698603    0.12817656286144102    0.10648908785132791    0.09035037188943007    
  0.07903678792068093    0.07189991172339777    0.06845192449040757    0.06833479170317087    0.07127856866308982    
  0.07708766118786566    0.08562360247147215    0.09674650786841316    0.11021549439687284    0.12558305379715368    
  0.14212941956410155    0.15887620679311537    0.17468974082744385    0.18843183880108538    0.1990875109309611    
  0.20584430481375213    0.20816094751832437    0.20584430481375215    0.19908751093096114    0.1884318388010854    
  0.17468974082744382    0.15887620679311534    0.14212941956410155    0.12558305379715373    0.11021549439687288    
  0.09674650786841316    0.08562360247147219    0.07708766118786566    0.07127856866308979    0.0683347917031709    
  0.06845192449040755    0.07189991172339776    0.07903678792068092    0.09035037188943006    0.10648908785132791    
  0.12817656286144105    0.1559433350698603    0.18971896739505362    0.2283553030751712    0.26914428879287683    
  0.3076467763538602    0.33852801287645656    0.3577067720904699    0.364686643672136    0.3630933581856219    
  0.3587455069057351    0.35665295086115945    0.36565236451975364    0.3643207589473151    0.3593609237019792    
  0.3485039758245858    0.32970352417362686    0.3026284235334144    0.26914428879287683    0.23255869971598006    
  0.19633528822804042    0.1631497378270031    0.13458191169902323    0.1112294273858212    0.09298638081145794    
  0.07936596151230493    0.06978381507380682    0.06372445716295425    0.06078428747395647    0.060656312370913394    
  0.06311339023787656    0.06799468346163476    0.07517629323014358    0.08451950748214988    0.09580424735299085    
  0.10865895260008042    0.12250684663285125    0.13656153530401585    0.14989253010620665    0.16153708037913322    
  0.1706082930586259    0.17637909236996666    0.17836080608786709    0.17637909236996663    0.1706082930586259    
  0.1615370803791332    0.14989253010620662    0.13656153530401585    0.12250684663285125    0.10865895260008045    
  0.09580424735299087    0.08451950748214987    0.07517629323014359    0.06799468346163476    0.06311339023787654    
  0.060656312370913415    0.060784287473956436    0.06372445716295423    0.0697838150738068    0.07936596151230493    
  0.09298638081145794    0.1112294273858212    0.13458191169902323    0.1631497378270031    0.19633528822804042    
  0.23255869971598006    0.26914428879287683    0.3026284235334144    0.3297035241736269    0.3485039758245858    
  0.3593609237019792    0.3643207589473151    0.36565236451975364    0.33812239895098495    0.3350954928818113    
  0.3257876576204784    0.3098255685823253    0.28735455629034745    0.2595124879510412    0.2283553030751712    
  0.19633528822804047    0.16570658898618076    0.13813870243996226    0.11458725646466196    0.09535724485543214    
  0.0802889932629156    0.06898829525669595    0.06101074401666287    0.055954032578744005    0.05348368722626468    
  0.053339996407372275    0.05533962957614972    0.05935744771414636    0.06528584983948761    0.07298902899984497    
  0.08226305443177899    0.09279557581036457    0.10412627023841028    0.11563342901324798    0.12657139847688684    
  0.13615040741748882    0.14362725508815974    0.14838806732550194    0.15002324278594123    0.14838806732550192    
  0.1436272550881597    0.13615040741748885    0.1265713984768868    0.11563342901324797    0.10412627023841028    
  0.09279557581036459    0.08226305443177899    0.07298902899984495    0.06528584983948763    0.05935744771414636    
  0.055339629576149706    0.05333999640737228    0.053483687226264655    0.055954032578743984    0.06101074401666286    
  0.06898829525669595    0.0802889932629156    0.09535724485543215    0.11458725646466196    0.13813870243996226    
  0.16570658898618076    0.19633528822804044    0.22835530307517116    0.2595124879510412    0.28735455629034745    
  0.30982556858232535    0.3257876576204784    0.3350954928818113    0.33812239895098495    0.2914149776315246    
  0.2880761654076526    0.2781795372753505    0.2621833722038568    0.2410560519086196    0.21629513418519672    
  0.18971896739505362    0.16314973782700312    0.1381387024399623    0.11579738569956255    0.09674004340637564    
  0.08113599789577573    0.06884767539829617    0.05958793164880512    0.05303041452405733    0.04886101776707117    
  0.04680370200873363    0.04664395305190592    0.04823796893188123    0.05149001467902442    0.05630807682275832    
  0.06256511224098728    0.07007570544268417    0.0785747968188187    0.0876918456776694    0.09693783336645383    
  0.10572582213955818    0.1134253100980653    0.11943514296747651    0.12325929188343734    0.12457181923875504    
  0.12325929188343734    0.11943514296747648    0.1134253100980653    0.10572582213955814    0.09693783336645383    
  0.0876918456776694    0.07857479681881871    0.07007570544268418    0.06256511224098725    0.05630807682275834    
  0.05149001467902441    0.048237968931881224    0.046643953051905926    0.0468037020087336    0.04886101776707115    
  0.05303041452405732    0.05958793164880511    0.06884767539829617    0.08113599789577575    0.09674004340637565    
  0.11579738569956255    0.1381387024399623    0.16314973782700312    0.18971896739505362    0.21629513418519672    
  0.2410560519086196    0.2621833722038568    0.2781795372753505    0.2880761654076526    0.2914149776315246    
  0.2413541909830142    0.23837856646551586    0.2296619289359079    0.2158501616135324    0.19801670167384755    
  0.17754971680691722    0.15594333506986033    0.13458191169902325    0.11458725646466199    0.09674004340637564    
  0.08146740556073101    0.06889361931278856    0.0589348836255258    0.051396234656011806    0.046037949150822675    
  0.04261380764018882    0.04090144354228188    0.040729225604189116    0.041983606118211544    0.04458675859066421    
  0.04845864739740656    0.05348673775057059    0.05950949065839899    0.06630285855820245    0.07356489681938898    
  0.08090877314268761    0.08787584249756429    0.09397182639868305    0.09872300177354586    0.10174103080926881    
  0.10277557534991331    0.10174103080926881    0.09872300177354583    0.09397182639868308    0.08787584249756428    
  0.0809087731426876    0.07356489681938898    0.06630285855820246    0.05950949065839898    0.05348673775057056    
  0.04845864739740658    0.044586758590664195    0.04198360611821153    0.04072922560418913    0.04090144354228186    
  0.04261380764018881    0.046037949150822675    0.05139623465601181    0.0589348836255258    0.06889361931278855    
  0.08146740556073101    0.09674004340637564    0.11458725646466199    0.13458191169902325    0.1559433350698603    
  0.17754971680691717    0.19801670167384755    0.21585016161353246    0.2296619289359079    0.23837856646551592    
  0.2413541909830142    0.19681501907034893    0.19437961166178494    0.18727133713576466    0.17607705478962388    
  0.16172517208086565    0.14536258244006262    0.128176562861441    0.1112294273858212    0.09535724485543216    
  0.08113599789577573    0.06889361931278853    0.05874959441334463    0.050669642586514616    0.04452249917029871    
  0.040128441286523986    0.03729728676726727    0.0358578433103104    0.035676618609501276    0.0366594458637316    
  0.03873511267986503    0.041830621425469235    0.04584964397124584    0.05065698240163783    0.05606589691417632    
  0.06182908385291415    0.06763805899439185    0.073133740974305    0.07793111414147808    0.08166174901903717    
  0.08402645961783266    0.08483592590111887    0.08402645961783267    0.08166174901903715    0.0779311141414781    
  0.07313374097430499    0.06763805899439183    0.06182908385291415    0.05606589691417636    0.05065698240163783    
  0.045849643971245836    0.04183062142546925    0.03873511267986501    0.036659445863731585    0.03567661860950129    
  0.035857843310310396    0.03729728676726726    0.040128441286523986    0.044522499170298706    0.050669642586514616    
  0.05874959441334464    0.06889361931278853    0.08113599789577572    0.09535724485543216    0.1112294273858212    
  0.128176562861441    0.14536258244006262    0.16172517208086568    0.1760770547896239    0.18727133713576466    
  0.1943796116617849    0.19681501907034893    0.1610549858350645    0.15911450886494966    0.1534552633558207    
  0.1445529332073076    0.13314961009330184    0.12015169047757313    0.10648908785132785    0.09298638081145795    
  0.0802889932629156    0.06884767539829616    0.0589348836255258    0.0506696425865146    0.04404672531903381    
  0.03897444188386453    0.03531771918683808    0.03293496483203263    0.03170002084579264    0.03150944128851968    
  0.03228018097342667    0.03394173309159638    0.03642449257889923    0.03964529987889958    0.043491819612633584    
  0.047809588468897574    0.05239642913844829    0.05700525046198744    0.06135316135425681    0.06513933830044455    
  0.06807739686106162    0.06993655905932199    0.07057234326969655    0.06993655905932195    0.06807739686106161    
  0.06513933830044458    0.06135316135425678    0.05700525046198744    0.05239642913844829    0.0478095884688976    
  0.043491819612633584    0.039645299878899566    0.03642449257889925    0.033941733091596364    0.03228018097342665    
  0.0315094412885197    0.031700020845792626    0.03293496483203261    0.03531771918683808    0.03897444188386453    
  0.04404672531903381    0.0506696425865146    0.0589348836255258    0.06884767539829617    0.08028899326291558    
  0.09298638081145795    0.10648908785132784    0.12015169047757313    0.13314961009330184    0.14455293320730764    
  0.15345526335582071    0.15911450886494963    0.1610549858350645    0.13437717947207778    0.1328166368343241    
  0.12826543630415035    0.12110307094908472    0.11191638388201167    0.10142005150000034    0.09035037188943003    
  0.07936596151230493    0.06898829525669596    0.05958793164880511    0.05139623465601179    0.044522499170298706    
  0.03897444188386455    0.03468856809654561    0.03156712590211286    0.029507871576127484    0.028417451150968272    
  0.02821234507555033    0.028816824670704625    0.030161537023966865    0.03217929833680041    0.03479489408961216    
  0.03791131741640313    0.04139885814759724    0.045091542855822876    0.048790127681559506    0.052269384395504964    
  0.055292128774919756    0.057634129169181314    0.0591149967945043    0.059621302738998565    0.05911499679450431    
  0.05763412916918132    0.05529212877491978    0.05226938439550491    0.04879012768155949    0.04509154285582288    
  0.04139885814759728    0.03791131741640313    0.03479489408961216    0.032179298336800444    0.03016153702396685    
  0.028816824670704608    0.02821234507555033    0.028417451150968265    0.029507871576127477    0.03156712590211286    
  0.03468856809654561    0.03897444188386455    0.04452249917029871    0.0513962346560118    0.05958793164880513    
  0.06898829525669596    0.07936596151230493    0.09035037188943001    0.10142005150000034    0.11191638388201168    
  0.12110307094908475    0.12826543630415035    0.13281663683432413    0.13437717947207778    0.11587327248274232    
  0.11457039473594541    0.11077161712391796    0.10479322629040434    0.09711809467007744    0.08833086735977141    
  0.07903678792068096    0.06978381507380685    0.06101074401666292    0.05303041452405736    0.04603794915082268    
  0.04012844128652402    0.035317719186838126    0.03156712590211289    0.028809674752586317    0.026969753819196154    
  0.02597209381580984    0.025743843481480184    0.026215654427447447    0.02732240293930101    0.028999987052073916    
  0.031176944058555523    0.03376448148061203    0.03664956190724452    0.039692653515780996    0.0427293751124413    
  0.04557629780710466    0.04804310594519723    0.049951806031050816    0.05115863275002647    0.051571415986454046    
  0.051158632750026474    0.0499518060310508    0.04804310594519725    0.04557629780710465    0.042729375112441265    
  0.039692653515781    0.036649561907244554    0.03376448148061204    0.031176944058555523    0.028999987052073933    
  0.027322402939301004    0.026215654427447426    0.025743843481480205    0.02597209381580982    0.026969753819196148    
  0.028809674752586324    0.031567125902112886    0.035317719186838126    0.04012844128652402    0.046037949150822675    
  0.05303041452405736    0.061010744016662885    0.06978381507380686    0.07903678792068095    0.08833086735977141    
  0.09711809467007745    0.10479322629040434    0.11077161712391798    0.11457039473594541    0.11587327248274232    
  0.10437345139335895    0.10322222679214048    0.09986884311598887    0.09459834406029947    0.08783781434844817    
  0.08009671321697444    0.07189991172339778    0.06372445716295425    0.055954032578744    0.048861017767071135    
  0.042613807640188815    0.03729728676726728    0.03293496483203264    0.029507871576127484    0.02696975381919612    
  0.02525888393814903    0.024306925545292752    0.024045584559780186    0.024410770744767038    0.02534252994785741    
  0.026779954063753313    0.028653537240125614    0.030878888555102586    0.033353294365237623    0.03595415547738842    
  0.03853961773357084    0.04095404268692901    0.04303948455351591    0.04465055548168371    0.04566920154659961    
  0.04601780983615551    0.045669201546599605    0.044650555481683674    0.04303948455351593    0.040954042686929024    
  0.038539617733570807    0.03595415547738842    0.03335329436523766    0.030878888555102575    0.028653537240125614    
  0.02677995406375333    0.025342529947857392    0.024410770744767028    0.024045584559780196    0.024306925545292728    
  0.025258883938149016    0.02696975381919613    0.029507871576127477    0.032934964832032634    0.03729728676726728    
  0.042613807640188815    0.04886101776707114    0.055954032578744    0.06372445716295425    0.07189991172339774    
  0.08009671321697445    0.08783781434844819    0.09459834406029949    0.09986884311598888    0.10322222679214049    
  0.10437345139335895    0.09891933036111038    0.09783378131917793    0.09467595364849805    0.08972328350628588    
  0.08338307872869308    0.0761312697937727    0.06845192449040756    0.060784287473956485    0.05348368722626467    
  0.04680370200873363    0.04090144354228186    0.03585784331031042    0.03170002084579267    0.028417451150968297    
  0.025972093815809803    0.024306925545292745    0.023355478164752533    0.023050972023368217    0.02333161490949644    
  0.024139812915249522    0.025416337061272172    0.027093328559693965    0.02908959210735638    0.03130836168015585    
  0.03363613052979755    0.03594357183793616    0.03809150016853759    0.03994174966305953    0.041368982919161974    
  0.04227113209794418    0.04257993909445522    0.04227113209794418    0.041368982919161953    0.039941749663059585    
  0.038091500168537545    0.035943571837936145    0.03363613052979755    0.031308361680155876    0.029089592107356364    
  0.02709332855969398    0.02541633706127217    0.024139812915249515    0.02333161490949644    0.023050972023368213    
  0.023355478164752506    0.024306925545292738    0.025972093815809807    0.02841745115096828    0.03170002084579267    
  0.035857843310310424    0.04090144354228186    0.04680370200873364    0.05348368722626467    0.060784287473956505    
  0.06845192449040752    0.0761312697937727    0.08338307872869312    0.08972328350628585    0.09467595364849805    
  0.0978337813191779    0.09891933036111038    0.09886968904972009    0.09777680480850712    0.09460127516593927    
  0.0896300409694978    0.08327766439883322    0.07601989295164414    0.06833479170317085    0.06065631237091338    
  0.05333999640737223    0.04664395305190588    0.04072922560418906    0.035676618609501234    0.031509441288519666    
  0.028212345075550274    0.02574384348148011    0.024045584559780144    0.02305097202336817    0.02269270433468049    
  0.022907295974026805    0.023635139101628806    0.0248162362802649    0.026383740273962498    0.028258381811825915    
  0.030345534462872508    0.03253485416837458    0.034702668605883724    0.036718123688533354    0.038452550692472186    
  0.039789491179629925    0.04063413125596686    0.040923166848757464    0.04063413125596689    0.03978949117962994    
  0.0384525506924722    0.03671812368853333    0.0347026686058837    0.03253485416837458    0.030345534462872532    
  0.028258381811825904    0.026383740273962487    0.02481623628026491    0.023635139101628802    0.022907295974026805    
  0.022692704334680493    0.023050972023368137    0.02404558455978013    0.02574384348148011    0.028212345075550274    
  0.031509441288519666    0.03567661860950124    0.04072922560418907    0.04664395305190588    0.05333999640737224    
  0.060656312370913394    0.06833479170317083    0.07601989295164414    0.08327766439883326    0.08963004096949782    
  0.09460127516593929    0.0977768048085071    0.09886968904972009    0.10381656262220405    0.1026477293428712    
  0.09925423935424722    0.09394895165265997    0.08717956677339084    0.07945399722102056    0.07127856866308983    
  0.06311339023787661    0.055339629576149754    0.04823796893188124    0.041983606118211524    0.03665944586373161    
  0.032280180973426706    0.02881682467070465    0.026215654427447447    0.024410770744767073    0.023331614909496475    
  0.022907295974026857    0.023069425570705362    0.023753408578621373    0.024896211886676664    0.026429908815486694    
  0.028274182070054547    0.030332416587525425    0.03249286202532221    0.03463277276989248    0.0366236702558057    
  0.03833825643089158    0.039659971781624004    0.04049433530916749    0.040779614868748516    0.04049433530916749    
  0.039659971781623976    0.0383382564308916    0.036623670255805686    0.03463277276989246    0.032492862025322214    
  0.030332416587525474    0.028274182070054547    0.026429908815486694    0.02489621188667667    0.023753408578621356    
  0.023069425570705338    0.02290729597402687    0.02333161490949644    0.02441077074476705    0.026215654427447447    
  0.02881682467070465    0.032280180973426706    0.03665944586373161    0.041983606118211524    0.04823796893188124    
  0.055339629576149754    0.0631133902378766    0.0712785686630898    0.07945399722102058    0.08717956677339088    
  0.09394895165266005    0.09925423935424722    0.10264772934287117    0.10381656262220405    0.11349963618081148    
  0.11218630770137125    0.10837578343587922    0.10242568241553344    0.09484549740087346    0.08620973159219059    
  0.07708766118786564    0.06799468346163479    0.05935744771414634    0.051490014679024365    0.04458675859066416    
  0.03873511267986498    0.03394173309159636    0.030161537023966824    0.027322402939300945    0.025342529947857358    
  0.024139812915249474    0.02363513910162881    0.023753408578621307    0.024424105359625702    0.025579212758555327    
  0.027146346115944457    0.02904016764164206    0.031158338295993418    0.03338412920111026    0.035591459099688076    
  0.037648491776868076    0.03942233983814368    0.04078966411313274    0.04165165318937889    0.041945982131870715    
  0.041651653189378884    0.04078966411313274    0.0394223398381437    0.03764849177686807    0.03559145909968804    
  0.03338412920111026    0.031158338295993467    0.02904016764164207    0.02714634611594445    0.025579212758555327    
  0.024424105359625695    0.0237534085786213    0.023635139101628826    0.024139812915249442    0.02534252994785734    
  0.02732240293930096    0.03016153702396683    0.03394173309159636    0.038735112679864986    0.04458675859066416    
  0.05149001467902439    0.05935744771414634    0.06799468346163479    0.07708766118786563    0.0862097315921906    
  0.0948454974008735    0.1024256824155335    0.10837578343587925    0.11218630770137118    0.11349963618081148    
  0.12774563180182996    0.12621990721707743    0.12179547339525185    0.11489406508521031    0.10611594880162098    
  0.09613676550938573    0.08562360247147216    0.07517629323014358    0.0652858498394876    0.056308076822758305    
  0.048458647397406546    0.041830621425469255    0.03642449257889927    0.032179298336800444    0.02899998705207388    
  0.02677995406375333    0.025416337061272158    0.024816236280264945    0.02489621188667665    0.02557921275855538    
  0.026790053389148867    0.02844832399149623    0.030460508639914778    0.03271636891323182    0.03509153242870689    