#     DFTpy    
  CRYSTAL 
    
  PRIMVEC    
  6.037379310344831    0.0    0.0    
  0.0    6.037379310344831    0.0    
  0.0    0.0    3.3262068965517204    
  PRIMCOORD    
  4    1    
  Si    0.0    0.0    0.0    
  Si    3.0186896551724107    3.0186896551724107    1.6631034482758602    
  Si    0.0    3.0186896551724107    0.8315517241379301    
  Si    3.0186896551724107    0.0    2.4946551724137906    
  BEGIN_BLOCK_DATAGRID_3D    
  3d_datagrid_density    
  BEGIN_DATAGRID_3D#0    
  61    61    33    
  0.0    0.0    0.0    
  6.037379332864371    0.0    0.0    
  0.0    6.037379332864371    0.0    
  0.0    0.0    3.326206908958536    
  0.05856241930367867    0.06632277709892948    0.09176573679768418    0.13894472661106227    0.20678968448461152    
  0.2821691325874192    0.3425616318937427    0.3697029672040701    0.36096427426179406    0.3274442959602995    
  0.28379595259196166    0.24074575663352415    0.20377228551622834    0.17483530792659466    0.15410366388666538    
  0.14095304574998965    0.13454736472927792    0.13419568959147327    0.139467594704584    0.15008852848495505    
  0.1657328468688985    0.18583121958569726    0.2094384003637925    0.23516294226036638    0.261189397899124    
  0.28547034382134784    0.3061222367416315    0.32190145383769353    0.3324898567293765    0.33835408734993644    
  0.34020027516429363    0.3383540873499365    0.33248985672937653    0.32190145383769353    0.30612223674163147    
  0.28547034382134784    0.261189397899124    0.2351629422603664    0.20943840036379247    0.1858312195856973    
  0.16573284686889855    0.15008852848495507    0.139467594704584    0.13419568959147327    0.13454736472927795    
  0.14095304574998965    0.15410366388666535    0.17483530792659466    0.20377228551622834    0.24074575663352415    
  0.2837959525919617    0.3274442959602995    0.36096427426179395    0.3697029672040701    0.3425616318937427    
  0.2821691325874192    0.2067896844846116    0.1389447266110622    0.09176573679768421    0.06632277709892943    
  0.05856241930367867    0.0663227770989294    0.07445866291339735    0.10078760906277855    0.14861625215901275    
  0.21585839647962052    0.2888754309310776    0.34577840031961243    0.36964074316942597    0.35879919815452455    
  0.32444256674475175    0.280778783488197    0.23806584428976188    0.20150180668256393    0.17292378538525371    
  0.1524589543611906    0.13947777953602192    0.1331542024740104    0.13280851172079033    0.13801532076091852    
  0.14850099858151883    0.16394455562623533    0.18379183625792697    0.20712547437652634    0.23259290709545263    
  0.2584233444742135    0.2826086984056548    0.30328265618995737    0.31918266123463984    0.32993615450074265    
  0.3359390327663017    0.33783893138086235    0.33593903276630177    0.32993615450074265    0.31918266123463984    
  0.3032826561899574    0.28260869840565467    0.25842334447421356    0.23259290709545263    0.20712547437652637    
  0.18379183625792697    0.16394455562623536    0.1485009985815189    0.13801532076091852    0.13280851172079033    
  0.1331542024740104    0.13947777953602192    0.1524589543611906    0.1729237853852537    0.20150180668256393    
  0.23806584428976188    0.2807787834881971    0.32444256674475164    0.35879919815452455    0.369640743169426    
  0.3457784003196124    0.2888754309310776    0.21585839647962052    0.14861625215901267    0.10078760906277857    
  0.0744586629133974    0.0663227770989294    0.09176573679768417    0.1007876090627786    0.12902723932488502    
  0.17763213224363966    0.24187862632800788    0.307176824861312    0.3537617355427711    0.3684175285978275    
  0.3519066926493206    0.3154387745231295    0.27189538245824163    0.23023087730225056    0.19488130715405988    
  0.16735401040515507    0.14766578734805483    0.13517647645344075    0.1290909362920037    0.12876210074685737    
  0.13377856763518464    0.14386864735087615    0.15872379082883845    0.1778316801897563    0.20035193188117056    
  0.22503951983968287    0.2502484604617403    0.27408388629733815    0.29473542861775365    0.31089819155787374    
  0.3220566273980821    0.32841319473511943    0.3304521436961618    0.3284131947351195    0.3220566273980821    
  0.31089819155787374    0.2947354286177536    0.2740838862973381    0.2502484604617403    0.22503951983968282    
  0.2003519318811706    0.17783168018975634    0.15872379082883847    0.14386864735087618    0.13377856763518467    
  0.12876210074685737    0.12909093629200372    0.13517647645344077    0.14766578734805483    0.16735401040515507    
  0.19488130715405988    0.23023087730225056    0.27189538245824163    0.3154387745231296    0.3519066926493206    
  0.36841752859782756    0.35376173554277107    0.30717682486131204    0.24187862632800794    0.17763213224363966    
  0.12902723932488508    0.10078760906277856    0.09176573679768417    0.1389447266110622    0.14861625215901267    
  0.17763213224363966    0.22409929292796044    0.28028647817417385    0.33152920957107535    0.36193132434144554    
  0.3633917761416071    0.3393839797934612    0.30054940651679163    0.25766533636000183    0.21783485872731967    
  0.18445590605504178    0.15859445799864513    0.14012475293343005    0.12840316929970536    0.12268804381764493    
  0.12238360056317771    0.1270988202064833    0.13656348270734825    0.15048574148099256    0.1684123551068254    
  0.18961187848423042    0.21299196980896953    0.23708726185454515    0.2601753269182757    0.2805476416451663    
  0.29686760279557145    0.30844011935207666    0.3152032212938039    0.31740840497645023    0.3152032212938039    
  0.30844011935207666    0.29686760279557145    0.2805476416451663    0.2601753269182757    0.23708726185454515    
  0.2129919698089696    0.18961187848423044    0.1684123551068254    0.15048574148099259    0.13656348270734828    
  0.1270988202064833    0.12238360056317767    0.12268804381764496    0.12840316929970536    0.14012475293343002    
  0.1585944579986451    0.18445590605504178    0.21783485872731967    0.25766533636000183    0.30054940651679163    
  0.33938397979346113    0.3633917761416071    0.3619313243414455    0.33152920957107535    0.2802864781741739    
  0.22409929292796033    0.17763213224363966    0.14861625215901267    0.1389447266110622    0.2067896844846115    
  0.21585839647962052    0.24187862632800783    0.2802864781741739    0.32168127356534204    0.35325366343995007    
  0.3642504466710391    0.3515955259985249    0.32053732749638936    0.28026231910411226    0.23898207778574962    
  0.2018005257567974    0.17104761298745852    0.1473448990230954    0.13043343178800607    0.11968697747124107    
  0.1144400589487974    0.11416250602669033    0.11848777695483724    0.12714647340335075    0.1398644981509104    
  0.15625358644393728    0.1757022480413663    0.19728739596294784    0.21974907449917974    0.24157343691897915    
  0.2611992986045254    0.2773016435851652    0.2890303334568609    0.29605709713812206    0.2983839948118642    
  0.29605709713812206    0.28903033345686097    0.27730164358516524    0.26119929860452545    0.2415734369189791    
  0.21974907449917974    0.19728739596294786    0.17570224804136633    0.15625358644393728    0.13986449815091043    
  0.12714647340335078    0.11848777695483724    0.11416250602669031    0.11444005894879744    0.11968697747124107    
  0.13043343178800607    0.14734489902309533    0.17104761298745852    0.20180052575679738    0.23898207778574965    
  0.28026231910411226    0.3205373274963893    0.35159552599852484    0.3642504466710391    0.35325366343995    
  0.3216812735653421    0.2802864781741739    0.24187862632800783    0.2158583964796205    0.2067896844846115    
  0.28216913258741916    0.2888754309310776    0.307176824861312    0.33152920957107535    0.35325366343995007    
  0.363173397871906    0.3556855918573068    0.3313148396667173    0.29560821350806077    0.255641100460152    
  0.21708756988671382    0.1832804145681449    0.1556444691164438    0.13443402514934719    0.11929754771325618    
  0.10965497781396633    0.10493530379635371    0.10468204571029885    0.10855607026961979    0.11629046178763512    
  0.12762884044930586    0.1422442841757938    0.15963818756353335    0.1790491518851789    0.1994199572347102    
  0.21945598351712953    0.2377765725174725    0.2531257319829065    0.26456744134660626    0.27156735137537386    
  0.27391517322469705    0.2715673513753739    0.2645674413466063    0.25312573198290644    0.23777657251747245    
  0.21945598351712947    0.1994199572347102    0.17904915188517886    0.15963818756353337    0.1422442841757938    
  0.1276288404493059    0.11629046178763516    0.10855607026961979    0.10468204571029882    0.10493530379635374    
  0.10965497781396633    0.11929754771325618    0.13443402514934719    0.1556444691164438    0.1832804145681449    
  0.21708756988671382    0.2556411004601519    0.2956082135080607    0.3313148396667173    0.3556855918573068    
  0.363173397871906    0.35325366343995007    0.33152920957107535    0.307176824861312    0.2888754309310776    
  0.28216913258741916    0.3425616318937427    0.3457784003196125    0.3537617355427712    0.36193132434144554    
  0.3642504466710391    0.3556855918573068    0.3345468334467861    0.3030956386537583    0.2660459455236725    
  0.2282978942681525    0.19345520462097263    0.16352532143062537    0.13927742683393313    0.12071152722382379    
  0.10743844755043376    0.09895139673499545    0.09478173390539864    0.09454665645838722    0.0979370709628392    
  0.10469427510017312    0.11458076167717972    0.12732156100201347    0.14251231636410372    0.15953105091187142    
  0.1775032649835546    0.19534400501935462    0.2118674814705348    0.22593701603051397    0.2366140216371981    
  0.24325164456984483    0.24549959356918102    0.24325164456984483    0.2366140216371981    0.22593701603051394    
  0.21186748147053475    0.1953440050193546    0.1775032649835546    0.15953105091187142    0.14251231636410372    
  0.12732156100201344    0.11458076167717972    0.10469427510017314    0.09793707096283921    0.09454665645838721    
  0.09478173390539867    0.09895139673499544    0.10743844755043376    0.12071152722382379    0.13927742683393315    
  0.16352532143062537    0.19345520462097263    0.22829789426815242    0.2660459455236725    0.3030956386537584    
  0.33454683344678604    0.3556855918573068    0.3642504466710391    0.3619313243414455    0.3537617355427711    
  0.34577840031961254    0.3425616318937427    0.36970296720407003    0.36964074316942597    0.3684175285978275    
  0.3633917761416071    0.35159552599852484    0.3313148396667173    0.3030956386537583    0.26954245627789863    
  0.23415889073842386    0.20011376652621307    0.16959010367803035    0.1437356498882612    0.12290499354445644    
  0.10695696872726214    0.0955181429164198    0.08817126403354768    0.08454403451775999    0.0843192102393776    
  0.08722029407550287    0.09300616870153695    0.10146135383276352    0.11235163796621508    0.12534383244704098    
  0.13992766240383317    0.15538431075208137    0.1708176315255985    0.18523391128607133    0.1976467480748518    
  0.20718517147597168    0.21318231085480377    0.21522723616096465    0.21318231085480382    0.20718517147597174    
  0.1976467480748518    0.1852339112860713    0.17081763152559848    0.15538431075208137    0.13992766240383314    
  0.125343832447041    0.11235163796621508    0.10146135383276353    0.09300616870153701    0.08722029407550287    
  0.08431921023937759    0.08454403451776002    0.08817126403354768    0.0955181429164198    0.10695696872726214    
  0.12290499354445644    0.14373564988826118    0.16959010367803035    0.20011376652621304    0.2341588907384238    
  0.26954245627789875    0.30309563865375827    0.3313148396667173    0.35159552599852495    0.3633917761416071    
  0.36841752859782745    0.369640743169426    0.36970296720407003    0.36096427426179395    0.35879919815452455    
  0.3519066926493206    0.3393839797934612    0.32053732749638936    0.2956082135080607    0.26604594552367244    
  0.2341588907384238    0.20241843245664742    0.1728592570412588    0.14681222496190272    0.12492438432285545    
  0.10732238580297962    0.09381752968108621    0.08409156981366293    0.07781728258834499    0.07470071218365633    
  0.07447718659625786    0.07690512426862772    0.08177123649270635    0.0888860745836714    0.09804629193373433    
  0.10896852828822529    0.12122775075565088    0.1342332900251521    0.14725253622147    0.15946934329280452    
  0.17005765478919874    0.17825773971231293    0.18345094576648197    0.18522962038718666    0.18345094576648205    
  0.17825773971231296    0.1700576547891987    0.1594693432928045    0.14725253622147    0.1342332900251521    
  0.12122775075565088    0.10896852828822531    0.09804629193373433    0.08888607458367141    0.08177123649270639    
  0.07690512426862772    0.07447718659625784    0.07470071218365634    0.07781728258834499    0.08409156981366293    
  0.09381752968108621    0.10732238580297962    0.12492438432285545    0.14681222496190272    0.17285925704125876    
  0.20241843245664742    0.23415889073842386    0.26604594552367244    0.2956082135080607    0.3205373274963894    
  0.3393839797934612    0.3519066926493206    0.35879919815452455    0.36096427426179395    0.3274442959602995    
  0.32444256674475164    0.3154387745231296    0.30054940651679174    0.28026231910411226    0.255641100460152    
  0.22829789426815247    0.20011376652621304    0.17285925704125882    0.14790367373891455    0.1261007075618647    
  0.10782722364697028    0.09310997707767629    0.0817773108321901    0.07358371717954273    0.06827788448717517    
  0.06562144290839228    0.06538977371892947    0.06737777716146963    0.07140715445537903    0.0773169359259139    
  0.08492776791172059    0.09399097334392802    0.10414589259962491    0.11490511776569882    0.12567310051040814    
  0.135789391135352    0.14458127038676802    0.1514168170772009    0.15576309797322085    0.15725548091073457    
  0.15576309797322094    0.1514168170772009    0.144581270386768    0.135789391135352    0.1256731005104081    
  0.11490511776569882    0.10414589259962491    0.09399097334392806    0.08492776791172058    0.0773169359259139    
  0.07140715445537905    0.06737777716146963    0.06538977371892946    0.06562144290839232    0.06827788448717519    
  0.07358371717954273    0.08177731083219009    0.09310997707767629    0.10782722364697028    0.1261007075618647    
  0.14790367373891455    0.1728592570412588    0.20011376652621304    0.22829789426815242    0.255641100460152    
  0.2802623191041123    0.30054940651679163    0.3154387745231295    0.32444256674475164    0.3274442959602995    
  0.28379595259196166    0.280778783488197    0.27189538245824163    0.25766533636000183    0.23898207778574962    
  0.2170875698867138    0.1934552046209726    0.16959010367803035    0.14681222496190272    0.12610070756186464    
  0.10804321016226406    0.09288408015278544    0.08062933905485901    0.0711555546417168    0.06428485972671935    
  0.059820157924587856    0.057559808628357134    0.05731137669928593    0.058906015479696865    0.06220128887466812    
  0.06706340137888507    0.07333313430524319    0.08078912510312682    0.08912183779365762    0.09792664353994779    
  0.10671913430334812    0.11496826410554768    0.12213552107702268    0.12771227653780218    0.13126274634695592    
  0.132483046508052    0.13126274634695598    0.12771227653780218    0.12213552107702261    0.11496826410554765    
  0.10671913430334809    0.09792664353994779    0.08912183779365762    0.08078912510312682    0.07333313430524316    
  0.06706340137888507    0.06220128887466816    0.058906015479696865    0.05731137669928592    0.05755980862835716    
  0.05982015792458786    0.06428485972671935    0.0711555546417168    0.08062933905485901    0.09288408015278544    
  0.10804321016226404    0.12610070756186462    0.1468122249619027    0.16959010367803032    0.19345520462097257    
  0.2170875698867138    0.23898207778574962    0.2576653363600018    0.27189538245824163    0.28077878348819707    
  0.28379595259196166    0.2407457566335241    0.23806584428976188    0.23023087730225053    0.21783485872731972    
  0.20180052575679747    0.1832804145681449    0.16352532143062537    0.14373564988826124    0.12492438432285549    
  0.10782722364697035    0.09288408015278546    0.08028684035281838    0.07005897472790197    0.062126203122457174    
  0.05635878511157272    0.05259413926945213    0.050657620470292826    0.05038619414373604    0.051644052523056386    
  0.05431857579991866    0.05829758580982195    0.06343967759566796    0.06954918953158305    0.07636107780141949    
  0.0835382068223735    0.09068410669530293    0.09736981390134053    0.10316518244016455    0.10766696740002261    
  0.1105302553586281    0.11151396023996284    0.11053025535862815    0.10766696740002264    0.10316518244016452    
  0.09736981390134049    0.0906841066953029    0.0835382068223735    0.07636107780141947    0.06954918953158308    
  0.06343967759566795    0.058297585809821924    0.05431857579991868    0.0516440525230564    0.050386194143736025    
  0.05065762047029285    0.05259413926945214    0.05635878511157272    0.06212620312245717    0.07005897472790197    
  0.08028684035281836    0.09288408015278546    0.1078272236469703    0.12492438432285548    0.14373564988826124    
  0.16352532143062534    0.1832804145681449    0.20180052575679752    0.21783485872731967    0.23023087730225053    
  0.23806584428976194    0.2407457566335241    0.2037722855162283    0.2015018066825639    0.19488130715405988    
  0.1844559060550418    0.17104761298745857    0.1556444691164438    0.13927742683393313    0.12290499354445644    
  0.10732238580297968    0.0931099770776763    0.080629339054859    0.07005897472790196    0.061445602955433665    
  0.05474715742940436    0.049861257204621486    0.04664880186295787    0.04496072300030914    0.04466266829938185    
  0.045645378528157546    0.04781561277738806    0.051074737712079155    0.05529657843495051    0.060310936869035575    
  0.06589347770155007    0.07176347527414102    0.0775937088141624    0.08303284584966862    0.08773245009760046    
  0.09137110467470362    0.09367902243778424    0.09447065679941961    0.09367902243778428    0.09137110467470363    
  0.08773245009760045    0.0830328458496686    0.07759370881416237    0.07176347527414102    0.06589347770155006    
  0.060310936869035596    0.05529657843495051    0.05107473771207913    0.04781561277738807    0.04564537852815755    
  0.044662668299381834    0.04496072300030918    0.04664880186295787    0.0498612572046215    0.05474715742940436    
  0.06144560295543368    0.07005897472790194    0.08062933905485901    0.09310997707767629    0.10732238580297965    
  0.12290499354445646    0.1392774268339331    0.1556444691164438    0.17104761298745857    0.18445590605504175    
  0.19488130715405985    0.20150180668256393    0.2037722855162283    0.17483530792659455    0.1729237853852537    
  0.16735401040515507    0.15859445799864516    0.1473448990230954    0.13443402514934719    0.12071152722382372    
  0.10695696872726213    0.09381752968108623    0.0817773108321901    0.0711555546417168    0.06212620312245715    
  0.05474715742940434    0.04898975259526862    0.04476649480667619    0.04195922305402477    0.0404458780010328    
  0.04011839712927982    0.040885639916015654    0.0426632675433384    0.0453586010957028    0.04885702903259908    
  0.05301119579341235    0.05763238345152309    0.06248682494896061    0.06730216603070999    0.07178546825869771    
  0.07564735717820184    0.07862566459763941    0.08050742676183123    0.08115130841243147    0.0805074267618313    
  0.07862566459763944    0.07564735717820177    0.07178546825869771    0.06730216603070996    0.06248682494896061    
  0.05763238345152308    0.05301119579341237    0.04885702903259906    0.04535860109570281    0.04266326754333842    
  0.04088563991601566    0.04011839712927981    0.04044587800103282    0.041959223054024775    0.044766494806676195    
  0.04898975259526862    0.05474715742940434    0.06212620312245714    0.07115555464171677    0.08177731083219006    
  0.0938175296810862    0.10695696872726213    0.1207115272238237    0.13443402514934719    0.14734489902309542    
  0.1585944579986451    0.16735401040515502    0.17292378538525371    0.17483530792659455    0.1541036638866653    
  0.1524589543611906    0.14766578734805477    0.14012475293343005    0.13043343178800604    0.11929754771325615    
  0.10743844755043376    0.0955181429164198    0.08409156981366293    0.0735837171795427    0.06428485972671935    
  0.05635878511157271    0.04986125720462151    0.04476649480667619    0.040998169169540404    0.03845909811999024    
  0.037052619465076916    0.03669122471339361    0.037293919273146736    0.03877833906952224    0.04105297677674684    
  0.044010535438588176    0.04752069166239057    0.05142223902996129    0.05551823569418964    0.05957904177931046    
  0.06335555265844316    0.06660063581186784    0.06909362267381372    0.0706621164787257    0.07119730543053715    
  0.07066211647872574    0.06909362267381375    0.0666006358118678    0.06335555265844314    0.05957904177931043    
  0.055518235694189635    0.051422239029961306    0.04752069166239059    0.04401053543858815    0.041052976776746825    
  0.038778339069522244    0.03729391927314673    0.03669122471339359    0.03705261946507695    0.038459098119990244    
  0.0409981691695404    0.044766494806676195    0.04986125720462151    0.05635878511157271    0.06428485972671935    
  0.07358371717954267    0.0840915698136629    0.09551814291641982    0.10743844755043372    0.11929754771325612    
  0.1304334317880061    0.14012475293343    0.14766578734805477    0.1524589543611906    0.1541036638866653    
  0.14095304574998965    0.13947777953602192    0.13517647645344075    0.12840316929970536    0.11968697747124109    
  0.10965497781396631    0.09895139673499545    0.08817126403354768    0.07781728258834501    0.06827788448717521    
  0.05982015792458786    0.05259413926945213    0.04664880186295787    0.04195922305402474    0.03845909811999023    
  0.036068552894681534    0.034709233658916795    0.03430619919078698    0.03478295039261468    0.03605652883788477    
  0.03803487680792503    0.04061423393567775    0.04367425101590814    0.04707152134168609    0.0506346957934975    
  0.054164896210070104    0.05744470529999752    0.060257050266165436    0.06241021267579439    0.06375972221643593    
  0.06421900542414935    0.06375972221643597    0.06241021267579444    0.06025705026616541    0.057444705299997505    
  0.054164896210070104    0.0506346957934975    0.04707152134168613    0.043674251015908154    0.04061423393567776    
  0.038034876807925    0.0360565288378848    0.034782950392614684    0.034306199190786965    0.034709233658916816    
  0.036068552894681534    0.03845909811999024    0.04195922305402475    0.04664880186295787    0.05259413926945212    
  0.059820157924587856    0.06827788448717516    0.07781728258834493    0.08817126403354769    0.09895139673499542    
  0.10965497781396635    0.11968697747124112    0.12840316929970533    0.13517647645344075    0.13947777953602192    
  0.14095304574998965    0.13454736472927786    0.13315420247401039    0.1290909362920037    0.1226880438176449    
  0.11444005894879737    0.10493530379635366    0.09478173390539862    0.08454403451775999    0.0747007121836563    
  0.06562144290839227    0.05755980862835711    0.05065762047029279    0.04496072300030912    0.040445878001032776    
  0.037052619465076916    0.03470923365891681    0.033344940706745985    0.03288939313367452    0.03326732746717561    
  0.03439508096751051    0.03617983646008949    0.03851868063571699    0.04129541906475077    0.04437574883181867    
  0.047602878611330245    0.05079654862096854    0.0537596254176107    0.0562953158378572    0.05823158138324106    
  0.05944193588155899    0.059853159308654126    0.05944193588155903    0.058231581383241096    0.0562953158378572    
  0.0537596254176107    0.0507965486209685    0.047602878611330245    0.044375748831818655    0.04129541906475079    
  0.038518680635716986    0.03617983646008949    0.03439508096751051    0.033267327467175624    0.0328893931336745    
  0.033344940706746005    0.03470923365891681    0.037052619465076916    0.04044587800103278    0.04496072300030913    
  0.050657620470292784    0.05755980862835711    0.06562144290839225    0.07470071218365626    0.08454403451776002    
  0.09478173390539857    0.10493530379635368    0.11444005894879741    0.1226880438176449    0.12909093629200363    
  0.13315420247401039    0.13454736472927786    0.13419568959147324    0.1328085117207903    0.12876210074685732    
  0.12238360056317767    0.11416250602669033    0.10468204571029882    0.09454665645838715    0.08431921023937755    
  0.07447718659625786    0.06538977371892946    0.05731137669928592    0.05038619414373603    0.04466266829938185    
  0.04011839712927981    0.036691224713393575    0.03430619919078696    0.032889393133674526    0.032368361679395136    
  0.03266664548848476    0.03369956789925466    0.03537309696416881    0.03758342351695368    0.04021490641502408    
  0.043136080844117804    0.046195357923746454    0.04921988229131113    0.05202218896050939    0.054417003061161026    
  0.05624382057739597    0.05738514920757949    0.057772854234309834    0.05738514920757951    0.056243820577396    
  0.054417003061161005    0.05202218896050937    0.04921988229131107    0.04619535792374646    0.043136080844117804    
  0.040214906415024114    0.03758342351695368    0.03537309696416881    0.033699567899254684    0.03266664548848476    
  0.03236836167939511    0.032889393133674553    0.034306199190786965    0.03669122471339358    0.04011839712927981    
  0.04466266829938185    0.05038619414373603    0.05731137669928594    0.06538977371892944    0.07447718659625782    
  0.08431921023937758    0.09454665645838714    0.10468204571029885    0.11416250602669033    0.12238360056317767    
  0.12876210074685732    0.1328085117207903    0.13419568959147324    0.13946759470458397    0.13801532076091852    
  0.13377856763518464    0.12709882020648333    0.11848777695483727    0.10855607026961976    0.09793707096283921    
  0.08722029407550286    0.07690512426862776    0.06737777716146967    0.058906015479696865    0.0516440525230564    
  0.045645378528157574    0.040885639916015674    0.03729391927314677    0.03478295039261472    0.03326732746717566    
  0.03266664548848478    0.03289985607901361    0.033879350540530824    0.03550855525373393    0.03768144308514598    
  0.040280706685855865    0.04317330703070356    0.046205640357764116    0.04920327601967064    0.05197958236827607    
  0.05435284136602074    0.05616592093227485    0.05730120251143707    0.05768750349759638    0.05730120251143711    
  0.05616592093227491    0.054352841366020734    0.05197958236827607    0.049203276019670616    0.046205640357764116    
  0.04317330703070355    0.040280706685855885    0.037681443085145976    0.03550855525373393    0.03387935054053083    
  0.03289985607901362    0.03266664548848477    0.033267327467175686    0.034782950392614725    0.03729391927314677    
  0.04088563991601569    0.04564537852815757    0.051644052523056386    0.058906015479696865    0.06737777716146964    
  0.07690512426862772    0.0872202940755029    0.09793707096283916    0.10855607026961979    0.11848777695483727    
  0.12709882020648333    0.13377856763518461    0.13801532076091852    0.13946759470458397    0.15008852848495505    
  0.14850099858151883    0.14386864735087612    0.13656348270734828    0.12714647340335078    0.11629046178763512    
  0.10469427510017312    0.09300616870153694    0.08177123649270639    0.07140715445537905    0.06220128887466815    
  0.05431857579991863    0.047815612777388064    0.04266326754333839    0.03877833906952223    0.036056528837884814    
  0.03439508096751054    0.0336995678992547    0.03387935054053082    0.034840637862688414    0.036482549941292554    
  0.0386954974071774    0.04135827193369482    0.04433229626215219    0.04745636151473758    0.050548054087377    
  0.053414963052121685    0.05587181744424042    0.05775653643037645    0.058942211151939365    0.05934693767592555    
  0.05894221115193942    0.05775653643037646    0.05587181744424039    0.05341496305212168    0.05054805408737697    
  0.04745636151473758    0.04433229626215218    0.04135827193369483    0.038695497407177384    0.03648254994129258    
  0.03484063786268843    0.03387935054053084    0.03369956789925469    0.034395080967510545    0.03605652883788482    
  0.038778339069522244    0.04266326754333839    0.04781561277738806    0.054318575799918646    0.06220128887466814    
  0.07140715445537903    0.08177123649270635    0.09300616870153697    0.1046942751001731    0.11629046178763515    
  0.12714647340335078    0.13656348270734828    0.14386864735087612    0.14850099858151883    0.15008852848495505    
  0.16573284686889847    0.16394455562623528    0.15872379082883842    0.15048574148099256    0.1398644981509104    
  0.1276288404493058    0.1145807616771797    0.10146135383276349    0.08888607458367136    0.07731693592591388    
  0.06706340137888506    0.0582975858098219    0.05107473771207914    0.04535860109570279    0.04105297677674682    
  0.03803487680792503    0.03617983646008951    0.035373096964168786    0.035508555253733906    0.03648254994129255    
  0.038188119794346595    0.04051054205570119    0.043321903552921516    0.04647397632152295    0.049793349337155526    
  0.05308498466132625    0.05614545098128355    0.05877922167474018    0.060811114981822435    0.062096688152039545    