#     DFTpy    
  CRYSTAL 
    
  PRIMVEC    
  5.93786206896552    0.0    0.0    
  0.0    5.93786206896552    0.0    
  0.0    0.0    3.2713793103448303    
  PRIMCOORD    
  4    1    
  Si    0.0    0.0    0.0    
  Si    2.96893103448276    2.96893103448276    1.6356896551724103    
  Si    0.0    2.96893103448276    0.8178448275862102    
  Si    2.96893103448276    0.0    2.4535344827586205    
  BEGIN_BLOCK_DATAGRID_3D    
  3d_datagrid_density    
  BEGIN_DATAGRID_3D#0    
  61    61    33    
  0.0    0.0    0.0    
  5.93786209111386    0.0    0.0    
  0.0    5.93786209111386    0.0    
  0.0    0.0    3.271379322547138    
  0.058171662268703205    0.06564495673117653    0.09010612346613887    0.13549866724619364    0.20130258997281464    
  0.2758959847265127    0.3382033201403808    0.3697851569387528    0.3662062478149562    0.33673465783807677    
  0.29536582015090457    0.2531639270111014    0.21621207916379534    0.18692540294914334    0.16573893878246604    
  0.1521769566740564    0.14548222013410986    0.1449992835108211    0.15030552695618907    0.16110347683548157    
  0.17699940231011044    0.19731076784708254    0.22096227321017084    0.2464573855713578    0.27193189885052577    
  0.2953597376219957    0.3149516605463753    0.32962160905048393    0.33924035127934316    0.3444463862449902    
  0.3460601457691886    0.34444638624499024    0.33924035127934327    0.32962160905048393    0.3149516605463753    
  0.29535973762199574    0.2719318988505258    0.24645738557135788    0.22096227321017084    0.1973107678470826    
  0.17699940231011044    0.1611034768354816    0.15030552695618907    0.1449992835108211    0.1454822201341098    
  0.1521769566740564    0.1657389387824661    0.18692540294914334    0.2162120791637953    0.25316392701110146    
  0.29536582015090457    0.33673465783807677    0.36620624781495625    0.3697851569387528    0.3382033201403808    
  0.2758959847265128    0.20130258997281464    0.13549866724619364    0.0901061234661388    0.0656449567311765    
  0.058171662268703205    0.0656449567311765    0.07347228920588957    0.09877899261112544    0.1448324171085184    
  0.21016968327711208    0.2826404549687054    0.34166561141361024    0.3700231194093238    0.36425430836706474    
  0.33381429906206556    0.2923281046523218    0.25040749505556187    0.21384177279403357    0.18490974976933128    
  0.16399692218397724    0.15061642090672894    0.1440154989301081    0.14354619081200665    0.1487900658228436    
  0.1594521183123097    0.17514616989251464    0.1952084898423353    0.21859562703876684    0.24385334038345782    
  0.26916341225123647    0.29253704419455534    0.3121967474179181    0.3270303153101025    0.3368477658689297    
  0.3422132556320612    0.3438876781716042    0.3422132556320611    0.3368477658689297    0.3270303153101025    
  0.31219674741791814    0.2925370441945553    0.26916341225123647    0.24385334038345785    0.21859562703876678    
  0.1952084898423353    0.1751461698925146    0.15945211831230974    0.14879006582284363    0.14354619081200665    
  0.14401549893010807    0.15061642090672894    0.16399692218397727    0.18490974976933128    0.21384177279403357    
  0.25040749505556187    0.29232810465232184    0.33381429906206556    0.36425430836706474    0.3700231194093238    
  0.3416656114136102    0.2826404549687054    0.21016968327711208    0.14483241710851838    0.0987789926111254    
  0.07347228920588955    0.0656449567311765    0.09010612346613887    0.09877899261112545    0.125947572295638    
  0.1729126938678895    0.23573506832797217    0.301196240366628    0.3504511643242594    0.36969726221548804    
  0.3579759661946932    0.3250421392966533    0.2833896779141545    0.24236045751711172    0.20694123193853217    
  0.17904324487382198    0.1589204863142074    0.14605971895714479    0.13972454574393312    0.13929010179096943    
  0.14435010404875298    0.15461588612994875    0.16972154264243144    0.18905477104091106    0.21165934302814268    
  0.23619717749526778    0.2609781787488081    0.2841214213422545    0.3038908305863879    0.3191119582263951    
  0.32943342144689847    0.3352145770361412    0.3370488949597392    0.3352145770361412    0.32943342144689847    
  0.31911195822639515    0.3038908305863879    0.28412142134225454    0.2609781787488081    0.2361971774952678    
  0.21165934302814263    0.1890547710409111    0.16972154264243144    0.15461588612994875    0.14435010404875304    
  0.13929010179096943    0.1397245457439331    0.1460597189571448    0.1589204863142074    0.17904324487382195    
  0.20694123193853217    0.24236045751711166    0.2833896779141545    0.3250421392966533    0.35797596619469324    
  0.36969726221548804    0.3504511643242594    0.301196240366628    0.2357350683279722    0.17291269386788952    
  0.12594757229563797    0.09877899261112544    0.09010612346613887    0.13549866724619364    0.14483241710851838    
  0.1729126938678895    0.21822609435886792    0.27391786852904987    0.3263906179666806    0.36011640094212816    
  0.36612376324599794    0.34638157483871895    0.3104884199956227    0.2690753212797917    0.2296513204101356    
  0.19609776317920968    0.1698306530729827    0.1509326010338727    0.13886587605017517    0.13292891739611434    
  0.1325367902592315    0.13730225491356715    0.1469444761706941    0.1611247873917225    0.1793024623777302    
  0.20064295412907238    0.2239710936764648    0.2477812081090428    0.2703582878809521    0.29004942100156056    
  0.3056206387164072    0.3165125504356025    0.32279996857081433    0.3248344583816704    0.32279996857081433    
  0.3165125504356026    0.3056206387164072    0.2900494210015606    0.2703582878809521    0.2477812081090428    
  0.22397109367646487    0.20064295412907235    0.1793024623777302    0.1611247873917225    0.14694447617069412    
  0.13730225491356718    0.1325367902592315    0.13292891739611434    0.1388658760501752    0.15093260103387274    
  0.1698306530729827    0.19609776317920968    0.22965132041013558    0.2690753212797917    0.3104884199956227    
  0.346381574838719    0.3661237632459978    0.3601164009421282    0.3263906179666806    0.27391786852904987    
  0.21822609435886792    0.17291269386788946    0.14483241710851838    0.13549866724619364    0.20130258997281464    
  0.21016968327711205    0.23573506832797217    0.27391786852904987    0.3160642220174813    0.34995042819631283    
  0.364670196614121    0.35618509795286585    0.32861574135115235    0.2905512725976847    0.25025764215014507    
  0.21322103713851429    0.18216736688630814    0.15800759821209376    0.14065946698774218    0.12958055480984512    
  0.12412803709935769    0.12377341168738117    0.1281539082457648    0.13699605996245856    0.14998943394155365    
  0.1666707661686091    0.18633753898048136    0.2079926790450339    0.23033905543503866    0.25186485908118894    
  0.27104723560802596    0.28663430570788156    0.2978769641243382    0.30455520946261994    0.3067553181455233    
  0.30455520946262    0.2978769641243382    0.28663430570788156    0.27104723560802596    0.25186485908118905    
  0.23033905543503863    0.20799267904503393    0.18633753898048133    0.1666707661686091    0.14998943394155362    
  0.1369960599624586    0.1281539082457648    0.1237734116873812    0.12412803709935766    0.1295805548098451    
  0.1406594669877422    0.1580075982120938    0.18216736688630814    0.21322103713851429    0.25025764215014507    
  0.2905512725976847    0.3286157413511524    0.3561850979528658    0.364670196614121    0.34995042819631283    
  0.3160642220174813    0.27391786852904987    0.2357350683279721    0.21016968327711205    0.20130258997281464    
  0.27589598472651267    0.2826404549687054    0.301196240366628    0.3263906179666806    0.3499504281963128    
  0.362793211272584    0.3588658028321287    0.3378827273293034    0.30470654898897426    0.26617802835353777    
  0.22813037624223775    0.19421201898356702    0.16614973769028807    0.1444270952302631    0.1288366653984636    
  0.11886156841568603    0.1139408059182624    0.11361469866531869    0.11754847358546872    0.12547539794230345    
  0.1371108255968482    0.152063965992591    0.16975599846320194    0.18935861050810743    0.20977981924064965    
  0.2297239847945042    0.24783615742557544    0.262907354278849    0.2740668248498249    0.28085480581214056    
  0.2831236867120417    0.28085480581214056    0.2740668248498249    0.262907354278849    0.24783615742557544    
  0.22972398479450415    0.20977981924064965    0.18935861050810746    0.16975599846320194    0.152063965992591    
  0.1371108255968482    0.12547539794230345    0.11754847358546874    0.11361469866531866    0.11394080591826238    
  0.11886156841568603    0.12883666539846367    0.14442709523026306    0.16614973769028807    0.194212018983567    
  0.22813037624223775    0.26617802835353777    0.30470654898897426    0.3378827273293034    0.35886580283212877    
  0.362793211272584    0.34995042819631283    0.3263906179666806    0.301196240366628    0.2826404549687054    
  0.27589598472651267    0.3382033201403808    0.34166561141361024    0.3504511643242594    0.3601164009421282    
  0.364670196614121    0.35886580283212866    0.3405360662086968    0.3114165643292353    0.27590568700317514    
  0.23888169206002688    0.20411944173638377    0.1738565342374084    0.14907837861585221    0.1299580512289605    
  0.11621717295369043    0.1073942045244239    0.10302416612244421    0.10272034912337821    0.10617741931495155    
  0.11313666277281728    0.12333669958135277    0.13644872822752266    0.1519993550339063    0.1693069773814609    
  0.18746495381688508    0.2053859960479078    0.22190149748364074    0.2359008404656605    0.24647862963920059    
  0.2530295192157099    0.2552428925672577    0.2530295192157099    0.24647862963920053    0.2359008404656605    
  0.2219014974836408    0.20538599604790786    0.18746495381688508    0.1693069773814609    0.15199935503390627    
  0.13644872822752266    0.12333669958135277    0.11313666277281727    0.10617741931495156    0.10272034912337821    
  0.10302416612244418    0.1073942045244239    0.11621717295369044    0.12995805122896048    0.14907837861585221    
  0.17385653423740843    0.20411944173638377    0.23888169206002693    0.2759056870031752    0.3114165643292353    
  0.34053606620869686    0.35886580283212877    0.36467019661412103    0.36011640094212827    0.3504511643242594    
  0.3416656114136103    0.3382033201403808    0.3697851569387528    0.3700231194093237    0.3696972622154881    
  0.3661237632459978    0.3561850979528658    0.33788272732930347    0.3114165643292353    0.27912322449457666    
  0.24440914229712787    0.21050045284900526    0.17971587580744697    0.15335781504074078    0.1319281283863647    
  0.11540720704295263    0.10349924627962491    0.09581813670701188    0.09199480442678877    0.09170999945579393    
  0.09468793397242341    0.10068248803109993    0.1094552452858731    0.12072779143940698    0.13411098328506824    
  0.14904449614834908    0.1647811291546678    0.18042120016024063    0.19498072858604742    0.20748251641630105    
  0.21706343839770686    0.22307161535514292    0.2251167885582822    0.22307161535514292    0.21706343839770686    
  0.20748251641630105    0.19498072858604745    0.18042120016024066    0.1647811291546678    0.1490444961483491    
  0.13411098328506824    0.12072779143940698    0.10945524528587307    0.10068248803109993    0.09468793397242346    
  0.09170999945579396    0.09199480442678874    0.09581813670701188    0.10349924627962495    0.11540720704295263    
  0.1319281283863647    0.15335781504074078    0.17971587580744694    0.21050045284900526    0.24440914229712787    
  0.27912322449457666    0.3114165643292353    0.33788272732930347    0.3561850979528658    0.3661237632459978    
  0.36969726221548804    0.3700231194093237    0.3697851569387528    0.36620624781495625    0.36425430836706474    
  0.3579759661946932    0.346381574838719    0.32861574135115235    0.30470654898897426    0.27590568700317514    
  0.24440914229712787    0.21268163941044288    0.1828255306312282    0.1562701168771806    0.13376552922937976    
  0.115533573892948    0.10146125138886629    0.09127794581501723    0.08467822999638586    0.08137489674206078    
  0.08110385348815637    0.08361919932228654    0.0886950232512423    0.09611801263839434    0.10564981650110467    
  0.11696544160569676    0.1296015156380546    0.14294380410463717    0.15625381540236663    0.16871642525807543    
  0.179500531004216    0.18783675726384894    0.19310488458255076    0.19490644843669935    0.19310488458255076    
  0.18783675726384894    0.17950053100421598    0.16871642525807543    0.15625381540236663    0.14294380410463717    
  0.12960151563805464    0.11696544160569675    0.10564981650110467    0.09611801263839434    0.08869502325124229    
  0.08361919932228655    0.08110385348815637    0.08137489674206076    0.08467822999638587    0.09127794581501726    
  0.10146125138886629    0.115533573892948    0.13376552922937976    0.1562701168771806    0.18282553063122822    
  0.21268163941044294    0.24440914229712787    0.2759056870031752    0.3047065489889743    0.3286157413511524    
  0.346381574838719    0.3579759661946932    0.36425430836706474    0.36620624781495625    0.33673465783807677    
  0.33381429906206556    0.3250421392966533    0.3104884199956227    0.2905512725976847    0.2661780283535378    
  0.23888169206002688    0.21050045284900532    0.1828255306312282    0.15728917954311017    0.13482235945190482    
  0.11587374082558959    0.10052641053122595    0.08864733858524446    0.08001593495741546    0.07439795468205275    
  0.0715661266441451    0.07129801446801043    0.07337911485095693    0.07761197860056238    0.08381122945426979    
  0.09177048706542906    0.10121224234018313    0.11174872697956253    0.12287359661731329    0.13398188567031524    
  0.1444045688521799    0.1534524215404343    0.16047408067175364    0.16492810549152684    0.16645481167217865    
  0.16492810549152684    0.16047408067175364    0.15345242154043426    0.14440456885217987    0.13398188567031527    
  0.12287359661731329    0.1117487269795626    0.10121224234018311    0.09177048706542908    0.08381122945426979    
  0.07761197860056238    0.07337911485095695    0.07129801446801044    0.0715661266441451    0.07439795468205275    
  0.0800159349574155    0.08864733858524446    0.10052641053122595    0.11587374082558957    0.13482235945190485    
  0.1572891795431102    0.1828255306312282    0.2105004528490053    0.23888169206002688    0.2661780283535378    
  0.29055127259768476    0.31048841999562277    0.32504213929665327    0.33381429906206556    0.33673465783807677    
  0.29536582015090457    0.2923281046523218    0.28338967791415454    0.2690753212797917    0.25025764215014507    
  0.22813037624223775    0.20411944173638377    0.17971587580744694    0.15627011687718054    0.13482235945190482    
  0.11602658043474803    0.10017802849248923    0.08731155398349916    0.07731790763269542    0.07003114708982235    
  0.06526936421669587    0.06284399061657873    0.06256436578533459    0.06424904463204652    0.06773405698365509    
  0.07286281121697281    0.0794551452723339    0.08726950947939016    0.09597699361214586    0.10515690406130311    
  0.1143115215248764    0.12289307600215825    0.13033941091489665    0.13611931863573873    0.1397879860792417    
  0.1410461860849869    0.13978798607924167    0.13611931863573878    0.13033941091489662    0.12289307600215828    
  0.11431152152487638    0.10515690406130311    0.09597699361214587    0.08726950947939015    0.07945514527233388    
  0.0728628112169728    0.06773405698365506    0.06424904463204655    0.06256436578533463    0.06284399061657873    
  0.06526936421669587    0.07003114708982239    0.07731790763269542    0.08731155398349916    0.10017802849248923    
  0.11602658043474803    0.13482235945190485    0.15627011687718054    0.17971587580744697    0.20411944173638377    
  0.22813037624223775    0.2502576421501451    0.2690753212797917    0.28338967791415454    0.29232810465232184    
  0.29536582015090457    0.25316392701110146    0.25040749505556187    0.24236045751711166    0.22965132041013558    
  0.21322103713851429    0.19421201898356702    0.17385653423740835    0.15335781504074084    0.13376552922937976    
  0.11587374082558954    0.1001780284924892    0.086904989932159    0.07609063799933796    0.0676639293541148    
  0.06150246825728685    0.0574572458375036    0.055364665205332154    0.05506104697496847    0.05639737811584784    
  0.05924180566494047    0.06346344426387143    0.06890431017624439    0.07535267657864689    0.08252732451865981    
  0.09007543508272661    0.09758377951930025    0.10460192806248086    0.11067419502036488    0.11537641588888473    
  0.11835650839915537    0.11937785227627216    0.11835650839915535    0.11537641588888475    0.11067419502036488    
  0.1046019280624809    0.09758377951930024    0.09007543508272661    0.08252732451865982    0.07535267657864687    
  0.06890431017624439    0.06346344426387145    0.05924180566494046    0.05639737811584788    0.0550610469749685    
  0.05536466520533214    0.057457245837503584    0.061502468257286884    0.0676639293541148    0.07609063799933796    
  0.086904989932159    0.1001780284924892    0.11587374082558957    0.1337655292293798    0.1533578150407408    
  0.17385653423740835    0.19421201898356702    0.21322103713851434    0.2296513204101356    0.24236045751711166    
  0.25040749505556187    0.25316392701110146    0.2162120791637954    0.21384177279403357    0.20694123193853214    
  0.1960977631792097    0.18216736688630814    0.16614973769028812    0.14907837861585216    0.13192812838636475    
  0.11553357389294797    0.10052641053122593    0.08731155398349917    0.07609063799933798    0.06691649509654557    
  0.0597488555263249    0.05449216412240714    0.05101776106615608    0.04918251034334326    0.0488481079968947    
  0.049893378196825995    0.052210798977855376    0.05568836400045166    0.06018676848082856    0.06552129315931259    
  0.0714515589996257    0.07767960467895006    0.08385872640018686    0.0896148857796059    0.09457651584757978    
  0.09840531903455564    0.10082559032025437    0.10165394977026176    0.10082559032025437    0.09840531903455565    
  0.09457651584757976    0.08961488577960591    0.08385872640018685    0.07767960467895006    0.07145155899962571    
  0.06552129315931257    0.06018676848082856    0.05568836400045166    0.052210798977855355    0.04989337819682602    
  0.04884810799689473    0.04918251034334325    0.05101776106615607    0.05449216412240719    0.05974885552632488    
  0.06691649509654557    0.07609063799933796    0.08731155398349917    0.10052641053122595    0.115533573892948    
  0.1319281283863647    0.1490783786158522    0.16614973769028812    0.18216736688630816    0.1960977631792097    
  0.20694123193853214    0.21384177279403357    0.2162120791637954    0.18692540294914334    0.18490974976933122    
  0.17904324487382198    0.16983065307298267    0.15800759821209376    0.1444270952302631    0.12995805122896043    
  0.11540720704295263    0.10146125138886626    0.08864733858524444    0.07731790763269537    0.0676639293541148    
  0.05974885552632486    0.0535474398058398    0.04897822003262982    0.045928879744040016    0.04427772097604018    
  0.043910156700467266    0.044725041296089015    0.046628421101064195    0.04951891585031757    0.0532719179743643    
  0.05772689265132909    0.06267855603924352    0.06787372401489604    0.07301849748935538    0.07779815421128687    
  0.0819046552454572    0.08506318683756392    0.08705444668291146    0.08773495526028964    0.08705444668291148    
  0.08506318683756393    0.08190465524545723    0.07779815421128693    0.07301849748935538    0.06787372401489604    
  0.06267855603924355    0.057726892651329076    0.05327191797436428    0.04951891585031758    0.046628421101064174    
  0.04472504129608903    0.043910156700467294    0.04427772097604017    0.04592887974404    0.04897822003262986    
  0.05354743980583979    0.05974885552632486    0.06766392935411479    0.07731790763269537    0.08864733858524444    
  0.10146125138886625    0.11540720704295263    0.12995805122896043    0.1444270952302631    0.15800759821209376    
  0.1698306530729827    0.17904324487382192    0.18490974976933125    0.18692540294914334    0.1657389387824661    
  0.16399692218397727    0.15892048631420747    0.15093260103387274    0.14065946698774215    0.12883666539846364    
  0.1162171729536904    0.10349924627962492    0.09127794581501719    0.08001593495741546    0.07003114708982235    
  0.06150246825728688    0.05449216412240716    0.04897822003262987    0.04488769705919924    0.042124582874031015    
  0.04058883493895615    0.040185555664323004    0.040825334072039504    0.042418742766471826    0.044868280867868635    
  0.048059384749426594    0.05185065767516029    0.056064586775869486    0.06048313190223026    0.06485371498987783    
  0.06890708827921872    0.07238185976914864    0.07504790510982098    0.07672495392552713    0.07729731415866505    
  0.07672495392552718    0.07504790510982098    0.07238185976914863    0.06890708827921875    0.06485371498987783    
  0.06048313190223026    0.056064586775869514    0.05185065767516029    0.04805938474942659    0.044868280867868635    
  0.04241874276647181    0.04082533407203951    0.040185555664323025    0.04058883493895614    0.04212458287403101    
  0.044887697059199295    0.04897822003262986    0.05449216412240716    0.06150246825728686    0.07003114708982235    
  0.08001593495741549    0.09127794581501719    0.10349924627962491    0.11621717295369037    0.12883666539846367    
  0.1406594669877422    0.15093260103387277    0.1589204863142074    0.1639969221839773    0.1657389387824661    
  0.15217695667405642    0.15061642090672894    0.14605971895714479    0.13886587605017514    0.12958055480984507    
  0.11886156841568606    0.10739420452442393    0.09581813670701189    0.08467822999638581    0.07439795468205274    
  0.06526936421669587    0.0574572458375036    0.051017761066156075    0.045928879744040044    0.04212458287403099    
  0.03952272117396555    0.038039961899123745    0.03759441227492087    0.03810214125026788    0.03947369442818511    
  0.041611791643123154    0.04440721542564751    0.047730731650198394    0.05142355943278149    0.055292554656807116    
  0.059115370847566844    0.06265604444266455    0.06568641514406318    0.06800714726426063    0.06946436288156894    
  0.06996113272748257    0.06946436288156893    0.06800714726426063    0.06568641514406318    0.06265604444266455    
  0.059115370847566864    0.055292554656807116    0.05142355943278149    0.04773073165019839    0.0444072154256475    
  0.041611791643123154    0.0394736944281851    0.03810214125026788    0.0375944122749209    0.03803996189912374    
  0.039522721173965526    0.04212458287403103    0.045928879744040016    0.051017761066156075    0.05745724583750357    
  0.06526936421669585    0.07439795468205275    0.08467822999638584    0.09581813670701188    0.1073942045244239    
  0.11886156841568606    0.12958055480984512    0.13886587605017522    0.14605971895714476    0.15061642090672894    
  0.15217695667405642    0.1454822201341098    0.14401549893010804    0.13972454574393312    0.13292891739611432    
  0.12412803709935766    0.11394080591826238    0.10302416612244415    0.09199480442678874    0.0813748967420607    
  0.07156612664414509    0.06284399061657873    0.055364665205332154    0.04918251034334325    0.04427772097604019    
  0.040588834938956125    0.03803996189912375    0.03655448309946406    0.03605548127418633    0.03646077519616042    
  0.03768011723851944    0.039615284277409776    0.042158435986026394    0.04518559461552284    0.04854791538445794    
  0.05206713257504178    0.05554005755233158    0.058752345130532534    0.06149765061850433    0.06359684766152902    
  0.064913140914121    0.06536149226934458    0.06491314091412104    0.06359684766152901    0.06149765061850433    
  0.05875234513053255    0.05554005755233159    0.05206713257504178    0.04854791538445796    0.04518559461552284    
  0.04215843598602638    0.039615284277409776    0.03768011723851944    0.036460775196160436    0.03605548127418636    
  0.03655448309946406    0.03803996189912373    0.04058883493895616    0.04427772097604017    0.04918251034334325    
  0.05536466520533214    0.06284399061657873    0.0715661266441451    0.08137489674206072    0.09199480442678871    
  0.10302416612244415    0.1139408059182624    0.12412803709935769    0.13292891739611434    0.13972454574393303    
  0.14401549893010804    0.1454822201341098    0.1449992835108211    0.14354619081200662    0.13929010179096943    
  0.13253679025923149    0.12377341168738112    0.1136146986653187    0.10272034912337819    0.09170999945579399    
  0.08110385348815634    0.07129801446801041    0.06256436578533461    0.05506104697496848    0.04884810799689469    
  0.043910156700467294    0.04018555566432299    0.037594412274920865    0.03605548127418633    0.03548902421993903    
  0.035811850804509465    0.0369329878298041    0.038752740521123104    0.04116170294865128    0.0440360180195167    
  0.04723006299835068    0.05057205785062187    0.053867822341049906    0.05691364529425764    0.05951449938086432    
  0.061501938574896546    0.06274766961713035    0.0631719186310951    0.06274766961713037    0.061501938574896525    
  0.05951449938086432    0.05691364529425769    0.05386782234104995    0.05057205785062187    0.04723006299835069    
  0.044036018019516704    0.04116170294865126    0.038752740521123104    0.0369329878298041    0.035811850804509486    
  0.03548902421993904    0.0360554812741863    0.03759441227492085    0.04018555566432302    0.043910156700467246    
  0.04884810799689469    0.05506104697496846    0.0625643657853346    0.07129801446801041    0.08110385348815635    
  0.09170999945579397    0.10272034912337816    0.1136146986653187    0.12377341168738114    0.1325367902592315    
  0.13929010179096937    0.14354619081200662    0.1449992835108211    0.15030552695618907    0.1487900658228436    
  0.14435010404875298    0.13730225491356715    0.12815390824576478    0.11754847358546872    0.10617741931495152    
  0.09468793397242346    0.08361919932228652    0.07337911485095695    0.06424904463204653    0.05639737811584786    
  0.04989337819682602    0.04472504129608902    0.04082533407203949    0.038102141250267896    0.036460775196160415    
  0.035811850804509465    0.03606741695234564    0.037134149516636024    0.03890959178903721    0.041280661576874426    
  0.04412039538599048    0.04728181870938531    0.05059324600951482    0.053861246409397004    0.0568833821655926    
  0.05946633599560701    0.061442705895346846    0.06268333397119404    0.06310627217263458    0.06268333397119402    
  0.06144270589534682    0.059466335995606974    0.05688338216559265    0.053861246409397    0.05059324600951483    
  0.0472818187093853    0.044120395385990496    0.041280661576874406    0.038909591789037204    0.03713414951663603    
  0.036067416952345666    0.03581185080450949    0.0364607751961604    0.03810214125026788    0.04082533407203952    
  0.044725041296089015    0.049893378196826016    0.05639737811584786    0.06424904463204653    0.07337911485095697    
  0.08361919932228654    0.09468793397242344    0.10617741931495149    0.11754847358546877    0.12815390824576478    
  0.13730225491356718    0.14435010404875293    0.1487900658228436    0.15030552695618907    0.16110347683548154    
  0.15945211831230965    0.15461588612994873    0.14694447617069406    0.1369960599624585    0.1254753979423035    
  0.11313666277281727    0.10068248803109996    0.08869502325124229    0.07761197860056235    0.06773405698365506    
  0.059241805664940424    0.05221079897785533    0.04662842110106416    0.04241874276647179    0.03947369442818508    
  0.037680117238519426    0.03693298782980408    0.03713414951663602    0.03818422928847934    0.03997595758352485    
  0.042391021028119216    0.045297004849832095    0.048541747461838175    0.051948355080681755    0.055317767229463924    
  0.05844157969649001    0.06111988016516272    0.0631768083088498    0.06447255235615362    0.06491524814691273    
  0.06447255235615362    0.06317680830884977    0.06111988016516272    0.05844157969649008    0.055317767229463896    
  0.051948355080681755    0.04854174746183816    0.0452970048498321    0.04239102102811919    0.03997595758352487    
  0.03818422928847935    0.03713414951663604    0.03693298782980408    0.037680117238519426    0.039473694428185054    
  0.04241874276647181    0.04662842110106414    0.05221079897785533    0.059241805664940424    0.06773405698365505    
  0.07761197860056238    0.08869502325124227    0.10068248803109993    0.11313666277281724    0.1254753979423035    
  0.13699605996245853    0.14694447617069412    0.1546158861299487    0.15945211831230965    0.16110347683548154    
  0.17699940231011044    0.17514616989251464    0.16972154264243144    0.16112478739172256    0.14998943394155365    
  0.1371108255968482    0.12333669958135277    0.10945524528587307    0.09611801263839438    0.08381122945426982    
  0.07286281121697284    0.06346344426387145    0.05568836400045166    0.04951891585031761    0.044868280867868676    
  0.04161179164312321    0.03961528427740981    0.03875274052112314    0.03890959178903722    0.03997595758352489    
  0.04183774849318091    0.044370289649893146    0.047433362539459706    0.050865338481778107    0.05447877143721232    
  0.05806351537289022    0.0613994116244453    0.0642728682376908    0.06649099025066336    0.06789462230334099    