#     DFTpy    
  CRYSTAL 
    
  PRIMVEC    
  5.440275862068971    0.0    0.0    
  0.0    5.440275862068971    0.0    
  0.0    0.0    2.9972413793103403    
  PRIMCOORD    
  4    1    
  Si    0.0    0.0    0.0    
  Si    2.7201379310344804    2.7201379310344804    1.4986206896551701    
  Si    0.0    2.7201379310344804    0.7493103448275902    
  Si    2.7201379310344804    0.0    2.2479310344827605    
  BEGIN_BLOCK_DATAGRID_3D    
  3d_datagrid_density    
  BEGIN_DATAGRID_3D#0    
  55    55    28    
  0.0    0.0    0.0    
  5.440275882361303    0.0    0.0    
  0.0    5.440275882361303    0.0    
  0.0    0.0    2.997241390490108    
  0.05527670591832278    0.06287540272512077    0.08794315352668358    0.13494146191353365    0.20359891614171385    
  0.28175170466001903    0.34739176732912236    0.38182349532941534    0.3813044225179822    0.3559275835071333    
  0.3199587391930958    0.2842634512689372    0.2546433429641178    0.23336128371846687    0.220850805258749    
  0.21673107055590804    0.22033123636300647    0.23090347039154696    0.24754081391641458    0.26888184275179156    
  0.2928327007404796    0.31659955401795303    0.3372236424052512    0.35250315097531343    0.3618003019151794    
  0.3661513108589127    0.36753797948577244    0.36776278408535606    0.36753797948577244    0.3661513108589127    
  0.3618003019151794    0.35250315097531343    0.3372236424052512    0.31659955401795303    0.2928327007404796    
  0.26888184275179156    0.24754081391641458    0.23090347039154696    0.22033123636300647    0.21673107055590804    
  0.22085080525874898    0.23336128371846687    0.25464334296411784    0.2842634512689372    0.3199587391930958    
  0.3559275835071333    0.38130442251798213    0.3818234953294154    0.34739176732912236    0.28175170466001903    
  0.20359891614171385    0.13494146191353365    0.08794315352668358    0.06287540272512077    0.05527670591832278    
  0.06287540272512074    0.07086230451816682    0.09685891575615771    0.1445846168921253    0.21273403576142857    
  0.28858692508797845    0.3507165678050436    0.38175737969854306    0.37897342085747965    0.3525964620976736    
  0.31646929338875146    0.28098600184484973    0.25165787568599407    0.23061809000540143    0.21825358156529673    
  0.2141745724223332    0.21772071696135178    0.22816351048313857    0.2446191615895869    0.2657595465629256    
  0.2895470606586131    0.3132675099763913    0.33403668219523414    0.3496741026323075    0.3594785855505043    
  0.364353076115132    0.36612908824387896    0.3664971780898302    0.366129088243879    0.36435307611513196    
  0.3594785855505044    0.3496741026323075    0.33403668219523414    0.3132675099763913    0.28954706065861313    
  0.2657595465629256    0.2446191615895869    0.22816351048313852    0.21772071696135178    0.2141745724223332    
  0.21825358156529673    0.23061809000540148    0.2516578756859941    0.28098600184484973    0.31646929338875146    
  0.3525964620976736    0.3789734208574796    0.38175737969854306    0.3507165678050436    0.28858692508797845    
  0.21273403576142857    0.1445846168921253    0.09685891575615768    0.0708623045181668    0.06287540272512074    
  0.08794315352668348    0.09685891575615774    0.12490302482686472    0.17363461066455252    0.23904618430492638    
  0.3073254779411039    0.3590388682663951    0.3805248072866965    0.3715925303301154    0.3426277966893664    
  0.3062059037859221    0.2714092681853351    0.24296058792367126    0.2226426628951848    0.2107153545002955    
  0.20676416624593116    0.21015793692774073    0.22022218841077718    0.23613840802252692    0.25667207436191775    
  0.27994196655597114    0.3034545498830677    0.3245348674871279    0.34107049697887665    0.352198196258712    
  0.3584630145741606    0.3612836086207803    0.3620379694025269    0.36128360862078035    0.3584630145741606    
  0.35219819625871207    0.3410704969788767    0.3245348674871279    0.30345454988306764    0.27994196655597114    
  0.25667207436191775    0.23613840802252692    0.22022218841077712    0.21015793692774073    0.20676416624593116    
  0.21071535450029544    0.22264266289518486    0.24296058792367126    0.2714092681853351    0.3062059037859221    
  0.3426277966893664    0.3715925303301154    0.3805248072866966    0.3590388682663951    0.3073254779411039    
  0.23904618430492636    0.1736346106645525    0.12490302482686469    0.09685891575615774    0.08794315352668348    
  0.13494146191353365    0.14458461689212532    0.1736346106645525    0.2205703669425923    0.2782491086522941    
  0.3325810915079329    0.36784849186832963    0.37553110300517084    0.358330438636879    0.326246958310974    
  0.289829670169617    0.25629977857452696    0.22930663331013712    0.2101601008668522    0.1989460096624729    
  0.19521622051877682    0.19838186515209089    0.20784622455052298    0.22288622651362683    0.24240448681295151    
  0.2647444724392364    0.28772674881532345    0.30898042379782437    0.3265129478106094    0.33926837494157325    
  0.3473178462634825    0.3515092947277786    0.3527757212426762    0.3515092947277786    0.3473178462634825    
  0.3392683749415733    0.3265129478106094    0.30898042379782437    0.28772674881532345    0.2647444724392364    
  0.24240448681295151    0.22288622651362683    0.20784622455052296    0.19838186515209089    0.19521622051877682    
  0.19894600966247283    0.21016010086685225    0.22930663331013712    0.256299778574527    0.28982967016961697    
  0.326246958310974    0.358330438636879    0.37553110300517084    0.36784849186832963    0.33258109150793286    
  0.2782491086522941    0.2205703669425923    0.1736346106645525    0.1445846168921253    0.13494146191353365    
  0.20359891614171383    0.21273403576142852    0.2390461843049263    0.278249108652294    0.32135434143018227    
  0.35592000885182573    0.37125933601087185    0.3639527233880476    0.3386834123415102    0.3041836860327643    
  0.2685148786124485    0.23689203108613063    0.21186282087527553    0.1942556024691949    0.18397801932576652    
  0.18055140583853793    0.18343644514777274    0.19212260612310594    0.2059950360960054    0.2241149432038894    
  0.24508006521484688    0.267059990951002    0.2880285621112265    0.3061590811428099    0.3202427921086331    
  0.32989145259997055    0.33536451408474416    0.33711837926813065    0.3353645140847442    0.3298914525999706    
  0.3202427921086331    0.30615908114281    0.2880285621112265    0.267059990951002    0.24508006521484688    
  0.2241149432038894    0.2059950360960054    0.19212260612310592    0.18343644514777271    0.18055140583853796    
  0.18397801932576643    0.19425560246919496    0.21186282087527558    0.23689203108613066    0.26851487861244844    
  0.3041836860327643    0.3386834123415102    0.3639527233880476    0.37125933601087185    0.3559200088518258    
  0.32135434143018227    0.278249108652294    0.23904618430492625    0.21273403576142852    0.20359891614171383    
  0.28175170466001903    0.28858692508797845    0.307325477941104    0.3325810915079329    0.3559200088518259    
  0.3683870183592141    0.3644090662820021    0.34427582831270676    0.31315651362043545    0.27782608576429224    
  0.2438730158317892    0.21473965401667044    0.19204244788560754    0.1762059986967812    0.16699456434996443    
  0.16391713366962973    0.16648736650350238    0.1742738131088318    0.1867638206744131    0.20317682717415778    
  0.2223611283696459    0.24282122217009328    0.2628662624108296    0.2808627968762805    0.29553061696394034    
  0.30613734293241557    0.31246135875790787    0.3145515261919849    0.312461358757908    0.3061373429324156    
  0.2955306169639404    0.2808627968762805    0.2628662624108296    0.24282122217009333    0.2223611283696459    
  0.20317682717415783    0.1867638206744131    0.1742738131088318    0.16648736650350235    0.16391713366962973    
  0.1669945643499644    0.17620599869678125    0.19204244788560754    0.2147396540166705    0.2438730158317892    
  0.27782608576429224    0.31315651362043545    0.3442758283127067    0.3644090662820021    0.36838701835921417    
  0.3559200088518259    0.3325810915079329    0.307325477941104    0.28858692508797845    0.28175170466001903    
  0.34739176732912236    0.3507165678050436    0.359038868266395    0.36784849186832963    0.3712593360108719    
  0.3644090662820021    0.34566826314390303    0.3171738325261824    0.2834021209503711    0.24905991709093098    
  0.21771183150098994    0.19147557758557995    0.17129119136130602    0.1572962761305274    0.14917161608487758    
  0.14644419333984754    0.1486821027142931    0.15551464975164508    0.1665104405670686    0.18102941276341705    
  0.19814471268760728    0.21665365715628115    0.2351612086895038    0.25223389407134156    0.2666063019794125    
  0.2773570983622155    0.28395612192960745    0.28617472963484875    0.28395612192960745    0.27735709836221556    
  0.26660630197941254    0.2522338940713416    0.2351612086895038    0.21665365715628115    0.1981447126876073    
  0.18102941276341708    0.1665104405670686    0.15551464975164506    0.14868210271429308    0.1464441933398476    
  0.1491716160848775    0.15729627613052743    0.17129119136130605    0.19147557758557998    0.21771183150098994    
  0.24905991709093098    0.2834021209503711    0.3171738325261824    0.34566826314390303    0.3644090662820021    
  0.37125933601087185    0.36784849186832963    0.359038868266395    0.3507165678050436    0.34739176732912236    
  0.3818234953294153    0.38175737969854306    0.3805248072866965    0.3755311030051709    0.3639527233880477    
  0.3442758283127066    0.3171738325261825    0.28522086480635256    0.25177932047612717    0.21989501603194836    
  0.19174226525804927    0.1685751674378187    0.15089615475581442    0.13867192543918122    0.1315658722236562    
  0.1291553387265136    0.13106229367758046    0.1369550151280731    0.14645631829481798    0.15903862988245207    
  0.1739626502706785    0.1902677033575753    0.20680775014132638    0.22234382216200627    0.2356930420322912    
  0.24588384359153245    0.25224471513788044    0.2544037111079646    0.2522447151378805    0.24588384359153245    
  0.2356930420322912    0.2223438221620063    0.20680775014132638    0.19026770335757534    0.1739626502706785    
  0.15903862988245213    0.14645631829481798    0.13695501512807307    0.13106229367758046    0.1291553387265136    
  0.13156587222365618    0.13867192543918125    0.15089615475581442    0.16857516743781875    0.19174226525804927    
  0.21989501603194836    0.25177932047612717    0.28522086480635256    0.3171738325261825    0.3442758283127066    
  0.3639527233880477    0.37553110300517084    0.38052480728669646    0.381757379698543    0.3818234953294153    
  0.38130442251798213    0.3789734208574797    0.3715925303301154    0.35833043863687913    0.3386834123415102    
  0.31315651362043545    0.28340212095037115    0.2517793204761272    0.22069332894724683    0.19210870871064442    
  0.1673665380665    0.1472064726664082    0.13187202554109947    0.12125328011584371    0.11504926788903422    
  0.11290883716415515    0.1145040966379562    0.11952555550335409    0.1276277828047134    0.1383657415501956    
  0.15114606394433244    0.1652003723020622    0.17958992038584867    0.19326078664589244    0.20515511891470414    
  0.2143452792175662    0.22013695396506341    0.22211328902088695    0.22013695396506347    0.2143452792175662    
  0.20515511891470414    0.1932607866458925    0.17958992038584867    0.1652003723020622    0.15114606394433244    
  0.13836574155019565    0.1276277828047134    0.11952555550335406    0.11450409663795617    0.11290883716415515    
  0.11504926788903418    0.12125328011584373    0.1318720255410995    0.14720647266640824    0.16736653806649998    
  0.19210870871064442    0.2206933289472469    0.25177932047612717    0.28340212095037115    0.31315651362043545    
  0.33868341234151017    0.35833043863687913    0.3715925303301154    0.37897342085747965    0.38130442251798213    
  0.3559275835071333    0.3525964620976736    0.3426277966893664    0.326246958310974    0.3041836860327643    
  0.2778260857642922    0.24905991709093098    0.21989501603194836    0.19210870871064442    0.16704908361092743    
  0.1455916457592779    0.12818287149154292    0.11492821120691316    0.10570513184667962    0.10027427781609956    
  0.09835744080229414    0.09967006531552335    0.10391870753395502    0.11077926149582112    0.1198647512680791    
  0.13068751710613008    0.14262547170926912    0.15491079674705535    0.16666174648706333    0.17696436843924676    
  0.1849839949691102    0.19006768822365347    0.19180802092636917    0.19006768822365347    0.1849839949691102    
  0.1769643684392468    0.16666174648706336    0.15491079674705538    0.14262547170926915    0.13068751710613008    
  0.11986475126807916    0.11077926149582112    0.10391870753395496    0.09967006531552332    0.09835744080229412    
  0.10027427781609949    0.10570513184667962    0.11492821120691318    0.12818287149154295    0.14559164575927788    
  0.16704908361092743    0.19210870871064442    0.21989501603194836    0.24905991709093098    0.2778260857642922    
  0.3041836860327643    0.326246958310974    0.3426277966893664    0.3525964620976736    0.3559275835071333    
  0.3199587391930958    0.3164692933887515    0.30620590378592205    0.289829670169617    0.2685148786124485    
  0.24387301583178914    0.21771183150098997    0.1917422652580493    0.16736653806649998    0.14559164575927788    
  0.12703582752536233    0.11198716062265429    0.10049087491040172    0.0924426518796837    0.08766072533890047    
  0.08592352111086385    0.08698211158942788    0.09056300979567683    0.09636495387182992    0.10404366115875764    
  0.11318368216182388    0.12326852336047134    0.13366646868238885    0.1436476929146872    0.152440415756956    
  0.15931866796428354    0.16369637610122045    0.16519835657231355    0.16369637610122048    0.1593186679642835    
  0.15244041575695605    0.14364769291468726    0.13366646868238885    0.12326852336047134    0.11318368216182388    
  0.10404366115875771    0.09636495387182992    0.09056300979567682    0.08698211158942787    0.08592352111086385    
  0.08766072533890042    0.09244265187968372    0.10049087491040175    0.11198716062265432    0.1270358275253623    
  0.14559164575927788    0.1673665380665    0.19174226525804933    0.21771183150098997    0.2438730158317892    
  0.2685148786124485    0.289829670169617    0.30620590378592205    0.31646929338875146    0.3199587391930958    
  0.28426345126893715    0.28098600184484973    0.271409268185335    0.256299778574527    0.23689203108613066    
  0.21473965401667033    0.19147557758557998    0.16857516743781875    0.14720647266640824    0.12818287149154292    
  0.11198716062265433    0.09883493199310886    0.0887546007380149    0.08166154728444176    0.07740775676924079    
  0.07580491052287507    0.07663335874443448    0.07964724149777624    0.08457436117313141    0.09110527034276171    
  0.09887337065991882    0.10743543436352218    0.11626219938939097    0.1247471447120336    0.1322424177655573    
  0.13812517818361228    0.1418800748891928    0.1431704872878361    0.14188007488919285    0.13812517818361222    
  0.13224241776555734    0.12474714471203362    0.11626219938939096    0.10743543436352221    0.09887337065991883    
  0.09110527034276174    0.08457436117313141    0.0796472414977762    0.07663335874443448    0.07580491052287507    
  0.07740775676924073    0.08166154728444179    0.08875460073801493    0.09883493199310887    0.11198716062265432    
  0.12818287149154292    0.14720647266640827    0.16857516743781875    0.19147557758557998    0.21473965401667033    
  0.23689203108613066    0.256299778574527    0.271409268185335    0.28098600184484973    0.28426345126893715    
  0.2546433429641178    0.2516578756859941    0.24296058792367126    0.2293066333101372    0.21186282087527558    
  0.19204244788560754    0.17129119136130605    0.15089615475581444    0.13187202554109947    0.1149282112069132    
  0.10049087491040178    0.08875460073801487    0.0797463800781149    0.07338663758261238    0.06953505869455964    
  0.06801766459112178    0.0686390511315292    0.07118422928183905    0.07541200246660962    0.08104248966419571    
  0.08774415886340381    0.09512497263683967    0.10272881663683703    0.11004018148544718    0.11650728061221152    
  0.12159279430691101    0.12484473646128186    0.12596352781382555    0.1248447364612819    0.12159279430691101    
  0.11650728061221156    0.11004018148544724    0.10272881663683704    0.09512497263683967    0.08774415886340381    
  0.08104248966419578    0.07541200246660965    0.07118422928183903    0.06863905113152921    0.06801766459112177    
  0.0695350586945596    0.07338663758261238    0.07974638007811492    0.0887546007380149    0.10049087491040175    
  0.1149282112069132    0.13187202554109947    0.15089615475581444    0.17129119136130605    0.19204244788560754    
  0.21186282087527553    0.2293066333101372    0.24296058792367126    0.2516578756859941    0.2546433429641178    
  0.23336128371846687    0.23061809000540143    0.2226426628951848    0.21016010086685227    0.1942556024691949    
  0.17620599869678116    0.15729627613052743    0.13867192543918122    0.12125328011584369    0.10570513184667962    
  0.0924426518796837    0.08166154728444179    0.07338663758261238    0.0675300023201731    0.06394480979295657    
  0.062462016795909625    0.0629045345673842    0.06508246818009446    0.06877900457317133    0.0737370183704198    
  0.07965176218959713    0.08616848238390537    0.09288143485400283    0.09933657435665769    0.10504890869080005    
  0.10954443790654936    0.11242156970407147    0.11341196570243466    0.11242156970407152    0.10954443790654934    
  0.10504890869080008    0.09933657435665776    0.09288143485400284    0.08616848238390537    0.07965176218959717    
  0.07373701837041984    0.06877900457317133    0.06508246818009443    0.06290453456738422    0.06246201679590961    
  0.0639448097929565    0.06753000232017313    0.07338663758261242    0.08166154728444182    0.09244265187968369    
  0.10570513184667965    0.12125328011584373    0.1386719254391812    0.15729627613052743    0.17620599869678116    
  0.1942556024691949    0.2101601008668523    0.2226426628951848    0.23061809000540143    0.23336128371846687    
  0.2208508052587488    0.2182535815652967    0.21071535450029535    0.19894600966247283    0.18397801932576643    
  0.16699456434996435    0.14917161608487756    0.13156587222365618    0.11504926788903415    0.10027427781609953    
  0.08766072533890044    0.07740775676924076    0.06953505869455964    0.06394480979295651    0.06048389996515552    
  0.05898574903993051    0.059282968194041934    0.06119767669994521    0.06452488826588725    0.06902126979738171    
  0.07440156138776152    0.0803376178176341    0.08645643435136588    0.09234171133206406    0.09755002058038124    
  0.10164910948024528    0.10427287423602602    0.10517617019308012    0.10427287423602606    0.10164910948024526    
  0.09755002058038127    0.09234171133206412    0.08645643435136588    0.0803376178176341    0.07440156138776152    
  0.06902126979738177    0.06452488826588726    0.06119767669994519    0.05928296819404195    0.05898574903993048    
  0.06048389996515547    0.06394480979295654    0.06953505869455966    0.07740775676924078    0.08766072533890043    
  0.10027427781609953    0.11504926788903418    0.13156587222365618    0.14917161608487756    0.16699456434996435    
  0.18397801932576643    0.19894600966247283    0.21071535450029533    0.2182535815652967    0.2208508052587488    
  0.21673107055590804    0.21417457242233315    0.20676416624593114    0.19521622051877682    0.18055140583853793    
  0.1639171336696297    0.1464441933398475    0.1291553387265136    0.11290883716415508    0.0983574408022941    
  0.08592352111086385    0.075804910522875    0.06801766459112171    0.062462016795909556    0.058985749039930514    
  0.05742367305085598    0.05760770440391051    0.05935754723335536    0.06246752608286925    0.06669901701539856    
  0.07177777392455936    0.07739089755541607    0.08318245036301987    0.08875464110406443    0.093684891447646    
  0.09756349813304024    0.1000451742390336    0.10089937103783535    0.10004517423903364    0.09756349813304026    
  0.09368489144764602    0.0887546411040645    0.08318245036301986    0.07739089755541612    0.07177777392455938    
  0.0666990170153986    0.06246752608286925    0.059357547233355325    0.05760770440391051    0.05742367305085596    
  0.058985749039930466    0.062462016795909577    0.06801766459112175    0.07580491052287504    0.08592352111086385    
  0.09835744080229408    0.11290883716415509    0.1291553387265136    0.14644419333984754    0.1639171336696297    
  0.1805514058385379    0.19521622051877682    0.20676416624593114    0.21417457242233315    0.21673107055590804    
  0.22033123636300644    0.21772071696135184    0.21015793692774062    0.19838186515209086    0.18343644514777271    
  0.16648736650350227    0.14868210271429314    0.13106229367758046    0.11450409663795616    0.09967006531552332    
  0.08698211158942791    0.07663335874443451    0.0686390511315292    0.06290453456738423    0.059282968194041996    
  0.0576077044039106    0.05770092260609439    0.05936950714776035    0.062398588272294095    0.0665468235687043    
  0.07154180153609709    0.07707334931366287    0.08278704400527288    0.08828586228223238    0.09314917756611138    
  0.09697193294610486    0.09941571754516043    0.10025640294210549    0.09941571754516049    0.09697193294610482    
  0.09314917756611142    0.08828586228223247    0.08278704400527288    0.07707334931366287    0.0715418015360971    
  0.06654682356870434    0.062398588272294095    0.05936950714776032    0.05770092260609442    0.05760770440391056    
  0.059282968194041934    0.06290453456738426    0.06863905113152924    0.07663335874443454    0.08698211158942788    
  0.09967006531552333    0.11450409663795616    0.13106229367758046    0.14868210271429314    0.1664873665035023    
  0.1834364451477727    0.19838186515209086    0.21015793692774062    0.21772071696135178    0.22033123636300644    
  0.23090347039154696    0.22816351048313852    0.22022218841077704    0.20784622455052296    0.19212260612310586    
  0.17427381310883172    0.15551464975164503    0.13695501512807307    0.11952555550335403    0.10391870753395493    
  0.09056300979567682    0.07964724149777622    0.07118422928183901    0.06508246818009442    0.06119767669994518    
  0.05935754723335531    0.059369507147760285    0.061022756991072354    0.06408850283856082    0.06831679355808337    
  0.07342852364438612    0.07910442979627454    0.08497655694743714    0.09063080226168034    0.09562920850109169    
  0.09955347997184782    0.10205872759330803    0.10291977427991035    0.10205872759330809    0.09955347997184781    
  0.09562920850109173    0.09063080226168034    0.08497655694743711    0.07910442979627454    0.07342852364438618    
  0.0683167935580834    0.06408850283856084    0.06102275699107234    0.0593695071477603    0.059357547233355304    
  0.06119767669994513    0.06508246818009443    0.07118422928183904    0.07964724149777622    0.09056300979567679    
  0.10391870753395493    0.11952555550335402    0.13695501512807307    0.15551464975164503    0.17427381310883172    
  0.19212260612310586    0.20784622455052296    0.22022218841077704    0.22816351048313852    0.23090347039154696    
  0.24754081391641458    0.24461916158958696    0.23613840802252697    0.22288622651362688    0.20599503609600542    
  0.18676382067441308    0.1665104405670686    0.146456318294818    0.12762778280471343    0.11077926149582115    
  0.09636495387183001    0.08457436117313144    0.07541200246660965    0.06877900457317135    0.06452488826588731    
  0.0624675260828693    0.06239858827229414    0.06408850283856088    0.06729131501584205    0.07174297564399494    
  0.07715035629258238    0.08317534712427024    0.08942296360758879    0.09544455111703265    0.10076554497695601    
  0.10493711459834065    0.10759562671516161    0.10850828442727248    0.10759562671516161    0.10493711459834061    
  0.10076554497695604    0.0954445511170327    0.08942296360758878    0.08317534712427024    0.07715035629258242    
  0.07174297564399501    0.06729131501584205    0.06408850283856088    0.06239858827229414    0.06246752608286928    
  0.06452488826588727    0.06877900457317135    0.07541200246660965    0.08457436117313147    0.09636495387182999    
  0.11077926149582115    0.12762778280471346    0.146456318294818    0.1665104405670686    0.1867638206744131    
  0.2059950360960054    0.22288622651362688    0.23613840802252697    0.24461916158958696    0.24754081391641458    
  0.26888184275179156    0.2657595465629256    0.2566720743619177    0.24240448681295151    0.22411494320388944    
  0.20317682717415775    0.181029412763417    0.15903862988245207    0.1383657415501956    0.11986475126807909    
  0.10404366115875768    0.09110527034276171    0.08104248966419572    0.0737370183704198    0.06902126979738174    
  0.06669901701539858    0.06654682356870427    0.06831679355808334    0.07174297564399493    0.0765417095933368    
  0.08239919700800999    0.08895025924373691    0.09576120249619957    0.10233327121882346    0.10813835103790838    
  0.11268240610095899    0.11557292127328748    0.11656399551933967    0.11557292127328757    0.11268240610095895    
  0.10813835103790842    0.10233327121882352    0.09576120249619953    0.08895025924373688    0.08239919700801002    
  0.07654170959333682    0.07174297564399493    0.06831679355808334    0.06654682356870427    0.06669901701539856    
  0.06902126979738168    0.07373701837041981    0.08104248966419575    0.09110527034276174    0.10404366115875766    
  0.11986475126807909    0.13836574155019563    0.15903862988245207    0.181029412763417    0.20317682717415778    
  0.2241149432038894    0.24240448681295151    0.2566720743619177    0.2657595465629256    0.26888184275179156    
  0.29283270074047957    0.28954706065861313    0.2799419665559711    0.2647444724392364    0.24508006521484688    
  0.22236112836964583    0.19814471268760733    0.1739626502706785    0.15114606394433241    0.13068751710613008    
  0.1131836821618239    0.09887337065991883    0.08774415886340382    0.0796517621895972    0.07440156138776159    
  0.07177777392455947    0.07154180153609707    0.0734285236443862    0.07715035629258236    0.08239919700801009    
  0.08883398931190953    0.09605462889395777    0.1035788429527896    0.11084588029143902    0.11726182707184792    
  0.12227688518104142    0.12546180451132236    0.1265526644506441    0.12546180451132238    0.12227688518104145    
  0.11726182707184796    0.11084588029143913    0.1035788429527896    0.09605462889395777    0.08883398931190958    
  0.08239919700801013    0.07715035629258235    0.07342852364438623    0.07154180153609709    0.07177777392455946    
  0.07440156138776152    0.07965176218959719    0.08774415886340384    0.09887337065991886    0.11318368216182388    
  0.13068751710613008    0.15114606394433241    0.1739626502706785    0.19814471268760733    0.2223611283696459    
  0.24508006521484688    0.2647444724392364    0.2799419665559711    0.28954706065861313    0.29283270074047957    
  0.31659955401795303    0.3132675099763913    0.30345454988306764    0.28772674881532345    0.267059990951002    
  0.24282122217009333    0.21665365715628115    0.19026770335757534    0.16520037230206217    0.14262547170926912    
  0.12326852336047131    0.10743543436352217    0.09512497263683964    0.08616848238390534    0.08033761781763417    
  0.07739089755541613    0.07707334931366283    0.0791044297962746    0.08317534712427027    0.08895025924373691    
  0.09605462889395777    0.10404626028434856    0.1123874134013603    0.12044890147064201    0.12756463917609331    
  0.1331222512201164    0.1366485838815889    0.13785570112130693    0.13664858388158893    0.13312225122011637    
  0.12756463917609343    0.12044890147064205    0.1123874134013603    0.10404626028434846    0.09605462889395777    
  0.08895025924373694    0.08317534712427027    0.07910442979627458    0.07707334931366285    0.07739089755541614    
  0.0803376178176341    0.08616848238390538    0.09512497263683965    0.10743543436352218    0.12326852336047131    
  0.14262547170926912    0.1652003723020622    0.19026770335757534    0.21665365715628115    0.2428212221700934    
  0.267059990951002    0.28772674881532345    0.30345454988306764    0.3132675099763913    0.31659955401795303    
  0.3372236424052511    0.3340366821952341    0.32453486748712784    0.3089804237978242    0.28802856211122646    
  0.2628662624108295    0.23516120868950377    0.20680775014132632    0.17958992038584864    0.15491079674705535    
  0.13366646868238888    0.11626219938939097    0.10272881663683701    0.09288143485400287    0.08645643435136595    
  0.08318245036301981    0.08278704400527287    0.08497655694743718    0.08942296360758874    0.09576120249619956    
  0.10357884295278948    0.11238741340136026    0.12159220579127142    0.13049620551066288    0.138360728792783    
  0.14450632036298663    0.14840734122459406    0.14974305460778853    0.1484073412245941    0.14450632036298663    
  0.13836072879278305    0.13049620551066293    0.12159220579127145    0.11238741340136026    0.10357884295278957    
  0.09576120249619959    0.08942296360758874    0.08497655694743717    0.08278704400527287    0.08318245036301984    
  0.0864564343513659    0.09288143485400287    0.10272881663683703    0.116262199389391    0.13366646868238882    
  0.15491079674705535    0.17958992038584864    0.20680775014132632    0.23516120868950377    0.2628662624108295    