#     DFTpy    
  CRYSTAL 
    
  PRIMVEC    
  6.534965517241382    0.0    0.0    
  0.0    6.534965517241382    0.0    
  0.0    0.0    3.600344827586211    
  PRIMCOORD    
  4    1    
  Si    0.0    0.0    0.0    
  Si    3.267482758620691    3.267482758620691    1.8001724137931    
  Si    0.0    3.267482758620691    0.90008620689655    
  Si    3.267482758620691    0.0    2.70025862068965    
  BEGIN_BLOCK_DATAGRID_3D    
  3d_datagrid_density    
  BEGIN_DATAGRID_3D#0    
  65    65    37    
  0.0    0.0    0.0    
  6.534965541616928    0.0    0.0    
  0.0    6.534965541616928    0.0    
  0.0    0.0    3.600344841015566    
  0.060124831818947136    0.06823521832958675    0.0948110402025618    0.14388012338110415    0.21357807842863807    
  0.2890197718694172    0.34618209725189875    0.3671261653409296    0.35119039083054615    0.31137647863218026    
  0.2630737343354296    0.21679298480029838    0.17744810587338164    0.1464007017426725    0.12329794393039618    
  0.10715283707078876    0.09694427809973795    0.09188525858835378    0.09144336220794891    0.09526663743371594    
  0.10313449654502516    0.11492935770479784    0.13055933392646674    0.14980578602342504    0.17214487864782835    
  0.19661740111829723    0.22180802161858368    0.245987189477176    0.2674273358702258    0.2847800934931673    
  0.2972979738646834    0.30476763049140715    0.3072402959089847    0.30476763049140715    0.2972979738646834    
  0.2847800934931673    0.2674273358702258    0.245987189477176    0.22180802161858368    0.19661740111829723    
  0.17214487864782835    0.14980578602342504    0.13055933392646674    0.11492935770479784    0.10313449654502516    
  0.09526663743371594    0.09144336220794891    0.09188525858835378    0.09694427809973795    0.10715283707078876    
  0.12329794393039618    0.1464007017426725    0.17744810587338164    0.21679298480029838    0.2630737343354296    
  0.31137647863218026    0.35119039083054615    0.3671261653409296    0.34618209725189875    0.2890197718694172    
  0.21357807842863807    0.14388012338110415    0.0948110402025618    0.06823521832958675    0.060124831818947136    
  0.06823521832958672    0.07674718799387215    0.10426010888336792    0.15397574844327233    0.22293168198968547    
  0.2957582222967256    0.3492115782809174    0.3668194093283102    0.3488771659969354    0.3083795387282236    
  0.2601937421726985    0.21434071025838342    0.17546346125187082    0.14481597303680704    0.12201540867948928    
  0.10607700105897092    0.09599392483728138    0.09099376955265817    0.090553318021759    0.09432419063560604    
  0.10208592387717531    0.11372002498553808    0.1291353924692569    0.14811918678840597    0.17016146797523982    
  0.19432676493292234    0.21923253338193874    0.24318533172413898    0.26448474478176226    0.28178631062337184    
  0.2943176772527395    0.3018223715072491    0.3043120057550894    0.3018223715072491    0.2943176772527395    
  0.28178631062337184    0.26448474478176226    0.24318533172413898    0.21923253338193874    0.19432676493292234    
  0.17016146797523982    0.14811918678840597    0.1291353924692569    0.11372002498553808    0.10208592387717531    
  0.09432419063560604    0.090553318021759    0.09099376955265817    0.09599392483728138    0.10607700105897092    
  0.12201540867948928    0.14481597303680704    0.17546346125187082    0.21434071025838342    0.2601937421726985    
  0.3083795387282236    0.3488771659969354    0.3668194093283102    0.3492115782809174    0.2957582222967256    
  0.22293168198968547    0.15397574844327233    0.10426010888336792    0.07674718799387215    0.06823521832958672    
  0.09481104020256174    0.10426010888336791    0.13375381498458108    0.1841162994826653    0.24956919916843015    
  0.3139245698522854    0.35648861695675327    0.3648101866625964    0.34153359420146534    0.29938809582992626    
  0.2517091689128891    0.20716552379288383    0.16967030243614473    0.1401917617852145    0.1182707124091552    
  0.10293345587244053    0.09321599194245075    0.08838782892659564    0.08795184857898594    0.09157036565558464    
  0.09902436542392529    0.11019361913512066    0.12498918262983165    0.14321359755073265    0.16439454809514503    
  0.1876616374978416    0.21172296934277546    0.23498619810576563    0.2558295014009954    0.27292536598970907    
  0.2854404731129131    0.29300649243020127    0.2955305955104183    0.29300649243020127    0.2854404731129131    
  0.27292536598970907    0.2558295014009954    0.23498619810576563    0.21172296934277546    0.1876616374978416    
  0.16439454809514503    0.14321359755073265    0.12498918262983165    0.11019361913512066    0.09902436542392529    
  0.09157036565558464    0.08795184857898594    0.08838782892659564    0.09321599194245075    0.10293345587244053    
  0.1182707124091552    0.1401917617852145    0.16967030243614473    0.20716552379288383    0.2517091689128891    
  0.29938809582992626    0.34153359420146534    0.3648101866625964    0.35648861695675327    0.3139245698522854    
  0.24956919916843015    0.1841162994826653    0.13375381498458108    0.10426010888336791    0.09481104020256174    
  0.1438801233811041    0.15397574844327236    0.1841162994826653    0.23182435346912866    0.28821916427297867    
  0.3373939442896498    0.36313303687260307    0.3583925728029875    0.32828494928042057    0.2845354290501627    
  0.23811443197090762    0.1958010365933949    0.16053032932846953    0.13289840497019845    0.11235673807253699    
  0.09796177428873512    0.08881987015634807    0.08426420398603664    0.08383643924086967    0.08721647819622749    
  0.09419063736550777    0.10463841128373318    0.11847364478483002    0.1355186523967981    0.15535243410099497    
  0.17719608217470542    0.19988740206058342    0.22198194168914331    0.241979582759982    0.2585940618049796    
  0.270927661015567    0.27847510332883985    0.2810110326243529    0.27847510332883985    0.270927661015567    
  0.2585940618049796    0.241979582759982    0.22198194168914331    0.19988740206058342    0.17719608217470542    
  0.15535243410099497    0.1355186523967981    0.11847364478483002    0.10463841128373318    0.09419063736550777    
  0.08721647819622749    0.08383643924086967    0.08426420398603664    0.08881987015634807    0.09796177428873512    
  0.11235673807253699    0.13289840497019845    0.16053032932846953    0.1958010365933949    0.23811443197090762    
  0.2845354290501627    0.32828494928042057    0.3583925728029875    0.36313303687260307    0.3373939442896498    
  0.28821916427297867    0.23182435346912866    0.1841162994826653    0.15397574844327236    0.1438801233811041    
  0.21357807842863802    0.22293168198968547    0.2495691991684302    0.2882191642729788    0.3284951622790333    
  0.356908912696459    0.36295947670971507    0.3446944094126558    0.30856841175594746    0.2643693867814005    
  0.22028034637841626    0.18108788540693999    0.14874611887706765    0.12349311656506684    0.10471404104539832    
  0.09152416006936745    0.08312376717196208    0.07892282093856737    0.07850849907261817    0.08158444805181629    
  0.0879486762987494    0.09748392492863348    0.11010615890402049    0.12565577343252057    0.14376565835153218    
  0.16375869468329296    0.18462089966721984    0.20508128686267033    0.22379206419721673    0.23954056597512535    
  0.25139439625041354    0.25873458818249434    0.2612178098152294    0.25873458818249434    0.25139439625041354    
  0.23954056597512535    0.22379206419721673    0.20508128686267033    0.18462089966721984    0.16375869468329296    
  0.14376565835153218    0.12565577343252057    0.11010615890402049    0.09748392492863348    0.0879486762987494    
  0.08158444805181629    0.07850849907261817    0.07892282093856737    0.08312376717196208    0.09152416006936745    
  0.10471404104539832    0.12349311656506684    0.14874611887706765    0.18108788540693999    0.22028034637841626    
  0.2643693867814005    0.30856841175594746    0.3446944094126558    0.36295947670971507    0.356908912696459    
  0.3284951622790333    0.2882191642729788    0.2495691991684302    0.22293168198968547    0.21357807842863802    
  0.28901977186941713    0.2957582222967256    0.31392456985228545    0.33739394428964986    0.356908912696459    
  0.36318182408782856    0.3511693318676482    0.3223042242034783    0.28282770919434674    0.24002128555293764    
  0.19941378462107584    0.16407953978225193    0.13516887354329304    0.11264479287619458    0.09587318325786713    
  0.08406003172156151    0.07651530447209878    0.07272898306761591    0.0723346049287435    0.07506443217439217    
  0.08073547544230149    0.08923797920015049    0.10048816814325719    0.11433857433234215    0.13047070467395472    
  0.14830796568307805    0.16698782467786283    0.18542083607795767    0.20242812505219251    0.21690177507594402    
  0.227922264129844    0.23481229708275209    0.23715597003384337    0.23481229708275209    0.227922264129844    
  0.21690177507594402    0.20242812505219251    0.18542083607795767    0.16698782467786283    0.14830796568307805    
  0.13047070467395472    0.11433857433234215    0.10048816814325719    0.08923797920015049    0.08073547544230149    
  0.07506443217439217    0.0723346049287435    0.07272898306761591    0.07651530447209878    0.08406003172156151    
  0.09587318325786713    0.11264479287619458    0.13516887354329304    0.16407953978225193    0.19941378462107584    
  0.24002128555293764    0.28282770919434674    0.3223042242034783    0.3511693318676482    0.36318182408782856    
  0.356908912696459    0.33739394428964986    0.31392456985228545    0.2957582222967256    0.28901977186941713    
  0.34618209725189875    0.34921157828091737    0.3564886169567534    0.36313303687260307    0.36295947670971507    
  0.3511693318676482    0.3266230270938999    0.29212689575082434    0.2526624293138763    0.21310762086281893    
  0.17691080640759946    0.1459079228498178    0.1206897063772839    0.10105097292831382    0.086391888614258    
  0.07603532560333719    0.06940582846851492    0.06606832378701062    0.06569978631901932    0.06806446164376531    
  0.07300452107814827    0.08042127459807533    0.09022933512813214    0.10228682393732995    0.11631555897905864    
  0.13183195325788363    0.1481188332210455    0.16426441411799092    0.17926254540949232    0.19213192724299122    
  0.20201230530979777    0.20823062141262222    0.2103535420028118    0.20823062141262222    0.20201230530979777    
  0.19213192724299122    0.17926254540949232    0.16426441411799092    0.1481188332210455    0.13183195325788363    
  0.11631555897905864    0.10228682393732995    0.09022933512813214    0.08042127459807533    0.07300452107814827    
  0.06806446164376531    0.06569978631901932    0.06606832378701062    0.06940582846851492    0.07603532560333719    
  0.086391888614258    0.10105097292831382    0.1206897063772839    0.1459079228498178    0.17691080640759946    
  0.21310762086281893    0.2526624293138763    0.29212689575082434    0.3266230270938999    0.3511693318676482    
  0.36295947670971507    0.36313303687260307    0.3564886169567534    0.34921157828091737    0.34618209725189875    
  0.3671261653409297    0.36681940932831014    0.3648101866625964    0.35839257280298736    0.3446944094126557    
  0.3223042242034783    0.2921268957508243    0.25698422348707073    0.22039462754567282    0.18542772969813623    
  0.1541585996192028    0.12764464796507394    0.10613742881587049    0.08936152425375433    0.07679593564333734    
  0.06789279504264298    0.062184797708109286    0.05930235451080776    0.058962411579076994    0.060963134469674336    
  0.06517506885436843    0.07151255818956448    0.0798883292415626    0.09016250688695793    0.10208966778327447    
  0.11526843917616623    0.12911437420398553    0.14288098421898449    0.15572850571482044    0.1668121458632526    
  0.1753642358945648    0.18076632949101423    0.18261404497497805    0.18076632949101423    0.1753642358945648    
  0.1668121458632526    0.15572850571482044    0.14288098421898449    0.12911437420398553    0.11526843917616623    
  0.10208966778327447    0.09016250688695793    0.0798883292415626    0.07151255818956448    0.06517506885436843    
  0.060963134469674336    0.058962411579076994    0.05930235451080776    0.062184797708109286    0.06789279504264298    
  0.07679593564333734    0.08936152425375433    0.10613742881587049    0.12764464796507394    0.1541585996192028    
  0.18542772969813623    0.22039462754567282    0.25698422348707073    0.2921268957508243    0.3223042242034783    
  0.3446944094126557    0.35839257280298736    0.3648101866625964    0.36681940932831014    0.3671261653409297    
  0.35119039083054615    0.3488771659969354    0.3415335942014653    0.3282849492804206    0.30856841175594746    
  0.28282770919434674    0.2526624293138763    0.22039462754567282    0.18840728902975284    0.1586383180405157    
  0.1323628893512347    0.11019339704152571    0.09220385106257684    0.07812280668756552    0.06753319122644137    
  0.06001115393570567    0.055182582373520084    0.052734150636217655    0.05242120526214235    0.05407618342115019    
  0.057597218371878915    0.06291163706122935    0.06993233712131154    0.07852247388638207    0.08846446162804208    
  0.0994264852764313    0.1109386720262073    0.12240059965948823    0.1331249799753173    0.14240296469602454    
  0.1495769288198182    0.15411336682195134    0.15566550449351424    0.15411336682195134    0.1495769288198182    
  0.14240296469602454    0.1331249799753173    0.12240059965948823    0.1109386720262073    0.0994264852764313    
  0.08846446162804208    0.07852247388638207    0.06993233712131154    0.06291163706122935    0.057597218371878915    
  0.05407618342115019    0.05242120526214235    0.052734150636217655    0.055182582373520084    0.06001115393570567    
  0.06753319122644137    0.07812280668756552    0.09220385106257684    0.11019339704152571    0.1323628893512347    
  0.1586383180405157    0.18840728902975284    0.22039462754567282    0.2526624293138763    0.28282770919434674    
  0.30856841175594746    0.3282849492804206    0.3415335942014653    0.3488771659969354    0.35119039083054615    
  0.31137647863218026    0.30837953872822366    0.29938809582992626    0.28453542905016266    0.2643693867814005    
  0.24002128555293764    0.21310762086281887    0.18542772969813617    0.1586383180405157    0.13403162044576575    
  0.11243744414536216    0.09422754335936347    0.07940540178398958    0.06774913733643398    0.05894742709441546    
  0.052680473057254866    0.0486494605662834    0.04659150791400853    0.04630081274399523    0.047642181470795505    
  0.05053644940385334    0.05492175880111121    0.06071469068964307    0.06778606776415375    0.07594408810635145    
  0.08491377871002452    0.094318626772616    0.10368052586666278    0.11244553305904167    0.12003224907089075    
  0.12589672614178682    0.12960145454967115    0.13086792007501397    0.12960145454967115    0.12589672614178682    
  0.12003224907089075    0.11244553305904167    0.10368052586666278    0.094318626772616    0.08491377871002452    
  0.07594408810635145    0.06778606776415375    0.06071469068964307    0.05492175880111121    0.05053644940385334    
  0.047642181470795505    0.04630081274399523    0.04659150791400853    0.0486494605662834    0.052680473057254866    
  0.05894742709441546    0.06774913733643398    0.07940540178398958    0.09422754335936347    0.11243744414536216    
  0.13403162044576575    0.1586383180405157    0.18542772969813617    0.21310762086281887    0.24002128555293764    
  0.2643693867814005    0.28453542905016266    0.29938809582992626    0.30837953872822366    0.31137647863218026    
  0.2630737343354296    0.2601937421726985    0.2517091689128891    0.2381144319709076    0.22028034637841626    
  0.19941378462107576    0.17691080640759946    0.1541585996192028    0.13236288935123466    0.11243744414536216    
  0.09495690277964818    0.08017117541755321    0.06807687397251902    0.05851789123291681    0.051271487484515474    
  0.04609608217124789    0.042753205583552535    0.04102821038569469    0.04075451847107453    0.041824576029296186    
  0.04417414135827514    0.04774836230654323    0.05247057630719979    0.05822460893138535    0.06484420990046291    
  0.07210068090369005    0.07969083424329562    0.08723465018763793    0.09428995295881058    0.10038857775099864    
  0.10509311071192308    0.1080580931387475    0.1090700379916549    0.1080580931387475    0.10509311071192308    
  0.10038857775099864    0.09428995295881058    0.08723465018763793    0.07969083424329562    0.07210068090369005    
  0.06484420990046291    0.05822460893138535    0.05247057630719979    0.04774836230654323    0.04417414135827514    
  0.041824576029296186    0.04075451847107453    0.04102821038569469    0.042753205583552535    0.04609608217124789    
  0.051271487484515474    0.05851789123291681    0.06807687397251902    0.08017117541755321    0.09495690277964818    
  0.11243744414536216    0.13236288935123466    0.1541585996192028    0.17691080640759946    0.19941378462107576    
  0.22028034637841626    0.2381144319709076    0.2517091689128891    0.2601937421726985    0.2630737343354296    
  0.21679298480029846    0.21434071025838342    0.20716552379288392    0.1958010365933949    0.18108788540693999    
  0.16407953978225193    0.1459079228498178    0.12764464796507397    0.11019339704152568    0.09422754335936347    
  0.08017117541755323    0.06821913211290118    0.05838800579293077    0.050579527165315816    0.04463435314385942    
  0.04036719383762761    0.03759059590040878    0.036136847185478854    0.03587627094661953    0.036721999439152365    
  0.03861661768675677    0.041508166373027525    0.04532787648561445    0.04997557877064956    0.055310259029210336    
  0.061141947270065694    0.0672251495701938    0.0732570575011358    0.0788862994419889    0.08374056599680342    
  0.08747463428155988    0.08982151958453484    0.09062110801429588    0.08982151958453484    0.08747463428155988    
  0.08374056599680342    0.0788862994419889    0.0732570575011358    0.0672251495701938    0.061141947270065694    
  0.055310259029210336    0.04997557877064956    0.04532787648561445    0.041508166373027525    0.03861661768675677    
  0.036721999439152365    0.03587627094661953    0.036136847185478854    0.03759059590040878    0.04036719383762761    
  0.04463435314385942    0.050579527165315816    0.05838800579293077    0.06821913211290118    0.08017117541755323    
  0.09422754335936347    0.11019339704152568    0.12764464796507397    0.1459079228498178    0.16407953978225193    
  0.18108788540693999    0.1958010365933949    0.20716552379288392    0.21434071025838342    0.21679298480029846    
  0.17744810587338164    0.1754634612518708    0.1696703024361447    0.16053032932846953    0.14874611887706765    
  0.13516887354329302    0.1206897063772839    0.10613742881587049    0.09220385106257685    0.07940540178398961    
  0.068076873972519    0.05838800579293078    0.050374608047139155    0.043976857649505076    0.03907741762865342    
  0.03553401433216561    0.033204477216491946    0.03196393475213236    0.03171349074630681    0.032379812488093726    
  0.03390686020939833    0.03624288075537976    0.03932608829199072    0.04307161020501721    0.047361522702938884    
  0.05203882515056291    0.05690445108193253    0.061716545984753755    0.06619637192402689    0.07004994030751555    
  0.07300707646626992    0.07486190152797406    0.07549310738418562    0.07486190152797406    0.07300707646626992    
  0.07004994030751555    0.06619637192402689    0.061716545984753755    0.05690445108193253    0.05203882515056291    
  0.047361522702938884    0.04307161020501721    0.03932608829199072    0.03624288075537976    0.03390686020939833    
  0.032379812488093726    0.03171349074630681    0.03196393475213236    0.033204477216491946    0.03553401433216561    
  0.03907741762865342    0.043976857649505076    0.050374608047139155    0.05838800579293078    0.068076873972519    
  0.07940540178398961    0.09220385106257685    0.10613742881587049    0.1206897063772839    0.13516887354329302    
  0.14874611887706765    0.16053032932846953    0.1696703024361447    0.1754634612518708    0.17744810587338164    
  0.1464007017426725    0.14481597303680704    0.1401917617852145    0.1328984049701985    0.12349311656506687    
  0.11264479287619458    0.10105097292831382    0.08936152425375435    0.07812280668756551    0.06774913733643398    
  0.05851789123291682    0.05057952716531581    0.04397685764950509    0.03867189853045755    0.03457758585815062    
  0.03158791040664978    0.029599426349786885    0.028521318988305754    0.028276800469042167    0.028800957439594065    
  0.030037829465682737    0.031935526078911675    0.03443733526710092    0.03747015344006843    0.04093482569143602    
  0.044701452088686616    0.048608129142988954    0.052460943967710665    0.05603876913797638    0.05911043234101724    
  0.06146478102274701    0.06294088965223896    0.06344320489502892    0.06294088965223896    0.06146478102274701    
  0.05911043234101724    0.05603876913797638    0.052460943967710665    0.048608129142988954    0.044701452088686616    
  0.04093482569143602    0.03747015344006843    0.03443733526710092    0.031935526078911675    0.030037829465682737    
  0.028800957439594065    0.028276800469042167    0.028521318988305754    0.029599426349786885    0.03158791040664978    
  0.03457758585815062    0.03867189853045755    0.04397685764950509    0.05057952716531581    0.05851789123291682    
  0.06774913733643398    0.07812280668756551    0.08936152425375435    0.10105097292831382    0.11264479287619458    
  0.12349311656506687    0.1328984049701985    0.1401917617852145    0.14481597303680704    0.1464007017426725    
  0.12329794393039614    0.12201540867948925    0.1182707124091552    0.11235673807253697    0.10471404104539832    
  0.0958731832578671    0.08639188861425798    0.07679593564333738    0.06753319122644139    0.05894742709441546    
  0.05127148748451549    0.04463435314385945    0.039077417628653424    0.034577585858150614    0.03107376949280766    
  0.02849058904466778    0.02675342656935436    0.02579363406613212    0.02554797336149624    0.02595762858619929    
  0.026968483316282835    0.028529805244348148    0.03058821806431474    0.03307825352575931    0.035914316891667776    
  0.03898701321865256    0.042162458245183186    0.045283030415462756    0.048172346203788845    0.05064889039487291    
  0.05254727588485475    0.053739057768662085    0.05414511122208595    0.053739057768662085    0.05254727588485475    
  0.05064889039487291    0.048172346203788845    0.045283030415462756    0.042162458245183186    0.03898701321865256    
  0.035914316891667776    0.03307825352575931    0.03058821806431474    0.028529805244348148    0.026968483316282835    
  0.02595762858619929    0.02554797336149624    0.02579363406613212    0.02675342656935436    0.02849058904466778    
  0.03107376949280766    0.034577585858150614    0.039077417628653424    0.04463435314385945    0.05127148748451549    
  0.05894742709441546    0.06753319122644139    0.07679593564333738    0.08639188861425798    0.0958731832578671    
  0.10471404104539832    0.11235673807253697    0.1182707124091552    0.12201540867948925    0.12329794393039614    
  0.10715283707078874    0.1060770010589709    0.10293345587244052    0.09796177428873512    0.09152416006936742    
  0.0840600317215615    0.07603532560333719    0.06789279504264298    0.06001115393570567    0.05268047305725487    
  0.046096082171247894    0.040367193837627616    0.0355340143321656    0.03158791040664978    0.028490589044667766    
  0.026189318240033357    0.024626649578916783    0.023745069858769893    0.023488657992572985    0.023803985412892907    
  0.024640760158061614    0.025950590681639595    0.027682349518949493    0.029775277805010537    0.03215295750091559    
  0.03472010559226809    0.03736199648319188    0.03994653940838117    0.04233046091369811    0.044370119016139194    
  0.04593476987524788    0.046919376172258595    0.047255520029910736    0.046919376172258595    0.04593476987524788    
  0.044370119016139194    0.04233046091369811    0.03994653940838117    0.03736199648319188    0.03472010559226809    
  0.03215295750091559    0.029775277805010537    0.027682349518949493    0.025950590681639595    0.024640760158061614    
  0.023803985412892907    0.023488657992572985    0.023745069858769893    0.024626649578916783    0.026189318240033357    
  0.028490589044667766    0.03158791040664978    0.0355340143321656    0.040367193837627616    0.046096082171247894    
  0.05268047305725487    0.06001115393570567    0.06789279504264298    0.07603532560333719    0.0840600317215615    
  0.09152416006936742    0.09796177428873512    0.10293345587244052    0.1060770010589709    0.10715283707078874    
  0.09694427809973796    0.09599392483728136    0.09321599194245075    0.08881987015634808    0.08312376717196208    
  0.07651530447209878    0.06940582846851492    0.062184797708109286    0.05518258237352011    0.048649460566283415    
  0.04275320558355254    0.037590595900408794    0.03320447721649195    0.029599426349786895    0.026753426569354366    
  0.024626649578916797    0.02316914599599629    0.0223275975907688    0.022049930534949896    0.02228709596617281    
  0.022992526591594977    0.024119969818596515    0.025619900515941655    0.027434845172415227    0.02949464121046888    
  0.031713048559923296    0.03398727706831992    0.03620179140466431    0.03823601739300463    0.03997299988795002    
  0.04130643317017515    0.042147581726427255    0.042435337679969085    0.042147581726427255    0.04130643317017515    
  0.03997299988795002    0.03823601739300463    0.03620179140466431    0.03398727706831992    0.031713048559923296    
  0.02949464121046888    0.027434845172415227    0.025619900515941655    0.024119969818596515    0.022992526591594977    
  0.02228709596617281    0.022049930534949896    0.0223275975907688    0.02316914599599629    0.024626649578916797    
  0.026753426569354366    0.029599426349786895    0.03320447721649195    0.037590595900408794    0.04275320558355254    
  0.048649460566283415    0.05518258237352011    0.062184797708109286    0.06940582846851492    0.07651530447209878    
  0.08312376717196208    0.08881987015634808    0.09321599194245075    0.09599392483728136    0.09694427809973796    
  0.09188525858835375    0.09099376955265814    0.08838782892659565    0.08426420398603661    0.07892282093856735    
  0.07272898306761591    0.06606832378701061    0.05930235451080774    0.05273415063621764    0.04659150791400852    
  0.04102821038569469    0.03613684718547886    0.03196393475213235    0.028521318988305754    0.02579363406613211    
  0.023745069858769896    0.02232759759076879    0.021489352195656432    0.021180200362346017    0.02135318855553917    
  0.02196318954218627    0.02296466899954027    0.02430908878005562    0.025941363033879714    0.027795390408584197    
  0.029790352720149915    0.031830591516141496    0.03381076062299572    0.035624316169207935    0.037170562788569325    
  0.03835802665079915    0.03910823267329604    0.03936520569338257    0.03910823267329604    0.03835802665079915    
  0.037170562788569325    0.035624316169207935    0.03381076062299572    0.031830591516141496    0.029790352720149915    
  0.027795390408584197    0.025941363033879714    0.02430908878005562    0.02296466899954027    0.02196318954218627    
  0.02135318855553917    0.021180200362346017    0.021489352195656432    0.02232759759076879    0.023745069858769896    
  0.02579363406613211    0.028521318988305754    0.03196393475213235    0.03613684718547886    0.04102821038569469    
  0.04659150791400852    0.05273415063621764    0.05930235451080774    0.06606832378701061    0.07272898306761591    
  0.07892282093856735    0.08426420398603661    0.08838782892659565    0.09099376955265814    0.09188525858835375    
  0.09144336220794888    0.09055331802175899    0.08795184857898594    0.08383643924086964    0.07850849907261816    
  0.07233460492874347    0.06569978631901931    0.05896241157907703    0.05242120526214236    0.04630081274399524    
  0.04075451847107455    0.035876270946619535    0.03171349074630681    0.02827680046904216    0.02554797336149624    
  0.023488657992573003    0.0220499305349499    0.021180200362346035    0.020829356173091406    0.02094948480921955    
  0.02149405054142257    0.022416650770829695    0.02366887836150742    0.025196589754635082    0.026935247948563647    
  0.02880657576912097    0.030719116342294125    0.03257361032529336    0.034270776697479244    0.035717175322798174    
  0.036827763578675725    0.03752934995519892    0.03776965979703809    0.03752934995519892    0.036827763578675725    
  0.035717175322798174    0.034270776697479244    0.03257361032529336    0.030719116342294125    0.02880657576912097    
  0.026935247948563647    0.025196589754635082    0.02366887836150742    0.022416650770829695    0.02149405054142257    
  0.02094948480921955    0.020829356173091406    0.021180200362346035    0.0220499305349499    0.023488657992573003    
  0.02554797336149624    0.02827680046904216    0.03171349074630681    0.035876270946619535    0.04075451847107455    
  0.04630081274399524    0.05242120526214236    0.05896241157907703    0.06569978631901931    0.07233460492874347    
  0.07850849907261816    0.08383643924086964    0.08795184857898594    0.09055331802175899    0.09144336220794888    
  0.09526663743371593    0.09432419063560606    0.09157036565558463    0.08721647819622753    0.08158444805181632    
  0.07506443217439217    0.0680644616437653    0.060963134469674315    0.05407618342115019    0.04764218147079549    