#     DFTpy    
  CRYSTAL 
    
  PRIMVEC    
  6.236413793103451    0.0    0.0    
  0.0    6.236413793103451    0.0    
  0.0    0.0    3.435862068965521    
  PRIMCOORD    
  4    1    
  Si    0.0    0.0    0.0    
  Si    3.1182068965517202    3.1182068965517202    1.7179310344827605    
  Si    0.0    3.1182068965517202    0.8589655172413803    
  Si    3.1182068965517202    0.0    2.5768965517241402    
  BEGIN_BLOCK_DATAGRID_3D    
  3d_datagrid_density    
  BEGIN_DATAGRID_3D#0    
  61    61    37    
  0.0    0.0    0.0    
  6.236413816365394    0.0    0.0    
  0.0    6.236413816365394    0.0    
  0.0    0.0    3.435862081781352    
  0.05927505280931661    0.0676139992252509    0.09504642122887355    0.14583029037319004    0.21765111518746605    
  0.2941938606977647    0.35023658246137157    0.3684012099808515    0.3499224385140556    0.3092290821851304    
  0.261838381277739    0.2176653796395845    0.1810664325548497    0.1531394422770987    0.13348424379210502    
  0.12116866018495273    0.1152667616775737    0.1151017871019458    0.12025379480447371    0.13045372083967555    
  0.14545479931798325    0.16488742333914871    0.1880822605076463    0.213896640385342    0.24064102117409883    
  0.26622460471039133    0.28856850941501816    0.30614660728726784    0.31833533513460704    0.32531224314563356    
  0.327558655841416    0.3253122431456336    0.31833533513460704    0.30614660728726784    0.28856850941501816    
  0.2662246047103912    0.24064102117409883    0.21389664038534206    0.1880822605076463    0.16488742333914874    
  0.14545479931798322    0.13045372083967555    0.12025379480447373    0.1151017871019458    0.11526676167757366    
  0.1211686601849527    0.13348424379210505    0.15313944227709866    0.1810664325548497    0.2176653796395845    
  0.261838381277739    0.30922908218513045    0.3499224385140556    0.3684012099808515    0.3502365824613716    
  0.2941938606977647    0.21765111518746613    0.14583029037319    0.09504642122887356    0.06761399922525092    
  0.05927505280931661    0.0676139992252509    0.07637972054483515    0.10479735702347216    0.1562161764091093    
  0.2271395133376705    0.3008007935575908    0.35291800165856835    0.3677005162595342    0.34730653436875614    
  0.30604792717212026    0.2588500672135887    0.2151289872385709    0.17898535461816803    0.15142362549541616    
  0.13202288519427546    0.11985925442859757    0.11402364534444531    0.11385234671024248    0.11893073346745132    
  0.12899107085176398    0.14378979856062618    0.16296590946356249    0.18586603258047962    0.21137435110307673    
  0.23784249172524521    0.2632300181971232    0.28549788322267955    0.30312314233316295    0.315436633790596    
  0.3225377689190831    0.3248353539302822    0.32253776891908315    0.315436633790596    0.303123142333163    
  0.28549788322267955    0.2632300181971232    0.23784249172524521    0.21137435110307673    0.18586603258047962    
  0.16296590946356254    0.1437897985606262    0.12899107085176395    0.11893073346745137    0.11385234671024251    
  0.1140236453444453    0.11985925442859757    0.13202288519427546    0.15142362549541616    0.17898535461816803    
  0.21512898723857085    0.2588500672135888    0.30604792717212026    0.34730653436875614    0.3677005162595343    
  0.3529180016585684    0.3008007935575908    0.22713951333767057    0.15621617640910931    0.10479735702347216    
  0.07637972054483518    0.0676139992252509    0.09504642122887356    0.10479735702347223    0.13525700011129693    
  0.187174899164569    0.25406151059959803    0.3184892139021331    0.3591679821559958    0.3645985265968891    
  0.33914724106251287    0.29655894518282966    0.25005831085245595    0.20769982265152062    0.17289919371972698    
  0.14641107765675407    0.12775979513136368    0.11604669476330494    0.11041147842961954    0.11022768483538446    
  0.11509536751483064    0.12474974332398794    0.13895545223786393    0.15737560471690565    0.17940278444622704    
  0.20399789893650117    0.22962791613968164    0.2543919844653797    0.27636287077932076    0.29403263309805433    
  0.30661694117813604    0.31401118151227425    0.31643242571378677    0.31401118151227425    0.3066169411781361    
  0.29403263309805433    0.27636287077932076    0.25439198446537964    0.22962791613968164    0.2039978989365012    
  0.17940278444622704    0.15737560471690568    0.13895545223786393    0.12474974332398789    0.11509536751483067    
  0.11022768483538446    0.11041147842961951    0.11604669476330493    0.12775979513136368    0.14641107765675404    
  0.17289919371972698    0.2076998226515206    0.250058310852456    0.29655894518282966    0.3391472410625129    
  0.3645985265968891    0.35916798215599577    0.31848921390213314    0.25406151059959803    0.18717489916456906    
  0.13525700011129688    0.10479735702347223    0.09504642122887356    0.14583029037319004    0.15621617640910931    
  0.187174899164569    0.23590840361459084    0.29274813716802817    0.34091547468705274    0.36417255883368443    
  0.356627398530368    0.3248045529225853    0.28103830254346507    0.23601501002072184    0.19592619170009629    
  0.16327981696162241    0.13850095600178608    0.12104532794193403    0.1100579448649828    0.10475451011214576    
  0.10456487068117608    0.10911023539369516    0.11812852055068633    0.13139440728925278    0.14860594738234958    
  0.16922557020663337    0.19232976243801034    0.2165536048530322    0.24019561455764518    0.26149203961294915    
  0.2789736688615418    0.2917241537331816    0.2993851871125584    0.301928901069577    0.2993851871125584    
  0.2917241537331816    0.2789736688615418    0.26149203961294915    0.24019561455764513    0.2165536048530322    
  0.19232976243801034    0.1692255702066334    0.14860594738234956    0.13139440728925275    0.11812852055068632    
  0.10911023539369519    0.10456487068117609    0.10475451011214573    0.11005794486498278    0.12104532794193403    
  0.13850095600178608    0.16327981696162241    0.19592619170009629    0.23601501002072187    0.28103830254346507    
  0.32480455292258525    0.356627398530368    0.3641725588336845    0.34091547468705274    0.2927481371680282    
  0.23590840361459084    0.187174899164569    0.15621617640910931    0.14583029037319004    0.2176511151874661    
  0.22713951333767057    0.254061510599598    0.2927481371680283    0.3322143945325799    0.3586257214119596    
  0.3619185789921787    0.34123856244163286    0.303998730550012    0.2602131736710357    0.21769099093293695    
  0.18071265489868704    0.15088939286487799    0.1283242161418822    0.11241683188767322    0.10237707075458352    
  0.09751684190649672    0.09733431494389244    0.10147594108845415    0.10968202593092535    0.12173667015506852    
  0.13737697415274122    0.15614847691843492    0.17726541816341854    0.19955673050778328    0.22154537806010577    
  0.2416578314799917    0.25849696319800924    0.2710530841725536    0.2787493250352211    0.28133577025484036    
  0.2787493250352211    0.2710530841725536    0.25849696319800924    0.24165783147999176    0.22154537806010577    
  0.19955673050778328    0.17726541816341854    0.1561484769184349    0.13737697415274122    0.12173667015506855    
  0.10968202593092534    0.10147594108845416    0.09733431494389246    0.09751684190649669    0.10237707075458351    
  0.11241683188767325    0.1283242161418822    0.15088939286487799    0.18071265489868704    0.21769099093293695    
  0.2602131736710357    0.3039987305500121    0.34123856244163286    0.36191857899217866    0.3586257214119596    
  0.33221439453257995    0.2927481371680283    0.254061510599598    0.22713951333767057    0.2176511151874661    
  0.29419386069776465    0.3008007935575908    0.3184892139021331    0.34091547468705274    0.3586257214119595    
  0.3624543971594285    0.34795693531221267    0.31736620814875166    0.27742196046311246    0.23538229357784377    
  0.1964216388888777    0.1632274566996494    0.13668968056315026    0.11666161766256473    0.10252327899101621    
  0.09357185312673    0.08922639209008408    0.08905780667411606    0.09274155514771323    0.10002341783105369    
  0.11069642094843661    0.12453373674396305    0.14116329022506807    0.1599396802724501    0.1798867835071709    
  0.19975023185698773    0.21815401279475508    0.233808742080929    0.24568274540407126    0.2530706698385592    
  0.25557563983805337    0.2530706698385592    0.24568274540407134    0.233808742080929    0.21815401279475508    
  0.1997502318569877    0.1798867835071709    0.1599396802724501    0.14116329022506807    0.12453373674396306    
  0.11069642094843664    0.10002341783105366    0.09274155514771325    0.08905780667411606    0.08922639209008407    
  0.09357185312672998    0.10252327899101621    0.11666161766256472    0.13668968056315026    0.16322745669964936    
  0.1964216388888777    0.2353822935778437    0.2774219604631125    0.3173662081487516    0.34795693531221267    
  0.3624543971594285    0.35862572141195953    0.34091547468705274    0.3184892139021331    0.3008007935575909    
  0.29419386069776465    0.35023658246137157    0.3529180016585684    0.3591679821559957    0.36417255883368443    
  0.36191857899217866    0.34795693531221267    0.32164153474687585    0.28621880552709567    0.24684707378069454    
  0.2082894477160982    0.17372710290258492    0.14472791522442477    0.12169159401359766    0.10432294208871042    
  0.09203124763446426    0.0842194361533351    0.08041303612454846    0.08025288581456679    0.08344841634239678    
  0.08975942617107995    0.09899003652287758    0.11094144334586596    0.12530987945024427    0.1415748024304188    
  0.15893849773712046    0.17635394942912677    0.19264111037801782    0.20664971313560918    0.21739927360914893    
  0.22415481048983252    0.22645883541839504    0.22415481048983255    0.21739927360914899    0.20664971313560918    
  0.19264111037801784    0.17635394942912677    0.15893849773712046    0.1415748024304188    0.12530987945024427    
  0.11094144334586596    0.09899003652287758    0.08975942617107993    0.0834484163423968    0.0802528858145668    
  0.08041303612454846    0.0842194361533351    0.09203124763446427    0.1043229420887104    0.12169159401359766    
  0.1447279152244247    0.17372710290258492    0.2082894477160982    0.2468470737806946    0.28621880552709567    
  0.32164153474687585    0.34795693531221267    0.3619185789921787    0.36417255883368443    0.3591679821559957    
  0.3529180016585684    0.35023658246137157    0.3684012099808514    0.3677005162595343    0.36459852659688907    
  0.356627398530368    0.34123856244163286    0.31736620814875155    0.28621880552709567    0.2508078352168117    
  0.2146827037539508    0.1808059300250617    0.15107559653040042    0.12636990162093453    0.10680375262736028    
  0.09203287944334805    0.08154173426910472    0.07484587341385465    0.07156460052038545    0.07139995762133985    
  0.07410065449439024    0.0794525484989755    0.08727617166696364    0.09739191645524986    0.10954322350772545    
  0.12330747142067836    0.138038859758191    0.15287804238718355    0.16683710199728127    0.17892749702004956    
  0.18827358707076425    0.19418448655295692    0.19620795372507435    0.19418448655295692    0.18827358707076425    
  0.17892749702004956    0.16683710199728122    0.15287804238718353    0.138038859758191    0.12330747142067838    
  0.10954322350772545    0.09739191645524987    0.08727617166696365    0.07945254849897548    0.07410065449439027    
  0.07139995762133987    0.07156460052038545    0.07484587341385465    0.08154173426910473    0.09203287944334802    
  0.10680375262736028    0.12636990162093453    0.15107559653040042    0.1808059300250617    0.2146827037539509    
  0.25080783521681177    0.28621880552709567    0.31736620814875155    0.3412385624416329    0.356627398530368    
  0.36459852659688907    0.3677005162595343    0.3684012099808514    0.3499224385140555    0.34730653436875614    
  0.3391472410625129    0.32480455292258525    0.3039987305500121    0.2774219604631125    0.24684707378069462    
  0.2146827037539508    0.18331112257192236    0.15459408094029498    0.12968559535329846    0.10907333942249144    
  0.09273834313999879    0.08036509380360513    0.07154125376676194    0.06588674260990841    0.06309396048578161    
  0.0629144134170161    0.06513895145727712    0.06958946323493903    0.07610908893358859    0.08453230642411753    
  0.09463131201568083    0.10605322136603486    0.11827431818002797    0.1306006843975669    0.14222860560994027    
  0.15234101611393197    0.16019476081289288    0.16518269601018626    0.16689446454215773    0.16518269601018631    
  0.16019476081289288    0.15234101611393197    0.14222860560994022    0.13060068439756686    0.11827431818002797    
  0.10605322136603486    0.09463131201568083    0.08453230642411753    0.0761090889335886    0.069589463234939    
  0.06513895145727713    0.0629144134170161    0.0630939604857816    0.06588674260990841    0.07154125376676196    
  0.08036509380360511    0.09273834313999879    0.10907333942249141    0.12968559535329846    0.15459408094029498    
  0.18331112257192236    0.2146827037539509    0.2468470737806946    0.2774219604631125    0.3039987305500121    
  0.32480455292258525    0.33914724106251287    0.34730653436875614    0.3499224385140555    0.3092290821851303    
  0.30604792717212026    0.2965589451828296    0.28103830254346507    0.2602131736710356    0.2353822935778437    
  0.2082894477160982    0.18080593002506168    0.15459408094029492    0.13088744662729102    0.11041981879391087    
  0.09347162083089754    0.07998922654855901    0.06973038867925592    0.0623886249327832    0.057668388027988605    
  0.055314633839153124    0.05511774311137565    0.056908878942651606    0.06054836841496952    0.06590527380492113    
  0.07282827980991001    0.08110958230335193    0.09044569691088902    0.10040751300970203    0.1104407528769446    
  0.11990857215718888    0.12815895408153694    0.13458592151801396    0.13867969715234357    0.14008711077766736    
  0.13867969715234357    0.13458592151801396    0.12815895408153694    0.11990857215718888    0.11044075287694459    
  0.10040751300970205    0.09044569691088902    0.08110958230335193    0.07282827980991001    0.06590527380492113    
  0.060548368414969495    0.05690887894265162    0.055117743111375676    0.055314633839153124    0.05766838802798859    
  0.0623886249327832    0.06973038867925589    0.07998922654855901    0.09347162083089752    0.11041981879391087    
  0.130887446627291    0.15459408094029495    0.1808059300250617    0.2082894477160982    0.2353822935778437    
  0.26021317367103564    0.28103830254346507    0.29655894518282955    0.30604792717212026    0.3092290821851303    
  0.261838381277739    0.2588500672135888    0.25005831085245595    0.23601501002072187    0.21769099093293695    
  0.19642163888887773    0.17372710290258495    0.15107559653040037    0.12968559535329843    0.11041981879391091    
  0.09377318919718126    0.07993037782102913    0.06885789309569806    0.060395036307616556    0.054322132637734895    
  0.050405779683467634    0.04843050945216904    0.04821932434659571    0.049637420971121476    0.052577025126122376    
  0.056930914259296986    0.06256464732583691    0.06929109225529152    0.07684685673555239    0.08487650869868345    
  0.09293779448644109    0.10053317786492828    0.10715384436559292    0.11231893256974436    0.11561443480798257    
  0.1167485815434835    0.11561443480798257    0.11231893256974433    0.10715384436559287    0.10053317786492828    
  0.09293779448644106    0.08487650869868345    0.0768468567355524    0.06929109225529152    0.06256464732583693    
  0.056930914259297    0.05257702512612235    0.0496374209711215    0.04821932434659574    0.04843050945216904    
  0.05040577968346763    0.054322132637734895    0.06039503630761652    0.06885789309569806    0.07993037782102913    
  0.09377318919718126    0.11041981879391087    0.12968559535329846    0.1510755965304004    0.17372710290258492    
  0.1964216388888777    0.21769099093293695    0.23601501002072187    0.2500583108524559    0.2588500672135888    
  0.261838381277739    0.21766537963958443    0.21512898723857085    0.20769982265152057    0.19592619170009623    
  0.180712654898687    0.16322745669964936    0.1447279152244247    0.12636990162093453    0.10907333942249138    
  0.09347162083089754    0.07993037782102912    0.06860324105038589    0.05949344512127749    0.05250342497150734    
  0.04747267483427176    0.04421327367535224    0.04254532120378449    0.04232220825327341    0.0434347863837821    
  0.045795451190056555    0.049313622874783546    0.05387253687161219    0.059309367242276256    0.06539878705152524    
  0.07184572130826573    0.07829503202341848    0.08435662312105723    0.08963407394512102    0.09374975507598007    
  0.09637540950954072    0.09727895925703549    0.09637540950954075    0.09374975507598007    0.08963407394512099    
  0.0843566231210572    0.07829503202341845    0.07184572130826575    0.06539878705152524    0.059309367242276256    
  0.05387253687161219    0.04931362287478356    0.04579545119005653    0.04343478638378212    0.04232220825327343    
  0.0425453212037845    0.04421327367535223    0.04747267483427178    0.05250342497150732    0.0594934451212775    
  0.06860324105038589    0.07993037782102912    0.09347162083089754    0.10907333942249141    0.12636990162093453    
  0.14472791522442466    0.16322745669964936    0.18071265489868701    0.19592619170009626    0.20769982265152057    
  0.2151289872385709    0.21766537963958443    0.1810664325548497    0.17898535461816803    0.17289919371972695    
  0.16327981696162241    0.15088939286487799    0.13668968056315026    0.12169159401359766    0.10680375262736022    
  0.09273834313999878    0.07998922654855903    0.06885789309569805    0.0594934451212775    0.05192655627856269    
  0.046096407892348354    0.041879520075554164    0.03912488850610371    0.03768799663457369    0.03745078717770078    
  0.03832184742406866    0.040222922410541186    0.04307184455910277    0.04676628762302564    0.05116762306689704    
  0.05608706003198946    0.061281520272882875    0.06646398475374224    0.07132337066285978    0.075544890193513    
  0.07882955303924308    0.08092037110663138    0.08163882202132827    0.08092037110663139    0.07882955303924306    
  0.075544890193513    0.07132337066285974    0.06646398475374223    0.061281520272882896    0.056087060031989426    
  0.05116762306689704    0.04676628762302564    0.043071844559102776    0.040222922410541165    0.03832184742406867    
  0.0374507871777008    0.03768799663457368    0.03912488850610372    0.04187952007555418    0.04609640789234833    
  0.0519265562785627    0.0594934451212775    0.06885789309569805    0.07998922654855903    0.09273834313999876    
  0.10680375262736025    0.12169159401359766    0.13668968056315026    0.15088939286487799    0.16327981696162241    
  0.17289919371972695    0.17898535461816803    0.1810664325548497    0.15313944227709864    0.15142362549541613    
  0.14641107765675399    0.13850095600178608    0.12832421614188216    0.11666161766256469    0.1043229420887104    
  0.09203287944334801    0.08036509380360508    0.06973038867925592    0.06039503630761654    0.05250342497150734    
  0.04609640789234832    0.041131554371405823    0.03751180734112664    0.035119036018765495    0.03384110398685021    
  0.03358348885069548    0.034266322588030806    0.035814927287162644    0.038150156373592425    0.04117845343913711    
  0.044779779373778195    0.048796474844055415    0.05302979753314615    0.0572469027719856    0.06119445879708856    
  0.0646148926741052    0.0672661968013916    0.06894698609279266    0.06952298155902617    0.06894698609279264    
  0.0672661968013916    0.06461489267410521    0.06119445879708855    0.05724690277198558    0.05302979753314616    
  0.048796474844055394    0.0447797793737782    0.04117845343913711    0.038150156373592405    0.03581492728716261    
  0.03426632258803082    0.03358348885069549    0.03384110398685021    0.0351190360187655    0.03751180734112665    
  0.0411315543714058    0.046096407892348326    0.05250342497150733    0.06039503630761653    0.06973038867925592    
  0.08036509380360511    0.09203287944334802    0.10432294208871037    0.11666161766256469    0.12832421614188216    
  0.13850095600178608    0.14641107765675399    0.15142362549541616    0.15313944227709864    0.13348424379210505    
  0.13202288519427546    0.12775979513136368    0.12104532794193408    0.11241683188767325    0.1025232789910162    
  0.0920312476344643    0.08154173426910472    0.07154125376676194    0.06238862493278323    0.054322132637734916    
  0.047472674834271804    0.04187952007555418    0.03751180734112666    0.03429578877570274    0.032141486202738295    
  0.030960918238185205    0.030674713240891712    0.031209984814668926    0.03249467532004554    0.0344513660166286    
  0.03699049013347288    0.04000276209577884    0.043352804039021614    0.04687654133426318    0.05038310044088414    
  0.0536614809327097    0.05649434234277537    0.05868026838031657    0.060059035988328124    0.06052993518962255    
  0.060059035988328145    0.05868026838031657    0.05649434234277537    0.0536614809327097    0.050383100440884114    
  0.04687654133426319    0.04335280403902161    0.040002762095778834    0.03699049013347288    0.034451366016628605    
  0.0324946753200455    0.031209984814668922    0.030674713240891736    0.030960918238185208    0.0321414862027383    
  0.034295788775702746    0.03751180734112664    0.04187952007555418    0.047472674834271804    0.0543221326377349    
  0.06238862493278323    0.07154125376676194    0.08154173426910472    0.09203124763446428    0.10252327899101621    
  0.11241683188767321    0.12104532794193405    0.12775979513136365    0.13202288519427546    0.13348424379210505    
  0.12116866018495268    0.11985925442859753    0.11604669476330487    0.11005794486498278    0.10237707075458345    
  0.09357185312672996    0.0842194361533351    0.07484587341385462    0.06588674260990839    0.05766838802798859    
  0.05040577968346762    0.04421327367535219    0.03912488850610373    0.03511903601876549    0.03214148620273829    
  0.03012246203368752    0.028987561792068253    0.028663927554859768    0.029082074651083832    0.03017302048361748    
  0.03186183307080104    0.034060860032392865    0.036665748850398236    0.03955436844474497    0.04258589477392299    
  0.04559872036110185    0.04841156901126966    0.050835448093538835    0.052697588787403736    0.0538664882186419    
  0.05426443815198149    0.053866488218641914    0.052697588787403736    0.05083544809353881    0.048411569011269626    
  0.04559872036110181    0.04258589477392299    0.03955436844474494    0.03666574885039825    0.03406086003239286    
  0.03186183307080106    0.030173020483617453    0.02908207465108385    0.028663927554859806    0.028987561792068257    
  0.03012246203368753    0.03214148620273829    0.03511903601876546    0.03912488850610374    0.044213273675352216    
  0.05040577968346762    0.057668388027988585    0.0658867426099084    0.07484587341385464    0.08421943615333509    
  0.09357185312672996    0.10237707075458347    0.11005794486498273    0.11604669476330487    0.11985925442859753    
  0.12116866018495268    0.11526676167757373    0.11402364534444531    0.11041147842961956    0.10475451011214577    
  0.09751684190649669    0.08922639209008411    0.08041303612454853    0.07156460052038546    0.06309396048578157    
  0.05531463383915316    0.04843050945216906    0.04254532120378451    0.0376879966345737    0.03384110398685026    
  0.03096091823818524    0.028987561792068257    0.027851432693335745    0.0274803967094486    0.02780531885277064    
  0.028759049999517644    0.03026895365527614    0.03224906242376704    0.034597572197647725    0.03719886989471189    
  0.03992424506048721    0.04262854708821558    0.045148909936906005    0.04731538743737425    0.04897445471417292    
  0.05001255119872278    0.05036524883983369    0.050012551198722784    0.04897445471417293    0.04731538743737422    
  0.045148909936906005    0.042628547088215556    0.039924245060487216    0.03719886989471188    0.03459757219764774    
  0.03224906242376703    0.030268953655276168    0.028759049999517634    0.02780531885277064    0.02748039670944863    
  0.027851432693335745    0.02898756179206827    0.03096091823818524    0.03384110398685021    0.0376879966345737    
  0.0425453212037845    0.04843050945216906    0.05531463383915316    0.0630939604857816    0.07156460052038546    
  0.08041303612454848    0.08922639209008411    0.09751684190649675    0.10475451011214576    0.11041147842961956    
  0.11402364534444534    0.11526676167757373    0.11510178710194578    0.11385234671024246    0.11022768483538449    
  0.10456487068117609    0.09733431494389244    0.08905780667411606    0.08025288581456681    0.07139995762133988    
  0.0629144134170161    0.0551177431113757    0.048219324346595774    0.04232220825327346    0.03745078717770082    
  0.03358348885069556    0.030674713240891764    0.028663927554859824    0.02748039670944863    0.027049895645262292    
  0.027301006497607097    0.02816515767358822    0.0295697088195259    0.03142992242883861    0.03364581623402459    
  0.03610384796986664    0.03867828500596705    0.041229314616932286    0.04360272759528965    0.04563972776331468    
  0.047197925863282496    0.04817229809783292    0.048503259201095966    0.04817229809783289    0.04719792586328248    
  0.04563972776331465    0.04360272759528964    0.04122931461693223    0.03867828500596704    0.03610384796986664    
  0.0336458162340246    0.031429922428838616    0.0295697088195259    0.0281651576735882    0.02730100649760712    
  0.02704989564526232    0.02748039670944863    0.028663927554859824    0.030674713240891764    0.033583488850695516    
  0.037450787177700826    0.04232220825327346    0.048219324346595774    0.05511774311137568    0.06291441341701613    
  0.0713999576213399    0.0802528858145668    0.08905780667411606    0.09733431494389247    0.10456487068117609    
  0.11022768483538449    0.11385234671024251    0.11510178710194578    0.1202537948044737    0.11893073346745132    
  0.11509536751483061    0.1091102353936952    0.10147594108845413    0.09274155514771325    0.0834484163423968    
  0.07410065449439024    0.06513895145727706    0.056908878942651606    0.0496374209711215    0.04343478638378209    
  0.03832184742406866    0.03426632258803083    0.031209984814668915    0.029082074651083832    0.027805318852770607    
  0.027301006497607045    0.027493139118379136    0.028308337621116147    0.02967071328015287    0.03149486170327548    
  0.033681061407438845    0.0361142302649359    0.03866494192328531    0.04119045438359335    0.043537421788122206    
  0.04555124516787455    0.047093419329635566    0.04805954899160176    0.04838816596792648    0.04805954899160171    
  0.047093419329635546    0.045551245167874545    0.043537421788122206    0.04119045438359335    0.03866494192328532    
  0.03611423026493586    0.03368106140743885    0.03149486170327547    0.029670713280152878    0.028308337621116123    
  0.02749313911837917    0.027301006497607073    0.027805318852770607    0.029082074651083836    0.03120998481466891    
  0.03426632258803078    0.038321847424068675    0.043434786383782106    0.049637420971121504    0.05690887894265162    
  0.06513895145727708    0.07410065449439025    0.08344841634239678    0.09274155514771325    0.10147594108845413    
  0.1091102353936952    0.11509536751483061    0.1189307334674514    0.1202537948044737    0.13045372083967552    
  0.1289910708517639    0.12474974332398789    0.11812852055068633    0.10968202593092535    0.10002341783105367    
  0.08975942617107997    0.07945254849897551    0.069589463234939    0.06054836841496951    0.05257702512612238    
  0.04579545119005656    0.040222922410541186    0.03581492728716267    0.032494675320045525    0.030173020483617505    
  0.028759049999517634    0.028165157673588175    0.02830833762111614    0.02910832891161772    0.030483365317194422    
  0.03234431937776795    0.0345885485022091    0.037095869328945034    0.03972864388633106    0.04233553804097927    
  0.044757653952374785    0.04683789870957689    0.04843492049358005    0.04943860264115524    0.04978075616422696    
  0.049438602641155203    0.048434920493580016    0.04683789870957688    0.044757653952374764    0.04233553804097926    
  0.03972864388633106    0.03709586932894501    0.03458854850220908    0.03234431937776795    0.030483365317194446    
  0.029108328911617697    0.028308337621116172    0.0281651576735882    0.028759049999517627    0.030173020483617505    
  0.03249467532004551    0.03581492728716262    0.040222922410541186    0.04579545119005657    0.05257702512612238    
  0.06054836841496952    0.069589463234939    0.07945254849897551    0.08975942617107996    0.10002341783105366    
  0.10968202593092534    0.11812852055068632    0.12474974332398792    0.12899107085176398    0.13045372083967552    
  0.14545479931798322    0.1437897985606262    0.13895545223786399    0.13139440728925278    0.12173667015506856    
  0.11069642094843664    0.09899003652287759    0.08727617166696366    0.07610908893358855    0.06590527380492116    
  0.05693091425929701    0.04931362287478357    0.04307184455910279    0.03815015637359246    0.03445136601662862    
  0.03186183307080107    0.030268953655276164    0.029569708819525867    0.02967071328015289    0.030483365317194446    
  0.03191815095726154    0.03387898497783012    0.03625665542135801    0.03892291315871864    0.04172915699675595    
  0.04451137142986478    0.04709897686794013    0.049325189178210625    0.05103913745263963    0.052119820458679855    