#     DFTpy    
  CRYSTAL 
    
  PRIMVEC    
  4.644137931034481    0.0    0.0    
  0.0    4.644137931034481    0.0    
  0.0    0.0    2.558620689655171    
  PRIMCOORD    
  4    1    
  Si    0.0    0.0    0.0    
  Si    2.3220689655172406    2.3220689655172406    1.2793103448275902    
  Si    0.0    2.3220689655172406    0.63965517241379    
  Si    2.3220689655172406    0.0    1.9189655172413804    
  BEGIN_BLOCK_DATAGRID_3D    
  3d_datagrid_density    
  BEGIN_DATAGRID_3D#0    
  46    46    25    
  0.0    0.0    0.0    
  4.644137948357204    0.0    0.0    
  0.0    4.644137948357204    0.0    
  0.0    0.0    2.558620699198875    
  0.04868077953938576    0.05653129031763156    0.08303944233256222    0.1345483154935201    0.2129121058933035    
  0.30663434142141327    0.3921427700000941    0.44815280083653475    0.46900295134302367    0.46406571221566634    
  0.4476760667037429    0.43103434155878917    0.42011575302884796    0.41678329831451594    0.4201106396652804    
  0.42717704930071354    0.4337958187520694    0.4356593199393011    0.4299485109402807    0.41680858174938135    
  0.39966065300635895    0.3838618011263982    0.37448224766221067    0.37448224766221067    0.3838618011263982    
  0.399660653006359    0.41680858174938135    0.4299485109402807    0.4356593199393012    0.4337958187520694    
  0.42717704930071365    0.4201106396652804    0.416783298314516    0.42011575302884807    0.43103434155878917    
  0.4476760667037429    0.46406571221566634    0.46900295134302367    0.4481528008365347    0.39214277000009407    
  0.30663434142141327    0.2129121058933035    0.13454831549352    0.08303944233256232    0.05653129031763151    
  0.04868077953938576    0.05653129031763151    0.06485850740216183    0.09253152228357243    0.14502557181865808    
  0.2229316790606819    0.314017472646557    0.3953389203995306    0.447168097861185    0.46505116345615827    
  0.458566714674054    0.44160353712916856    0.4248509797785297    0.413972121871859    0.41070456515635645    
  0.4141195035821336    0.42139050376528275    0.4284935063819717    0.43126801691716427    0.42690781653600446    
  0.4153752220202193    0.39977681506845586    0.3851655779098686    0.37641880442345166    0.37641880442345166    
  0.3851655779098686    0.39977681506845586    0.41537522202021937    0.42690781653600446    0.43126801691716427    
  0.4284935063819717    0.4213905037652828    0.41411950358213356    0.41070456515635645    0.4139721218718591    
  0.4248509797785297    0.44160353712916856    0.458566714674054    0.4650511634561582    0.447168097861185    
  0.3953389203995306    0.31401747264655694    0.22293167906068187    0.14502557181865802    0.09253152228357253    
  0.06485850740216183    0.05653129031763151    0.08303944233256222    0.09253152228357239    0.12284766449322425    
  0.1769072487405978    0.2519842616556732    0.3343521755318135    0.4032650275055639    0.44331686879527926    
  0.4531017642254802    0.4425023183474694    0.4240677435539543    0.4070694682440581    0.3963248150025112    
  0.3932356941049749    0.3968703881875926    0.40466149667827583    0.4130303584913267    0.4182279202116109    
  0.41750893189522975    0.410367948215477    0.3990617077674973    0.3877826134868297    0.3808281721227125    
  0.3808281721227126    0.3877826134868297    0.3990617077674973    0.410367948215477    0.4175089318952298    
  0.4182279202116109    0.4130303584913267    0.40466149667827583    0.3968703881875926    0.3932356941049749    
  0.3963248150025112    0.4070694682440581    0.4240677435539543    0.44250231834746934    0.4531017642254801    
  0.44331686879527926    0.4032650275055639    0.33435217553181346    0.2519842616556732    0.17690724874059777    
  0.12284766449322426    0.09253152228357239    0.08303944233256222    0.13454831549352003    0.14502557181865805    
  0.17690724874059785    0.22941520227419732    0.29593317880886977    0.36214376569417167    0.4114635463403478    
  0.4344443051181257    0.43314140237971377    0.41718290262788443    0.3969788399451288    0.37979865545523955    
  0.36931163196317357    0.3664732694484244    0.3703588394073084    0.37876325885153156    0.38872304016115883    
  0.39707599321680076    0.401224092289322    0.40010176331432895    0.39482784123263437    0.38834117473269947    
  0.3840081809418745    0.3840081809418745    0.3883411747326995    0.39482784123263437    0.40010176331432895    
  0.401224092289322    0.3970759932168007    0.38872304016115883    0.3787632588515316    0.3703588394073083    
  0.36647326944842434    0.36931163196317357    0.37979865545523944    0.3969788399451288    0.41718290262788443    
  0.43314140237971377    0.4344443051181256    0.4114635463403478    0.36214376569417167    0.29593317880886977    
  0.2294152022741972    0.1769072487405979    0.14502557181865805    0.13454831549352003    0.2129121058933036    
  0.2229316790606819    0.2519842616556732    0.2959331788088698    0.3457884213314955    0.3889007105661854    
  0.4143358778524318    0.4184915607086238    0.40583039149965816    0.38477297971700375    0.3631236954519966    
  0.3460076917560961    0.33591381912845114    0.3333491516110585    0.3374159474680942    0.3463015830577832    
  0.3576858644618808    0.36903770187842355    0.37799323844348826    0.3830255898872825    0.3841316823422096    
  0.3828679295926278    0.38145328170914305    0.38145328170914305    0.3828679295926278    0.3841316823422096    
  0.38302558988728247    0.37799323844348826    0.3690377018784236    0.35768586446188083    0.3463015830577832    
  0.3374159474680942    0.3333491516110585    0.3359138191284512    0.3460076917560961    0.3631236954519966    
  0.38477297971700375    0.4058303914996582    0.41849156070862376    0.4143358778524318    0.38890071056618536    
  0.3457884213314955    0.29593317880886977    0.25198426165567334    0.2229316790606819    0.2129121058933036    
  0.3066343414214133    0.31401747264655705    0.33435217553181357    0.3621437656941718    0.38890071056618536    
  0.4058036370288313    0.4076163271513179    0.394934483507744    0.37293603735664377    0.3481103884564509    
  0.3257120633342469    0.30898128994044666    0.2993950298140973    0.2970842403883642    0.30120366409972577    
  0.3103059633030406    0.32262582026609216    0.33618000831648515    0.3488751152252184    0.3589192680266872    
  0.3654410997205679    0.36877001226885764    0.3699843421184389    0.3699843421184389    0.3687700122688577    
  0.3654410997205679    0.3589192680266872    0.3488751152252184    0.3361800083164852    0.32262582026609216    
  0.3103059633030406    0.30120366409972577    0.2970842403883642    0.2993950298140973    0.3089812899404467    
  0.3257120633342469    0.3481103884564509    0.37293603735664377    0.3949344835077439    0.4076163271513179    
  0.4058036370288313    0.38890071056618536    0.3621437656941717    0.3343521755318136    0.31401747264655705    
  0.3066343414214133    0.39214277000009407    0.39533892039953056    0.4032650275055639    0.4114635463403478    
  0.41433587785243176    0.4076163271513179    0.39041428413009993    0.3654149790469297    0.33722452099465433    
  0.3103197251909356    0.28791749704466796    0.27185131396759377    0.2628378853602294    0.2607324081435396    
  0.2647659522256874    0.2737991205134408    0.2864772746499503    0.30121072585448083    0.3161502496470057    
  0.3294270562195672    0.33964681507965816    0.34625352441722274    0.3493987132077515    0.3493987132077515    
  0.3462535244172228    0.33964681507965816    0.3294270562195672    0.3161502496470057    0.30121072585448083    
  0.2864772746499503    0.2737991205134408    0.2647659522256874    0.2607324081435396    0.26283788536022945    
  0.27185131396759377    0.28791749704466796    0.31031972519093565    0.33722452099465433    0.3654149790469296    
  0.39041428413009993    0.4076163271513179    0.4143358778524318    0.4114635463403478    0.40326502750556403    
  0.39533892039953056    0.39214277000009407    0.4481528008365347    0.447168097861185    0.4433168687952793    
  0.4344443051181257    0.41849156070862364    0.3949344835077439    0.3654149790469296    0.3331814795780412    
  0.3018412035639921    0.27431856220924605    0.2524786646788145    0.23723824719446593    0.22879853414364895    
  0.22683738361842368    0.23067544449173674    0.2394120168707597    0.25196069924887804    0.2669735460554411    
  0.28279022806443227    0.2975910799065454    0.3097601024896806    0.31822474881185364    0.3225116672006578    
  0.3225116672006578    0.31822474881185364    0.3097601024896806    0.2975910799065454    0.28279022806443227    
  0.2669735460554411    0.25196069924887804    0.23941201687075966    0.23067544449173671    0.22683738361842368    
  0.228798534143649    0.23723824719446593    0.2524786646788145    0.27431856220924605    0.3018412035639921    
  0.3331814795780411    0.3654149790469296    0.3949344835077439    0.41849156070862364    0.4344443051181255    
  0.4433168687952793    0.447168097861185    0.4481528008365347    0.4690029513430238    0.4650511634561582    
  0.4531017642254802    0.43314140237971377    0.40583039149965816    0.37293603735664377    0.33722452099465433    
  0.3018412035639922    0.2695749327954784    0.24240367779367455    0.2214254234289625    0.20702459616696373    
  0.1990934753301482    0.1972194220884813    0.20080829692247837    0.2091223923382609    0.22123051663240328    
  0.23592144336472656    0.25167790463796386    0.2667933227271826    0.2796240092301956    0.28885954124984226    
  0.29366637122609757    0.29366637122609757    0.2888595412498423    0.27962400923019554    0.2667933227271826    
  0.25167790463796386    0.23592144336472656    0.22123051663240328    0.20912239233826085    0.20080829692247834    
  0.1972194220884813    0.19909347533014823    0.20702459616696373    0.2214254234289625    0.24240367779367455    
  0.2695749327954784    0.3018412035639921    0.33722452099465433    0.37293603735664377    0.4058303914996582    
  0.43314140237971377    0.4531017642254802    0.4650511634561582    0.4690029513430238    0.46406571221566634    
  0.458566714674054    0.4425023183474694    0.4171829026278845    0.3847729797170037    0.3481103884564509    
  0.31031972519093565    0.2743185622092461    0.2424036777936746    0.21605743782641124    0.19598625851237114    
  0.18230582895528422    0.1747671036395073    0.17293851696942283    0.17629034664428445    0.18417144831613563    
  0.19572441025053358    0.2098166824726502    0.2250471183052438    0.23984244690955678    0.25262355567166817    
  0.26200244766364494    0.2669593748914786    0.2669593748914785    0.262002447663645    0.25262355567166817    
  0.23984244690955678    0.22504711830524374    0.2098166824726502    0.19572441025053358    0.1841714483161356    
  0.17629034664428436    0.1729385169694228    0.17476710363950734    0.18230582895528424    0.1959862585123712    
  0.21605743782641124    0.2424036777936746    0.2743185622092461    0.31031972519093565    0.3481103884564509    
  0.3847729797170037    0.41718290262788443    0.4425023183474694    0.45856671467405413    0.46406571221566634    
  0.447676066703743    0.44160353712916856    0.4240677435539543    0.3969788399451288    0.3631236954519965    
  0.3257120633342469    0.28791749704466796    0.2524786646788145    0.22142542342896243    0.19598625851237114    
  0.17667958362143169    0.1635200738549978    0.15623848801214998    0.1544321853725765    0.15760956457299735    
  0.16514440288069637    0.17619957512566495    0.18968812818902492    0.2043018751135408    0.21858952251611388    
  0.23106041245763556    0.2403216998556693    0.24526401221981026    0.24526401221981026    0.24032169985566934    
  0.23106041245763556    0.21858952251611388    0.2043018751135408    0.18968812818902495    0.17619957512566495    
  0.16514440288069632    0.1576095645729973    0.15443218537257647    0.15623848801215007    0.1635200738549978    
  0.17667958362143169    0.19598625851237114    0.22142542342896243    0.25247866467881447    0.28791749704466796    
  0.3257120633342469    0.3631236954519965    0.39697883994512867    0.42406774355395443    0.44160353712916856    
  0.447676066703743    0.43103434155878906    0.4248509797785297    0.40706946824405804    0.3797986554552395    
  0.34600769175609597    0.3089812899404466    0.27185131396759377    0.23723824719446587    0.20702459616696373    
  0.18230582895528424    0.16352007385499787    0.15067123128187687    0.14352875474871227    0.141734900234807    
  0.1448173493023411    0.1521442712314748    0.16287275731210507    0.1759368661331169    0.19008853364969752    
  0.2039626072583219    0.21614128766983337    0.22524970726173607    0.23013916114449243    0.23013916114449232    
  0.22524970726173613    0.21614128766983337    0.20396260725832188    0.19008853364969752    0.1759368661331169    
  0.16287275731210504    0.15214427123147478    0.14481734930234105    0.14173490023480695    0.14352875474871235    
  0.15067123128187687    0.16352007385499795    0.18230582895528424    0.20702459616696373    0.23723824719446582    
  0.27185131396759377    0.3089812899404466    0.34600769175609597    0.37979865545523944    0.40706946824405804    
  0.4248509797785297    0.43103434155878906    0.420115753028848    0.4139721218718591    0.39632481500251127    
  0.36931163196317357    0.33591381912845114    0.29939502981409727    0.26283788536022945    0.22879853414364906    
  0.19909347533014823    0.17476710363950726    0.15623848801215004    0.1435287547487123    0.13644480597701386    
  0.13466129170939414    0.13771825211777713    0.14497939039084115    0.15559415967937382    0.1684992908461127    
  0.18246757418494358    0.19617045823117846    0.2082256795686637    0.21727039050084504    0.22213920260624956    
  0.22213920260624945    0.2172703905008451    0.2082256795686637    0.19617045823117846    0.18246757418494358    
  0.1684992908461127    0.1555941596793738    0.14497939039084115    0.13771825211777702    0.13466129170939414    
  0.1364448059770139    0.14352875474871235    0.15623848801215012    0.17476710363950726    0.19909347533014823    
  0.22879853414364906    0.26283788536022945    0.29939502981409727    0.3359138191284511    0.3693116319631735    
  0.39632481500251127    0.4139721218718591    0.420115753028848    0.41678329831451594    0.4107045651563565    
  0.39323569410497494    0.3664732694484244    0.3333491516110585    0.2970842403883641    0.2607324081435396    
  0.22683738361842368    0.19721942208848128    0.17293851696942283    0.15443218537257647    0.14173490023480698    
  0.13466129170939414    0.13289355328062546    0.13598245434753337    0.14330216787678102    0.15400572354757364    
  0.167023751580958    0.18111686563580087    0.1949438749305037    0.20711111291852413    0.2162432348203781    
  0.2211608527856724    0.2211608527856724    0.2162432348203781    0.20711111291852413    0.19494387493050366    
  0.18111686563580087    0.16702375158095806    0.1540057235475736    0.14330216787678102    0.1359824543475333    
  0.13289355328062546    0.13466129170939417    0.14173490023480698    0.15443218537257652    0.17293851696942283    
  0.1972194220884813    0.22683738361842368    0.2607324081435396    0.2970842403883642    0.3333491516110585    
  0.3664732694484243    0.393235694104975    0.4107045651563565    0.41678329831451594    0.42011063966528034    
  0.4141195035821336    0.3968703881875926    0.3703588394073084    0.3374159474680942    0.30120366409972577    
  0.26476595222568744    0.2306754444917368    0.20080829692247834    0.17629034664428445    0.15760956457299738    
  0.14481734930234105    0.13771825211777702    0.1359824543475333    0.13916543860537411    0.14665961625585588    
  0.1576320471981321    0.17100707439699755    0.18551295512523483    0.1997555598737366    0.21228266770839185    
  0.22167291856216578    0.22672304047063668    0.22672304047063657    0.22167291856216578    0.2122826677083918    
  0.19975555987373658    0.18551295512523489    0.17100707439699755    0.1576320471981321    0.14665961625585586    
  0.13916543860537403    0.13598245434753328    0.13771825211777708    0.14481734930234105    0.15760956457299743    
  0.17629034664428445    0.20080829692247837    0.2306754444917368    0.26476595222568744    0.30120366409972577    
  0.3374159474680942    0.3703588394073084    0.3968703881875927    0.4141195035821336    0.42011063966528034    
  0.42717704930071365    0.4213905037652828    0.4046614966782759    0.3787632588515316    0.3463015830577832    
  0.31030596330304056    0.2737991205134408    0.2394120168707598    0.2091223923382609    0.18417144831613566    
  0.16514440288069637    0.15214427123147486    0.14497939039084112    0.143302167876781    0.14665961625585588    
  0.15445509670927604    0.16587161032075093    0.17982900922159517    0.19501086215222851    0.2099380577174831    
  0.22305824783329672    0.23287147903672686    0.23813702871703876    0.23813702871703868    0.23287147903672686    
  0.22305824783329672    0.2099380577174831    0.19501086215222851    0.17982900922159517    0.16587161032075093    
  0.15445509670927604    0.14665961625585583    0.14330216787678102    0.14497939039084118    0.1521442712314749    
  0.1651444028806964    0.18417144831613566    0.2091223923382609    0.23941201687075975    0.2737991205134408    
  0.3103059633030406    0.34630158305778314    0.37876325885153156    0.4046614966782759    0.4213905037652828    
  0.42717704930071365    0.4337958187520693    0.4284935063819716    0.4130303584913267    0.3887230401611588    
  0.3576858644618808    0.32262582026609204    0.2864772746499503    0.25196069924887804    0.22123051663240323    
  0.19572441025053353    0.176199575125665    0.16287275731210504    0.15559415967937376    0.1540057235475736    
  0.15763204719813215    0.16587161032075087    0.17791668179183806    0.19267925380540804    0.2087850322501932    
  0.22464232376917234    0.23856552772996556    0.24895068382828753    0.254507577478679    0.25450757747867897    
  0.24895068382828753    0.23856552772996556    0.22464232376917234    0.2087850322501932    0.1926792538054081    
  0.1779166817918381    0.16587161032075087    0.15763204719813215    0.15400572354757364    0.1555941596793738    
  0.16287275731210504    0.176199575125665    0.19572441025053353    0.22123051663240323    0.251960699248878    
  0.2864772746499503    0.32262582026609204    0.3576858644618808    0.3887230401611587    0.4130303584913267    
  0.4284935063819716    0.4337958187520693    0.4356593199393011    0.4312680169171645    0.418227920211611    
  0.3970759932168007    0.3690377018784236    0.33618000831648515    0.3012107258544809    0.26697354605544116    
  0.23592144336472667    0.20981668247265023    0.18968812818902506    0.17593686613311693    0.16849929084611268    
  0.16702375158095817    0.17100707439699767    0.17982900922159517    0.1926792538054081    0.2084511533693866    
  0.22569667768663296    0.2426898252215461    0.25758985200191786    0.2686719250333237    0.2745854311679108    
  0.2745854311679108    0.26867192503332377    0.2575898520019178    0.24268982522154606    0.22569667768663296    
  0.2084511533693866    0.1926792538054081    0.17982900922159517    0.17100707439699767    0.16702375158095817    
  0.16849929084611265    0.17593686613311693    0.18968812818902506    0.20981668247265023    0.23592144336472667    
  0.2669735460554411    0.30121072585448094    0.33618000831648515    0.36903770187842366    0.3970759932168007    
  0.41822792021161104    0.4312680169171645    0.4356593199393011    0.4299485109402807    0.42690781653600446    
  0.4175089318952298    0.40122409228932204    0.3779932384434882    0.3488751152252184    0.3161502496470058    
  0.2827902280644324    0.2516779046379639    0.2250471183052438    0.20430187511354067    0.19008853364969755    
  0.18246757418494366    0.18111686563580087    0.18551295512523489    0.19501086215222851    0.20878503225019324    
  0.225696677686633    0.24421243875040582    0.2624631548544741    0.27844569776223876    0.2903056128449993    
  0.2966206321266036    0.2966206321266036    0.29030561284499923    0.27844569776223876    0.2624631548544741    
  0.24421243875040582    0.225696677686633    0.20878503225019324    0.19501086215222851    0.18551295512523489    
  0.18111686563580087    0.18246757418494366    0.19008853364969755    0.2043018751135408    0.2250471183052438    
  0.2516779046379639    0.28279022806443227    0.3161502496470058    0.3488751152252183    0.3779932384434882    
  0.401224092289322    0.4175089318952298    0.42690781653600446    0.4299485109402807    0.4168085817493813    
  0.41537522202021937    0.41036794821547706    0.40010176331432895    0.38302558988728236    0.35891926802668717    
  0.3294270562195672    0.29759107990654543    0.26679332272718254    0.23984244690955672    0.21858952251611388    
  0.20396260725832194    0.19617045823117843    0.1949438749305036    0.19975555987373667    0.20993805771748306    
  0.22464232376917243    0.24268982522154586    0.2624631548544741    0.2819593819384781    0.29902209789912554    
  0.31166748025439256    0.3183925301301721    0.31839253013017205    0.31166748025439256    0.2990220978991256    
  0.2819593819384781    0.2624631548544741    0.24268982522154592    0.22464232376917243    0.20993805771748306    
  0.19975555987373655    0.1949438749305036    0.19617045823117843    0.20396260725832188    0.21858952251611394    
  0.23984244690955672    0.2667933227271825    0.2975910799065454    0.3294270562195672    0.3589192680266871    
  0.3830255898872824    0.400101763314329    0.4103679482154771    0.41537522202021937    0.4168085817493813    
  0.3996606530063589    0.3997768150684558    0.3990617077674973    0.3948278412326343    0.38413168234220957    
  0.36544109972056776    0.3396468150796581    0.3097601024896805    0.27962400923019554    0.25262355567166817    
  0.23106041245763556    0.21614128766983334    0.2082256795686636    0.20711111291852416    0.21228266770839185    
  0.22305824783329667    0.2385655277299656    0.25758985200191775    0.2784456977622389    0.2990220978991254    
  0.31703332638702575    0.3303781732089827    0.3374724680558555    0.33747246805585557    0.3303781732089828    
  0.3170333263870257    0.2990220978991255    0.2784456977622388    0.25758985200191775    0.2385655277299656    
  0.22305824783329667    0.21228266770839185    0.20711111291852416    0.2082256795686636    0.21614128766983334    
  0.23106041245763556    0.25262355567166817    0.27962400923019554    0.3097601024896805    0.33964681507965816    
  0.3654410997205677    0.38413168234220957    0.3948278412326343    0.3990617077674973    0.3997768150684558    
  0.3996606530063589    0.3838618011263981    0.38516557790986866    0.3877826134868298    0.3883411747326995    
  0.3828679295926277    0.3687700122688576    0.34625352441722285    0.3182247488118538    0.2888595412498422    
  0.2620024476636449    0.24032169985566926    0.22524970726173615    0.217270390500845    0.2162432348203781    
  0.22167291856216578    0.23287147903672684    0.24895068382828764    0.26867192503332377    0.2903056128449992    
  0.3116674802543926    0.3303781732089829    0.3442455504014706    0.3516182063794429    0.35161820637944285    
  0.3442455504014707    0.3303781732089829    0.31166748025439256    0.2903056128449992    0.26867192503332377    
  0.24895068382828758    0.23287147903672686    0.22167291856216573    0.2162432348203781    0.2172703905008451    
  0.22524970726173615    0.2403216998556693    0.2620024476636449    0.28885954124984226    0.31822474881185375    
  0.34625352441722285    0.3687700122688575    0.3828679295926278    0.38834117473269947    0.3877826134868298    
  0.3851655779098686    0.3838618011263981    0.3744822476622106    0.37641880442345166    0.3808281721227125    
  0.38400818094187456    0.38145328170914305    0.3699843421184389    0.3493987132077515    0.3225116672006579    
  0.29366637122609757    0.2669593748914785    0.24526401221981026    0.23013916114449232    0.22213920260624956    
  0.2211608527856724    0.22672304047063668    0.23813702871703868    0.2545075774786791    0.27458543116791057    
  0.29662063212660356    0.31839253013017205    0.33747246805585546    0.351618206379443    0.35914001149977864    
  0.35914001149977864    0.351618206379443    0.33747246805585546    0.31839253013017205    0.29662063212660356    
  0.27458543116791057    0.254507577478679    0.23813702871703873    0.22672304047063668    0.2211608527856724    
  0.2221392026062496    0.23013916114449232    0.24526401221981026    0.2669593748914785    0.2936663712260975    
  0.3225116672006579    0.3493987132077515    0.3699843421184389    0.38145328170914305    0.38400818094187456    
  0.3808281721227126    0.37641880442345166    0.3744822476622106    0.3744822476622106    0.3764188044234516    
  0.3808281721227126    0.38400818094187456    0.38145328170914305    0.3699843421184389    0.3493987132077515    
  0.3225116672006579    0.29366637122609757    0.26695937489147853    0.24526401221981026    0.23013916114449232    
  0.22213920260624956    0.2211608527856724    0.22672304047063668    0.23813702871703868    0.2545075774786791    
  0.2745854311679106    0.29662063212660356    0.31839253013017205    0.33747246805585546    0.35161820637944297    
  0.35914001149977864    0.35914001149977864    0.35161820637944297    0.33747246805585546    0.31839253013017205    
  0.29662063212660356    0.2745854311679106    0.254507577478679    0.23813702871703873    0.22672304047063663    
  0.2211608527856724    0.22213920260624956    0.23013916114449232    0.24526401221981026    0.26695937489147853    
  0.29366637122609757    0.32251166720065777    0.3493987132077515    0.3699843421184389    0.38145328170914305    
  0.38400818094187456    0.3808281721227126    0.3764188044234516    0.3744822476622106    0.3838618011263981    
  0.3851655779098686    0.3877826134868298    0.3883411747326995    0.3828679295926277    0.36877001226885764    
  0.3462535244172229    0.3182247488118537    0.2888595412498422    0.26200244766364494    0.2403216998556693    
  0.22524970726173613    0.21727039050084504    0.2162432348203781    0.22167291856216578    0.23287147903672686    
  0.24895068382828758    0.26867192503332377    0.2903056128449992    0.31166748025439256    0.33037817320898283    
  0.3442455504014706    0.35161820637944297    0.3516182063794429    0.34424555040147053    0.3303781732089828    
  0.31166748025439256    0.2903056128449992    0.26867192503332377    0.24895068382828758    0.23287147903672686    
  0.22167291856216578    0.21624323482037805    0.2172703905008451    0.22524970726173613    0.24032169985566926    
  0.26200244766364494    0.2888595412498422    0.31822474881185364    0.3462535244172228    0.3687700122688576    
  0.3828679295926278    0.3883411747326995    0.3877826134868298    0.38516557790986866    0.3838618011263981    
  0.3996606530063589    0.3997768150684558    0.3990617077674973    0.39482784123263437    0.3841316823422095    
  0.36544109972056776    0.3396468150796581    0.3097601024896806    0.2796240092301955    0.2526235556716681    
  0.2310604124576356    0.21614128766983337    0.2082256795686636    0.20711111291852416    0.21228266770839185    
  0.22305824783329667    0.23856552772996556    0.25758985200191775    0.27844569776223876    0.29902209789912554    
  0.31703332638702575    0.3303781732089827    0.33747246805585546    0.3374724680558554    0.3303781732089827    
  0.3170333263870257    0.2990220978991255    0.27844569776223876    0.25758985200191775    0.2385655277299656    
  0.22305824783329667    0.21228266770839174    0.20711111291852416    0.20822567956866359    0.21614128766983334    
  0.23106041245763556    0.2526235556716681    0.2796240092301954    0.30976010248968056    0.33964681507965816    
  0.3654410997205677    0.38413168234220957    0.3948278412326343    0.3990617077674974    0.3997768150684558    
  0.3996606530063589    0.4168085817493813    0.4153752220202193    0.41036794821547706    0.40010176331432895    
  0.3830255898872824    0.3589192680266871    0.3294270562195672    0.2975910799065455    0.26679332272718254    
  0.23984244690955672    0.21858952251611388    0.20396260725832188    0.19617045823117832    0.19494387493050358    
  0.19975555987373667    0.209938057717483    0.22464232376917248    0.24268982522154592    0.2624631548544741    
  0.2819593819384781    0.2990220978991256    0.3116674802543926    0.3183925301301721    0.3183925301301721    
  0.3116674802543926    0.2990220978991256    0.2819593819384781    0.2624631548544741    0.24268982522154592    
  0.22464232376917248    0.209938057717483    0.1997555598737366    0.19494387493050358    0.19617045823117843    
  0.20396260725832188    0.21858952251611394    0.23984244690955672    0.2667933227271825    0.2975910799065454    
  0.32942705621956725    0.3589192680266871    0.38302558988728247    0.40010176331432895    0.4103679482154772    
  0.4153752220202193    0.4168085817493813    0.4299485109402807    0.42690781653600446    0.4175089318952298    
  0.40122409228932204    0.3779932384434882    0.3488751152252184    0.3161502496470058    0.2827902280644324    
  0.2516779046379639    0.2250471183052438    0.20430187511354067    0.19008853364969755    0.18246757418494366    
  0.18111686563580087    0.18551295512523489    0.19501086215222851    0.20878503225019324    0.225696677686633    
  0.24421243875040582    0.26246315485447413    0.27844569776223876    0.2903056128449993    0.2966206321266036    
  0.2966206321266036    0.29030561284499923    0.27844569776223876    0.2624631548544741    0.24421243875040582    