#     DFTpy    
  CRYSTAL 
    
  PRIMVEC    
  4.544620689655171    0.0    0.0    
  0.0    4.544620689655171    0.0    
  0.0    0.0    2.5037931034482805    
  PRIMCOORD    
  4    1    
  Si    0.0    0.0    0.0    
  Si    2.2723103448275905    2.2723103448275905    1.2518965517241403    
  Si    0.0    2.2723103448275905    0.6259482758620701    
  Si    2.2723103448275905    0.0    1.8778448275862105    
  BEGIN_BLOCK_DATAGRID_3D    
  3d_datagrid_density    
  BEGIN_DATAGRID_3D#0    
  46    46    25    
  0.0    0.0    0.0    
  4.544620706606693    0.0    0.0    
  0.0    4.544620706606693    0.0    
  0.0    0.0    2.5037931127874766    
  0.04814800955149749    0.055702706090842755    0.0811865240208946    0.1308693544767255    0.2074836073303708    
  0.3017375263033592    0.39203651025227454    0.45660651408210473    0.48697808641290896    0.48982347252678754    
  0.47850297673503517    0.4645553948785956    0.45454889904922813    0.450693163368815    0.4521697540302998    
  0.45603885625789065    0.458120536420978    0.45439772059557726    0.44278591618815016    0.42438449260467287    
  0.4033079159890036    0.38508375603474043    0.37459399414502115    0.3745939941450211    0.38508375603474043    
  0.4033079159890037    0.42438449260467304    0.44278591618815016    0.45439772059557737    0.458120536420978    
  0.45603885625789065    0.4521697540302998    0.450693163368815    0.454548899049228    0.4645553948785956    
  0.47850297673503506    0.48982347252678754    0.48697808641290896    0.45660651408210473    0.39203651025227454    
  0.3017375263033592    0.20748360733037083    0.1308693544767255    0.0811865240208946    0.055702706090842796    
  0.04814800955149749    0.055702706090842796    0.06370779573933809    0.09031046932217521    0.14101162229834413    
  0.21738260502609957    0.30935688493039004    0.39576126590310967    0.4562016267867979    0.4834352082408137    
  0.4844818914771702    0.4723653737397347    0.4581471043382207    0.4480841022637095    0.44426549135835425    
  0.445880685756462    0.4500856374509643    0.45284277671247736    0.4502369589935526    0.44014100674001083    
  0.42343539902066435    0.4039242604868436    0.3868659825491167    0.3769874640415391    0.37698746404153904    
  0.3868659825491167    0.40392426048684366    0.42343539902066435    0.44014100674001083    0.4502369589935526    
  0.45284277671247725    0.4500856374509643    0.4458806857564621    0.44426549135835425    0.44808410226370937    
  0.4581471043382206    0.4723653737397347    0.4844818914771702    0.4834352082408137    0.4562016267867979    
  0.3957612659031098    0.3093568849303901    0.21738260502609957    0.14101162229834413    0.09031046932217522    
  0.06370779573933809    0.055702706090842796    0.08118652402089463    0.09031046932217525    0.1195184825450023    
  0.1720227734435114    0.24629179977057636    0.33056646562779707    0.4052854243550777    0.45396310695476516    
  0.4725344884223198    0.46873549713130575    0.45453626045941764    0.439653544364624    0.4294894031108075    
  0.42580176221891924    0.4277971418645572    0.4328907632536988    0.4374403998434973    0.43783126971185404    
  0.4318550017388694    0.4198236455950749    0.40469086579050806    0.39093783755928063    0.3828094637181203    
  0.3828094637181202    0.39093783755928063    0.40469086579050806    0.41982364559507496    0.4318550017388694    
  0.43783126971185404    0.4374403998434973    0.4328907632536988    0.4277971418645572    0.4258017622189192    
  0.42948940311080747    0.439653544364624    0.45453626045941764    0.4687354971313057    0.4725344884223198    
  0.45396310695476505    0.40528542435507775    0.33056646562779707    0.2462917997705764    0.1720227734435114    
  0.11951848254500226    0.09031046932217525    0.08118652402089463    0.1308693544767255    0.14101162229834413    
  0.1720227734435114    0.22371667185058078    0.2907566828641076    0.36030232581363014    0.41614893270207665    
  0.44740926103682865    0.4538506093746003    0.44356795335990146    0.4267415858884403    0.41113822490784774    
  0.4009706703164008    0.3975357636312319    0.40005422469629515    0.40629447577636935    0.41317475376877916    
  0.41754678041601206    0.4171789178005348    0.4116789155976009    0.4028285137186384    0.3939340993659311    
  0.3884237041481726    0.38842370414817257    0.3939340993659311    0.40282851371863854    0.411678915597601    
  0.4171789178005348    0.4175467804160121    0.41317475376877905    0.40629447577636935    0.40005422469629515    
  0.3975357636312319    0.4009706703164007    0.41113822490784774    0.4267415858884403    0.44356795335990146    
  0.4538506093746004    0.44740926103682865    0.41614893270207676    0.3603023258136302    0.29075668286410766    
  0.22371667185058078    0.17202277344351138    0.1410116222983441    0.1308693544767255    0.20748360733037077    
  0.21738260502609957    0.24629179977057636    0.29075668286410755    0.34280176390980377    0.39051543156804097    
  0.42263046727458853    0.4340769769778978    0.4276549082845857    0.41091051945025636    0.39169902802130324    
  0.37562716201581103    0.36564864588035134    0.36257016896605415    0.36561934815381597    0.3729350890526029    
  0.38204308236095746    0.3903477629218328    0.39571069861681585    0.39712018286618345    0.39514888013809757    
  0.3917402680490491    0.38925067261782115    0.38925067261782115    0.3917402680490491    0.3951488801380976    
  0.39712018286618345    0.39571069861681585    0.3903477629218328    0.3820430823609574    0.3729350890526029    
  0.36561934815381597    0.36257016896605415    0.36564864588035134    0.37562716201581103    0.3916990280213032    
  0.41091051945025636    0.4276549082845857    0.4340769769778978    0.42263046727458853    0.39051543156804097    
  0.34280176390980377    0.2907566828641076    0.2462917997705763    0.21738260502609957    0.20748360733037077    
  0.30173752630335904    0.30935688493039    0.33056646562779707    0.36030232581363003    0.39051543156804097    
  0.41241795049992086    0.42011212447697943    0.4130730463613165    0.3955232717744831    0.3735979233500133    
  0.3527360152669162    0.3365772411491479    0.32696544014441065    0.3242708838497727    0.3277295910766707    
  0.33581651702000864    0.34660502477825433    0.35802777575824146    0.36813159134218215    0.37549373719017465    
  0.379684435799315    0.381358531001731    0.38173391389170164    0.3817339138917016    0.381358531001731    
  0.37968443579931505    0.3754937371901747    0.36813159134218215    0.35802777575824146    0.3466050247782544    
  0.33581651702000864    0.3277295910766707    0.3242708838497727    0.3269654401444106    0.3365772411491479    
  0.3527360152669162    0.37359792335001324    0.39552327177448304    0.4130730463613165    0.4201121244769795    
  0.41241795049992097    0.39051543156804097    0.3603023258136301    0.33056646562779707    0.30935688493038993    
  0.30173752630335904    0.39203651025227454    0.3957612659031098    0.4052854243550778    0.41614893270207676    
  0.42263046727458864    0.42011212447697954    0.4071291608311252    0.3857586371632202    0.36021309759472775    
  0.3349024005953729    0.31322955397634766    0.2973193065159454    0.2881624073383569    0.2857886315055822    
  0.28945820103800046    0.29792968885895665    0.3097037638090998    0.3231264374545726    0.3364466509593588    
  0.348041679559495    0.35680543371202034    0.36238884664121507    0.36502147280876773    0.3650214728087677    
  0.36238884664121507    0.35680543371202045    0.348041679559495    0.3364466509593588    0.3231264374545726    
  0.30970376380909975    0.29792968885895665    0.28945820103800046    0.28578863150558226    0.28816240733835685    
  0.2973193065159454    0.31322955397634766    0.3349024005953729    0.36021309759472775    0.3857586371632202    
  0.4071291608311252    0.4201121244769796    0.42263046727458864    0.41614893270207676    0.4052854243550777    
  0.3957612659031098    0.39203651025227454    0.45660651408210473    0.456201626786798    0.45396310695476527    
  0.44740926103682876    0.4340769769778978    0.41307304636131653    0.3857586371632202    0.3551999138814267    
  0.3249244880419386    0.29788586106528675    0.276080465202595    0.26062415186933857    0.2519162056072622    
  0.24974912722232862    0.25343001188237024    0.26194844982582516    0.2741020397191528    0.2885041993481237    
  0.3035616865646416    0.3175960994547536    0.3291374278693658    0.3371947960313338    0.3412941729218594    
  0.3412941729218593    0.33719479603133373    0.3291374278693658    0.31759609945475364    0.3035616865646416    
  0.2885041993481237    0.27410203971915276    0.26194844982582516    0.25343001188237024    0.24974912722232862    
  0.2519162056072621    0.2606241518693385    0.276080465202595    0.29788586106528675    0.3249244880419386    
  0.3551999138814267    0.38575863716322023    0.4130730463613166    0.4340769769778979    0.44740926103682876    
  0.45396310695476516    0.456201626786798    0.45660651408210473    0.48697808641290896    0.48343520824081354    
  0.4725344884223197    0.4538506093746003    0.4276549082845857    0.395523271774483    0.36021309759472764    
  0.3249244880419385    0.2924874855028106    0.2649213211693166    0.24341112933394382    0.22847954040648846    
  0.22015478981374437    0.21808777221810932    0.22164812494785835    0.2300013503777355    0.24212979077270794    
  0.25679181140992113    0.27249378786992884    0.28757575420626447    0.3004265176308992    0.3097256615892651    
  0.314588876846359    0.3145888768463589    0.3097256615892651    0.3004265176308992    0.28757575420626447    
  0.27249378786992884    0.25679181140992113    0.2421297907727079    0.2300013503777355    0.22164812494785835    
  0.21808777221810927    0.2201547898137443    0.22847954040648846    0.24341112933394382    0.26492132116931666    
  0.2924874855028106    0.3249244880419385    0.3602130975947277    0.3955232717744831    0.42765490828458574    
  0.4538506093746003    0.47253448842231965    0.48343520824081354    0.48697808641290896    0.48982347252678754    
  0.4844818914771702    0.46873549713130575    0.44356795335990146    0.4109105194502564    0.37359792335001335    
  0.33490240059537285    0.29788586106528675    0.2649213211693166    0.2375391716699367    0.2165192025347136    
  0.20207661425259205    0.19404479707118893    0.19201645768313236    0.1954231358294746    0.20354321602865105    
  0.2154553047845559    0.22998426957092227    0.24569673475260798    0.2609817613153261    0.27421151199860333    
  0.2839405051026462    0.28909161291665303    0.2890916129166529    0.2839405051026461    0.27421151199860333    
  0.26098176131532613    0.24569673475260798    0.22998426957092227    0.21545530478455585    0.20354321602865105    
  0.19542313582947463    0.19201645768313236    0.19404479707118885    0.20207661425259207    0.21651920253471357    
  0.2375391716699367    0.26492132116931666    0.2978858610652867    0.3349024005953729    0.3735979233500134    
  0.4109105194502565    0.44356795335990146    0.4687354971313057    0.4844818914771702    0.48982347252678754    
  0.47850297673503506    0.4723653737397347    0.45453626045941775    0.4267415858884403    0.3916990280213033    
  0.3527360152669162    0.31322955397634766    0.27608046520259494    0.24341112933394388    0.21651920253471357    
  0.19600072108623712    0.18194237207512112    0.17411428952873795    0.1721126080769004    0.17541493422928503    
  0.1833495775463019    0.1950266863820626    0.20929544954206677    0.22476367156207164    0.2398771033255218    
  0.2530433897767395    0.2627957017191429    0.26798855178117614    0.2679885517811761    0.2627957017191428    
  0.25304338977673957    0.2398771033255218    0.22476367156207164    0.20929544954206683    0.19502668638206255    
  0.18334957754630196    0.17541493422928503    0.1721126080769004    0.17411428952873792    0.18194237207512118    
  0.19600072108623715    0.21651920253471357    0.24341112933394388    0.27608046520259494    0.31322955397634766    
  0.3527360152669162    0.3916990280213033    0.4267415858884403    0.45453626045941764    0.4723653737397346    
  0.47850297673503506    0.46455539487859554    0.4581471043382207    0.439653544364624    0.41113822490784774    
  0.37562716201581103    0.33657724114914783    0.29731930651594535    0.26062415186933846    0.22847954040648852    
  0.20207661425259207    0.18194237207512112    0.16813716902815537    0.16044314574180862    0.15848676134746667    
  0.1617694578767626    0.16962491811041627    0.18115823084430416    0.19522301589775048    0.21045563013002067    
  0.225349171318343    0.23835322774406778    0.24801430716967943    0.2531715412984143    0.25317154129841424    
  0.24801430716967943    0.23835322774406786    0.22534917131834303    0.21045563013002067    0.19522301589775043    
  0.18115823084430407    0.16962491811041627    0.1617694578767626    0.15848676134746664    0.1604431457418086    
  0.16813716902815537    0.18194237207512115    0.20207661425259207    0.22847954040648857    0.26062415186933846    
  0.2973193065159454    0.33657724114914794    0.37562716201581103    0.4111382249078478    0.43965354436462395    
  0.4581471043382207    0.46455539487859554    0.454548899049228    0.4480841022637095    0.4294894031108075    
  0.4009706703164007    0.36564864588035145    0.32696544014441076    0.28816240733835685    0.2519162056072622    
  0.22015478981374445    0.19404479707118893    0.17411428952873803    0.1604431457418086    0.1528413184436214    
  0.15095639728100438    0.1542942509108269    0.1621791252352213    0.17370503692780512    0.1877247961637744    
  0.2028884116867504    0.2177115656629571    0.23066345623836726    0.24029708296654106    0.24544501711117703    
  0.24544501711117697    0.24029708296654106    0.23066345623836734    0.21771156566295718    0.2028884116867504    
  0.18772479616377438    0.1737050369278051    0.16217912523522127    0.1542942509108269    0.15095639728100438    
  0.1528413184436214    0.16044314574180868    0.17411428952873803    0.19404479707118893    0.22015478981374445    
  0.25191620560726213    0.2881624073383569    0.3269654401444108    0.36564864588035145    0.40097067031640077    
  0.4294894031108075    0.4480841022637095    0.454548899049228    0.4506931633688148    0.44426549135835414    
  0.42580176221891924    0.3975357636312318    0.3625701689660542    0.32427088384977276    0.2857886315055822    
  0.24974912722232862    0.21808777221810932    0.19201645768313222    0.17211260807690038    0.15848676134746664    
  0.1509563972810043    0.14916256817544646    0.15260342044269457    0.16060220563843827    0.17225804621301996    
  0.18642845303565417    0.20176107517421638    0.21675955379102588    0.2298732605537827    0.2396322552049852    
  0.24484885172518756    0.24484885172518747    0.2396322552049852    0.2298732605537827    0.21675955379102593    
  0.20176107517421638    0.18642845303565414    0.1722580462130199    0.16060220563843827    0.1526034204426946    
  0.14916256817544646    0.15095639728100424    0.15848676134746667    0.1721126080769004    0.19201645768313222    
  0.21808777221810932    0.2497491272223286    0.2857886315055822    0.3242708838497727    0.36257016896605415    
  0.3975357636312318    0.4258017622189192    0.44426549135835414    0.4506931633688148    0.4521697540302997    
  0.445880685756462    0.42779714186455714    0.40005422469629515    0.3656193481538159    0.3277295910766707    
  0.2894582010380004    0.25343001188237024    0.2216481249478583    0.19542313582947451    0.175414934229285    
  0.16176945787676256    0.15429425091082682    0.15260342044269457    0.1561823330502182    0.1643672748305733    
  0.17628345601953638    0.1908026674209652    0.20655592140399268    0.22199788184072924    0.23551267770832324    
  0.24557100997136272    0.25094602779208863    0.2509460277920885    0.24557100997136266    0.23551267770832335    
  0.2219978818407293    0.20655592140399268    0.19080266742096516    0.17628345601953632    0.1643672748305733    
  0.15618233305021822    0.15260342044269457    0.15429425091082677    0.1617694578767626    0.175414934229285    
  0.19542313582947451    0.22164812494785835    0.2534300118823702    0.2894582010380005    0.3277295910766707    
  0.3656193481538159    0.40005422469629515    0.42779714186455714    0.445880685756462    0.4521697540302997    
  0.45603885625789053    0.4500856374509644    0.4328907632536988    0.40629447577636935    0.37293508905260303    
  0.3358165170200087    0.29792968885895665    0.26194844982582505    0.2300013503777355    0.20354321602865105    
  0.18334957754630188    0.16962491811041625    0.1621791252352212    0.1606022056384383    0.1643672748305734    
  0.17282936431727022    0.18514999918943878    0.200219286506253    0.21663710011767096    0.23277438027492112    
  0.24690821695084236    0.25741927415279375    0.2630296548408024    0.2630296548408024    0.2574192741527937    
  0.24690821695084236    0.23277438027492117    0.21663710011767096    0.200219286506253    0.18514999918943872    
  0.17282936431727022    0.16436727483057337    0.1606022056384383    0.1621791252352212    0.16962491811041625    
  0.1833495775463019    0.203543216028651    0.2300013503777355    0.26194844982582505    0.2979296888589567    
  0.3358165170200087    0.372935089052603    0.40629447577636935    0.4328907632536988    0.4500856374509644    
  0.45603885625789053    0.4581205364209779    0.45284277671247736    0.4374403998434974    0.4131747537687791    
  0.3820430823609575    0.3466050247782544    0.30970376380909975    0.2741020397191528    0.242129790772708    
  0.21545530478455585    0.1950266863820626    0.18115823084430416    0.17370503692780498    0.17225804621302    
  0.17628345601953635    0.18514999918943878    0.19804948718118323    0.2138822348066344    0.2311986907962327    
  0.24825558356328087    0.2631908879177143    0.2742761233848433    0.28018017810387463    0.2801801781038745    
  0.27427612338484325    0.2631908879177144    0.24825558356328095    0.23119869079623273    0.2138822348066344    
  0.19804948718118318    0.18514999918943878    0.17628345601953632    0.17225804621302004    0.17370503692780495    
  0.1811582308443042    0.1950266863820626    0.21545530478455585    0.242129790772708    0.2741020397191528    
  0.3097037638090998    0.3466050247782544    0.38204308236095746    0.41317475376877916    0.4374403998434974    
  0.45284277671247736    0.4581205364209779    0.45439772059557726    0.4502369589935526    0.43783126971185404    
  0.41754678041601206    0.39034776292183293    0.3580277757582416    0.3231264374545726    0.28850419934812366    
  0.2567918114099212    0.22998426957092225    0.20929544954206683    0.1952230158977505    0.18772479616377438    
  0.18642845303565422    0.19080266742096527    0.200219286506253    0.21388223480663446    0.2306833361526175    
  0.24910377605310421    0.26726433793646104    0.2831450321993572    0.29489880111407324    0.3011418328650286    
  0.30114183286502855    0.29489880111407324    0.2831450321993572    0.2672643379364611    0.2491037760531042    
  0.2306833361526175    0.21388223480663446    0.200219286506253    0.19080266742096527    0.18642845303565414    
  0.18772479616377435    0.1952230158977505    0.20929544954206683    0.22998426957092225    0.2567918114099212    
  0.2885041993481237    0.32312643745457265    0.35802777575824163    0.39034776292183293    0.41754678041601206    
  0.43783126971185404    0.4502369589935526    0.45439772059557726    0.44278591618815005    0.44014100674001083    
  0.4318550017388694    0.4171789178005348    0.39571069861681585    0.3681315913421822    0.3364466509593586    
  0.3035616865646416    0.27249378786992884    0.24569673475260795    0.2247636715620715    0.21045563013002072    
  0.20288841168675031    0.20176107517421638    0.2065559214039927    0.21663710011767087    0.23119869079623273    
  0.24910377605310413    0.2687522014936051    0.2881236285344775    0.30503712302052416    0.3175228078704084    
  0.32413859677412954    0.32413859677412954    0.31752280787040843    0.3050371230205242    0.2881236285344776    
  0.2687522014936051    0.2491037760531042    0.2311986907962327    0.21663710011767087    0.20655592140399273    
  0.20176107517421638    0.20288841168675026    0.21045563013002067    0.22476367156207155    0.24569673475260795    
  0.2724937878699289    0.3035616865646416    0.3364466509593587    0.36813159134218226    0.39571069861681585    
  0.4171789178005348    0.4318550017388694    0.44014100674001083    0.44278591618815005    0.4243844926046729    
  0.42343539902066435    0.41982364559507496    0.4116789155976009    0.39712018286618345    0.37549373719017465    
  0.348041679559495    0.3175960994547537    0.2875757542062646    0.26098176131532597    0.2398771033255218    
  0.22534917131834314    0.2177115656629571    0.216759553791026    0.22199788184072938    0.23277438027492117    
  0.24825558356328095    0.26726433793646115    0.2881236285344776    0.308688324265439    0.3266305481906273    
  0.33985774261707624    0.3468571788092851    0.3468571788092851    0.33985774261707624    0.32663054819062737    
  0.308688324265439    0.2881236285344776    0.2672643379364611    0.24825558356328092    0.23277438027492126    
  0.22199788184072944    0.216759553791026    0.2177115656629571    0.22534917131834303    0.23987710332552184    
  0.260981761315326    0.2875757542062646    0.3175960994547537    0.34804167955949494    0.3754937371901748    
  0.39712018286618345    0.41167891559760095    0.41982364559507496    0.42343539902066435    0.4243844926046729    
  0.40330791598900356    0.4039242604868436    0.4046908657905081    0.4028285137186385    0.39514888013809757    
  0.379684435799315    0.35680543371202034    0.3291374278693657    0.30042651763089934    0.27421151199860333    
  0.2530433897767395    0.23835322774406786    0.2306634562383673    0.22987326055378277    0.2355126777083233    
  0.24690821695084236    0.2631908879177143    0.28314503219935716    0.30503712302052427    0.3266305481906272    
  0.34547905327009476    0.35937638155531676    0.3667298167978507    0.3667298167978506    0.3593763815553168    
  0.34547905327009487    0.32663054819062726    0.30503712302052427    0.2831450321993572    0.2631908879177143    
  0.24690821695084236    0.2355126777083233    0.22987326055378277    0.23066345623836726    0.23835322774406786    
  0.2530433897767395    0.27421151199860333    0.30042651763089934    0.32913742786936573    0.3568054337120204    
  0.37968443579931505    0.39514888013809757    0.4028285137186385    0.40469086579050806    0.4039242604868436    
  0.40330791598900356    0.3850837560347403    0.38686598254911675    0.39093783755928063    0.39393409936593105    
  0.39174026804904916    0.38135853100173106    0.362388846641215    0.3371947960313338    0.30972566158926523    
  0.2839405051026461    0.26279570171914296    0.24801430716967943    0.24029708296654106    0.23963225520498532    
  0.24557100997136277    0.25741927415279364    0.27427612338484336    0.2948988011140733    0.3175228078704084    
  0.33985774261707624    0.35937638155531687    0.37378237587978225    0.38140980462212015    0.38140980462212004    
  0.37378237587978225    0.35937638155531687    0.33985774261707635    0.3175228078704084    0.29489880111407324    
  0.2742761233848433    0.25741927415279364    0.24557100997136277    0.2396322552049854    0.24029708296654098    
  0.24801430716967943    0.26279570171914296    0.2839405051026461    0.3097256615892653    0.3371947960313338    
  0.362388846641215    0.3813585310017311    0.39174026804904916    0.393934099365931    0.3909378375592807    
  0.3868659825491168    0.3850837560347403    0.3745939941450211    0.37698746404153904    0.3828094637181202    
  0.38842370414817246    0.38925067261782115    0.3817339138917016    0.3650214728087675    0.3412941729218592    
  0.31458887684635894    0.2890916129166529    0.26798855178117603    0.25317154129841424    0.24544501711117697    
  0.24484885172518753    0.25094602779208863    0.26302965484080226    0.2801801781038745    0.3011418328650285    
  0.32413859677412954    0.346857178809285    0.3667298167978506    0.38140980462212004    0.38918684260742653    
  0.3891868426074266    0.38140980462212004    0.3667298167978507    0.34685717880928507    0.32413859677412954    
  0.3011418328650285    0.28018017810387447    0.26302965484080226    0.25094602779208863    0.24484885172518753    
  0.24544501711117692    0.25317154129841424    0.26798855178117603    0.2890916129166529    0.314588876846359    
  0.3412941729218593    0.3650214728087676    0.38173391389170164    0.38925067261782115    0.38842370414817246    
  0.38280946371812014    0.3769874640415391    0.3745939941450211    0.37459399414502104    0.376987464041539    
  0.3828094637181202    0.3884237041481725    0.38925067261782115    0.38173391389170164    0.36502147280876757    
  0.3412941729218592    0.31458887684635894    0.2890916129166529    0.26798855178117603    0.25317154129841424    
  0.24544501711117697    0.24484885172518753    0.25094602779208863    0.26302965484080226    0.2801801781038745    
  0.3011418328650285    0.32413859677412954    0.346857178809285    0.36672981679785055    0.38140980462212004    
  0.38918684260742664    0.38918684260742653    0.38140980462212004    0.3667298167978506    0.34685717880928507    
  0.32413859677412954    0.3011418328650285    0.28018017810387447    0.26302965484080226    0.25094602779208863    
  0.24484885172518753    0.24544501711117697    0.2531715412984143    0.26798855178117603    0.289091612916653    
  0.31458887684635894    0.3412941729218593    0.3650214728087676    0.38173391389170164    0.38925067261782115    
  0.3884237041481725    0.3828094637181202    0.37698746404153904    0.37459399414502104    0.3850837560347404    
  0.3868659825491167    0.3909378375592807    0.3939340993659311    0.39174026804904916    0.38135853100173106    
  0.362388846641215    0.3371947960313337    0.30972566158926523    0.2839405051026461    0.26279570171914285    
  0.2480143071696794    0.24029708296654106    0.23963225520498532    0.24557100997136272    0.25741927415279364    
  0.27427612338484325    0.29489880111407324    0.3175228078704084    0.33985774261707624    0.3593763815553169    
  0.37378237587978225    0.3814098046221201    0.38140980462212004    0.3737823758797823    0.3593763815553169    
  0.33985774261707635    0.3175228078704084    0.2948988011140733    0.27427612338484325    0.25741927415279375    
  0.24557100997136272    0.23963225520498538    0.24029708296654104    0.24801430716967934    0.26279570171914285    
  0.2839405051026461    0.3097256615892653    0.3371947960313337    0.362388846641215    0.3813585310017312    
  0.39174026804904916    0.3939340993659311    0.39093783755928074    0.3868659825491168    0.3850837560347404    
  0.4033079159890036    0.40392426048684366    0.40469086579050806    0.4028285137186385    0.39514888013809757    
  0.379684435799315    0.3568054337120204    0.3291374278693657    0.30042651763089934    0.27421151199860333    
  0.25304338977673957    0.23835322774406784    0.23066345623836726    0.22987326055378277    0.23551267770832335    
  0.24690821695084236    0.2631908879177143    0.28314503219935716    0.30503712302052427    0.32663054819062726    
  0.34547905327009487    0.35937638155531676    0.3667298167978506    0.3667298167978506    0.3593763815553168    
  0.3454790532700949    0.3266305481906272    0.30503712302052427    0.2831450321993572    0.2631908879177143    
  0.24690821695084242    0.2355126777083233    0.22987326055378277    0.23066345623836726    0.23835322774406784    
  0.25304338977673957    0.27421151199860333    0.30042651763089934    0.32913742786936573    0.35680543371202045    
  0.37968443579931505    0.39514888013809757    0.4028285137186385    0.40469086579050806    0.40392426048684366    
  0.4033079159890036    0.4243844926046729    0.42343539902066435    0.41982364559507496    0.4116789155976009    
  0.3971201828661835    0.37549373719017465    0.348041679559495    0.3175960994547536    0.2875757542062646    
  0.2609817613153261    0.23987710332552176    0.22534917131834303    0.21771156566295716    0.21675955379102602    
  0.22199788184072944    0.23277438027492123    0.24825558356328106    0.26726433793646104    0.2881236285344776    
  0.30868832426543896    0.32663054819062726    0.3398577426170762    0.3468571788092851    0.34685717880928507    
  0.33985774261707624    0.3266305481906273    0.308688324265439    0.2881236285344776    0.267264337936461    
  0.24825558356328095    0.23277438027492126    0.22199788184072944    0.216759553791026    0.2177115656629571    
  0.22534917131834303    0.23987710332552176    0.2609817613153261    0.2875757542062646    0.3175960994547537    
  0.348041679559495    0.37549373719017476    0.3971201828661835    0.41167891559760095    0.41982364559507496    
  0.42343539902066446    0.4243844926046729    0.44278591618815005    0.44014100674001083    0.43185500173886954    
  0.4171789178005348    0.39571069861681585    0.3681315913421822    0.3364466509593586    0.3035616865646416    
  0.27249378786992884    0.24569673475260795    0.2247636715620715    0.21045563013002072    0.20288841168675031    
  0.20176107517421638    0.2065559214039927    0.21663710011767087    0.23119869079623273    0.24910377605310413    
  0.2687522014936051    0.2881236285344775    0.30503712302052416    0.3175228078704084    0.32413859677412954    