#     DFTpy    
  CRYSTAL 
    
  PRIMVEC    
  6.734000000000002    0.0    0.0    
  0.0    6.734000000000002    0.0    
  0.0    0.0    3.710000000000001    
  PRIMCOORD    
  4    1    
  Si    0.0    0.0    0.0    
  Si    3.367000000000001    3.367000000000001    1.8550000000000004    
  Si    0.0    3.367000000000001    0.9275000000000002    
  Si    3.367000000000001    0.0    2.7825000000000006    
  BEGIN_BLOCK_DATAGRID_3D    
  3d_datagrid_density    
  BEGIN_DATAGRID_3D#0    
  65    65    37    
  0.0    0.0    0.0    
  6.7340000251179495    0.0    0.0    
  0.0    6.7340000251179495    0.0    
  0.0    0.0    3.7100000138383713    
  0.06054529997687459    0.06922539361629387    0.09776337728017881    0.15037702640670642    0.22393501961347356    
  0.3004472060383457    0.35346117995907467    0.36617581283749673    0.3416967657863332    0.29597476412615803    
  0.24495309032809282    0.19825642384036815    0.15974631980076343    0.13002532422364368    0.10826428839898386    
  0.09322461430583985    0.08379745235576137    0.07918167834550045    0.07883930925740704    0.08241780154271182    
  0.08972564506157389    0.10071363406040945    0.11538684432342342    0.13364056504676594    0.1550800247930006    
  0.17888986048045574    0.2037973989396518    0.22816776829088703    0.2502496800363396    0.2685134290168583    
  0.2819294783195688    0.29003028770907424    0.2927261312909028    0.29003028770907424    0.2819294783195688    
  0.2685134290168583    0.2502496800363396    0.22816776829088703    0.2037973989396518    0.17888986048045574    
  0.1550800247930006    0.13364056504676594    0.11538684432342342    0.10071363406040945    0.08972564506157389    
  0.08241780154271182    0.07883930925740704    0.07918167834550045    0.08379745235576137    0.09322461430583985    
  0.10826428839898386    0.13002532422364368    0.15974631980076343    0.19825642384036815    0.24495309032809282    
  0.29597476412615803    0.3416967657863332    0.36617581283749673    0.35346117995907467    0.3004472060383457    
  0.22393501961347356    0.15037702640670642    0.09776337728017881    0.06922539361629387    0.06054529997687459    
  0.06922539361629386    0.07835346388340204    0.10791057871354387    0.1611248138499923    0.2336158383068814    
  0.3069963549393322    0.35591090055110736    0.3652380052468352    0.33895409109734853    0.2927916445893593    
  0.24205279109661484    0.19586703811394768    0.1578576752357566    0.12854544067926318    0.10708650442114659    
  0.09225341179313137    0.08295454537384651    0.07840192988909571    0.07806487859949195    0.08159456818629154    
  0.08880087194396638    0.09963358683800387    0.11409611080824246    0.1320859291904792    0.15321920768561534    
  0.17670231485929744    0.20129320598895944    0.2253904727272997    0.24726911766941245    0.2654081569513444    
  0.2787656291819448    0.2868480396455606    0.28954105580122047    0.2868480396455606    0.2787656291819448    
  0.2654081569513444    0.24726911766941245    0.2253904727272997    0.20129320598895944    0.17670231485929744    
  0.15321920768561534    0.1320859291904792    0.11409611080824246    0.09963358683800387    0.08880087194396638    
  0.08159456818629154    0.07806487859949195    0.07840192988909571    0.08295454537384651    0.09225341179313137    
  0.10708650442114659    0.12854544067926318    0.1578576752357566    0.19586703811394768    0.24205279109661484    
  0.2927916445893593    0.33895409109734853    0.3652380052468352    0.35591090055110736    0.3069963549393322    
  0.2336158383068814    0.1611248138499923    0.10791057871354387    0.07835346388340204    0.06922539361629386    
  0.09776337728017874    0.1079105787135439    0.13952372607609106    0.19301722527284593    0.2608903935124506    
  0.3243099910218741    0.36134919501455476    0.36138253794562614    0.3304092170592978    0.28330709180271435    
  0.23354512300144678    0.18890306499501908    0.1523680413823128    0.12424672337699058    0.10366252202076118    
  0.08942511616025182    0.0804946609585014    0.07612154157972484    0.0757963817114718    0.07918179809038153    
  0.08609252587101418    0.09647596988653316    0.11033038198125734    0.1275582304879566    0.14780469947422065    
  0.17033536269452343    0.19399305087893962    0.21727116729043686    0.2385224394129898    0.25625705825901207    
  0.26940566035671143    0.2774077210725264    0.2800829425957006    0.2774077210725264    0.26940566035671143    
  0.25625705825901207    0.2385224394129898    0.21727116729043686    0.19399305087893962    0.17033536269452343    
  0.14780469947422065    0.1275582304879566    0.11033038198125734    0.09647596988653316    0.08609252587101418    
  0.07918179809038153    0.0757963817114718    0.07612154157972484    0.0804946609585014    0.08942511616025182    
  0.10366252202076118    0.12424672337699058    0.1523680413823128    0.18890306499501908    0.23354512300144678    
  0.28330709180271435    0.3304092170592978    0.36138253794562614    0.36134919501455476    0.3243099910218741    
  0.2608903935124506    0.19301722527284593    0.13952372607609106    0.1079105787135439    0.09776337728017874    
  0.15037702640670647    0.1611248138499923    0.19301722527284598    0.2426913169592371    0.2994583438826755    
  0.34557633173646896    0.3647488760138863    0.3521017744577856    0.31544125036375514    0.2678248621817044    
  0.22001313877717563    0.17794364979895297    0.1437657309763878    0.11751571155823537    0.09829269028911507    
  0.08497688508567558    0.07661321204271489    0.07251186323766051    0.07219693791128887    0.07535073813127446    
  0.08179797487335336    0.09148374049973419    0.1043975547647585    0.12044591336807686    0.1393119333270532    
  0.16034324228458766    0.18250439319228343    0.2044303056295295    0.2245981730755047    0.24158213313501628    
  0.2542939839102933    0.2620928700137123    0.2647124401023986    0.2620928700137123    0.2542939839102933    
  0.24158213313501628    0.2245981730755047    0.2044303056295295    0.18250439319228343    0.16034324228458766    
  0.1393119333270532    0.12044591336807686    0.1043975547647585    0.09148374049973419    0.08179797487335336    
  0.07535073813127446    0.07219693791128887    0.07251186323766051    0.07661321204271489    0.08497688508567558    
  0.09829269028911507    0.11751571155823537    0.1437657309763878    0.17794364979895297    0.22001313877717563    
  0.2678248621817044    0.31544125036375514    0.3521017744577856    0.3647488760138863    0.34557633173646896    
  0.2994583438826755    0.2426913169592371    0.19301722527284598    0.1611248138499923    0.15037702640670647    
  0.22393501961347356    0.23361583830688143    0.2608903935124505    0.2994583438826755    0.33755781819193553    
  0.36097944697774353    0.3600836517958729    0.33497242658080656    0.293873611963941    0.24711070501248952    
  0.2024201693721462    0.16385848045961646    0.1327547744985574    0.10889965946819062    0.09140259678194043    
  0.07925122332073783    0.07160169003368243    0.06783833207343605    0.0675275928104595    0.07037958677265742    
  0.07623536459681644    0.0850393808276075    0.09676934362339457    0.11133151056191291    0.12844625422179043    
  0.14755008151054042    0.16774623027054233    0.18783915125168743    0.2064672355613396    0.2223073895543467    
  0.2342845795508061    0.2416968231864002    0.24419912631063553    0.2416968231864002    0.2342845795508061    
  0.2223073895543467    0.2064672355613396    0.18783915125168743    0.16774623027054233    0.14755008151054042    
  0.12844625422179043    0.11133151056191291    0.09676934362339457    0.0850393808276075    0.07623536459681644    
  0.07037958677265742    0.0675275928104595    0.06783833207343605    0.07160169003368243    0.07925122332073783    
  0.09140259678194043    0.10889965946819062    0.1327547744985574    0.16385848045961646    0.2024201693721462    
  0.24711070501248952    0.293873611963941    0.33497242658080656    0.3600836517958729    0.36097944697774353    
  0.33755781819193553    0.2994583438826755    0.2608903935124505    0.23361583830688143    0.22393501961347356    
  0.3004472060383456    0.30699635493933214    0.32430999102187413    0.34557633173646896    0.36097944697774353    
  0.36148049635773744    0.3432606662720194    0.30925637055963756    0.26658072017105267    0.22250238967382305    
  0.18204202539698378    0.14769856998537068    0.12014992678105489    0.0990192171531977    0.08347493893320108    
  0.07264339058093919    0.06580602998007264    0.06242619181968178    0.062117159471118275    0.06462326012858828    
  0.06980766742623387    0.07761683611985652    0.08801540064451634    0.10090467901083873    0.1160358364178724    
  0.13292937977084904    0.15082810575665215    0.16871618710665548    0.18541530899461675    0.19973992424595466    
  0.21067174370006245    0.2174903745464777    0.2198027655423237    0.2174903745464777    0.21067174370006245    
  0.19973992424595466    0.18541530899461675    0.16871618710665548    0.15082810575665215    0.13292937977084904    
  0.1160358364178724    0.10090467901083873    0.08801540064451634    0.07761683611985652    0.06980766742623387    
  0.06462326012858828    0.062117159471118275    0.06242619181968178    0.06580602998007264    0.07264339058093919    
  0.08347493893320108    0.0990192171531977    0.12014992678105489    0.14769856998537068    0.18204202539698378    
  0.22250238967382305    0.26658072017105267    0.30925637055963756    0.3432606662720194    0.36148049635773744    
  0.36097944697774353    0.34557633173646896    0.32430999102187413    0.30699635493933214    0.3004472060383456    
  0.35346117995907467    0.35591090055110736    0.3613491950145548    0.3647488760138863    0.360083651795873    
  0.34326066627201934    0.31419003670192464    0.2765231243718944    0.23550164429615641    0.19576079749936132    
  0.16031302616021742    0.13057283440661224    0.10678576540993696    0.08850357380295476    0.07500078304517721    
  0.06555920350937494    0.05958474567139346    0.05661610362214224    0.05631393198363155    0.058459779194328    
  0.06294174436852373    0.06971077101971612    0.07872021711048385    0.0898648410931643    0.10291946015887204    
  0.117477815805938    0.13291245974586    0.14838287791968532    0.1628999517000791    0.17543790480918736    
  0.18507553770825366    0.19112354806598417    0.1931817542137625    0.19112354806598417    0.18507553770825366    
  0.17543790480918736    0.1628999517000791    0.14838287791968532    0.13291245974586    0.117477815805938    
  0.10291946015887204    0.0898648410931643    0.07872021711048385    0.06971077101971612    0.06294174436852373    
  0.058459779194328    0.05631393198363155    0.05661610362214224    0.05958474567139346    0.06555920350937494    
  0.07500078304517721    0.08850357380295476    0.10678576540993696    0.13057283440661224    0.16031302616021742    
  0.19576079749936132    0.23550164429615641    0.2765231243718944    0.31419003670192464    0.34326066627201934    
  0.360083651795873    0.3647488760138863    0.3613491950145548    0.35591090055110736    0.35346117995907467    
  0.36617581283749673    0.3652380052468351    0.36138253794562614    0.3521017744577855    0.33497242658080656    
  0.30925637055963756    0.27652312437189436    0.2399669376990215    0.20309748357775917    0.16873018419701408    
  0.1386176228267639    0.11351688340836207    0.09343585789264769    0.07794145746587025    0.06644575976003964    
  0.058384171729905995    0.05327431898123461    0.05072286065214156    0.05043664106732804    0.05223359419925924    
  0.05602505636530073    0.06176756472404452    0.06940795434330148    0.07883765151045156    0.0898510095061786    
  0.10210297027744249    0.11507967551545532    0.1281003422819928    0.14035628659745486    0.15098817737380485    
  0.15919907681102746    0.16437175494874567    0.1661359243414956    0.16437175494874567    0.15919907681102746    
  0.15098817737380485    0.14035628659745486    0.1281003422819928    0.11507967551545532    0.10210297027744249    
  0.0898510095061786    0.07883765151045156    0.06940795434330148    0.06176756472404452    0.05602505636530073    
  0.05223359419925924    0.05043664106732804    0.05072286065214156    0.05327431898123461    0.058384171729905995    
  0.06644575976003964    0.07794145746587025    0.09343585789264769    0.11351688340836207    0.1386176228267639    
  0.16873018419701408    0.20309748357775917    0.2399669376990215    0.27652312437189436    0.30925637055963756    
  0.33497242658080656    0.3521017744577855    0.36138253794562614    0.3652380052468351    0.36617581283749673    
  0.3416967657863331    0.33895409109734853    0.3304092170592978    0.3154412503637551    0.29387361196394096    
  0.2665807201710528    0.23550164429615636    0.20309748357775917    0.17168366874305874    0.14300454986624564    
  0.11810346760795015    0.09737811625468319    0.08074158225519464    0.06783574080131875    0.05821720507276184    
  0.05145586129399868    0.04716327706441186    0.045008416276281944    0.04474389812991589    0.04622041630965973    
  0.04936680400755796    0.05414409278761829    0.06049830106704028    0.06832425229390304    0.07743580051223284    
  0.08753894122991497    0.0982146671989184    0.10891893433503434    0.11900358534107659    0.12776838360666823    
  0.13455141913570687    0.13883171522087429    0.14029286627545776    0.13883171522087429    0.13455141913570687    
  0.12776838360666823    0.11900358534107659    0.10891893433503434    0.0982146671989184    0.08753894122991497    
  0.07743580051223284    0.06832425229390304    0.06049830106704028    0.05414409278761829    0.04936680400755796    
  0.04622041630965973    0.04474389812991589    0.045008416276281944    0.04716327706441186    0.05145586129399868    
  0.05821720507276184    0.06783574080131875    0.08074158225519464    0.09737811625468319    0.11810346760795015    
  0.14300454986624564    0.17168366874305874    0.20309748357775917    0.23550164429615636    0.2665807201710528    
  0.29387361196394096    0.3154412503637551    0.3304092170592978    0.33895409109734853    0.3416967657863331    
  0.29597476412615803    0.29279164458935936    0.28330709180271435    0.2678248621817044    0.24711070501248952    
  0.22250238967382316    0.1957607974993613    0.1687301841970141    0.14300454986624564    0.11973374024546793    
  0.0995753246763748    0.08275017509369163    0.06916662082822068    0.05856592802991787    0.050631117752464885    
  0.04503758345744566    0.0414746326786637    0.03967164572236196    0.03942759972497642    0.04062111112325526    
  0.043191049271025996    0.04709991831619277    0.052296782770728134    0.05868641049852465    0.06610468880943526    
  0.07430215299043653    0.08293735245860157    0.0915775350890775    0.09970894982970925    0.10677285501825144    
  0.1122380948326282    0.11568609048414452    0.11686297366789974    0.11568609048414452    0.1122380948326282    
  0.10677285501825144    0.09970894982970925    0.0915775350890775    0.08293735245860157    0.07430215299043653    
  0.06610468880943526    0.05868641049852465    0.052296782770728134    0.04709991831619277    0.043191049271025996    
  0.04062111112325526    0.03942759972497642    0.03967164572236196    0.0414746326786637    0.04503758345744566    
  0.050631117752464885    0.05856592802991787    0.06916662082822068    0.08275017509369163    0.0995753246763748    
  0.11973374024546793    0.14300454986624564    0.1687301841970141    0.1957607974993613    0.22250238967382316    
  0.24711070501248952    0.2678248621817044    0.28330709180271435    0.29279164458935936    0.29597476412615803    
  0.2449530903280928    0.24205279109661476    0.2335451230014468    0.22001313877717568    0.20242016937214624    
  0.18204202539698378    0.16031302616021745    0.13861762282676393    0.11810346760795018    0.09957532467637478    
  0.08348142870557025    0.06997152566969153    0.058991409804754216    0.05037293458746625    0.04389248150284507    
  0.03930259042967298    0.03635879612528617    0.034850043424186496    0.03462070967952511    0.03557230394137641    
  0.03764760531754456    0.04080726428752641    0.04500390081566727    0.050155092862111623    0.05612088363863149    
  0.06269305026416254    0.06959461364117764    0.07648128835491838    0.0829470736445948    0.08855181832995672    
  0.0928798289571446    0.09560649229585957    0.09653648816458738    0.09560649229585957    0.0928798289571446    
  0.08855181832995672    0.0829470736445948    0.07648128835491838    0.06959461364117764    0.06269305026416254    
  0.05612088363863149    0.050155092862111623    0.04500390081566727    0.04080726428752641    0.03764760531754456    
  0.03557230394137641    0.03462070967952511    0.034850043424186496    0.03635879612528617    0.03930259042967298    
  0.04389248150284507    0.05037293458746625    0.058991409804754216    0.06997152566969153    0.08348142870557025    
  0.09957532467637478    0.11810346760795018    0.13861762282676393    0.16031302616021745    0.18204202539698378    
  0.20242016937214624    0.22001313877717568    0.2335451230014468    0.24205279109661476    0.2449530903280928    
  0.19825642384036818    0.19586703811394773    0.18890306499501913    0.177943649798953    0.16385848045961646    
  0.1476985699853707    0.13057283440661224    0.11351688340836207    0.09737811625468319    0.08275017509369165    
  0.06997152566969153    0.059172984750311415    0.050341261458301714    0.04337102583670353    0.03809991440259806    
  0.034337934542086224    0.031898969340590784    0.030627107219543565    0.030406797549950577    0.03115758301045429    
  0.032823472030640864    0.035361688192842314    0.038726466099658144    0.04284650475035135    0.047605199409642404    
  0.05283288418526825    0.05830771328340508    0.06375624057115974    0.06885758694035087    0.07326719263108787    
  0.07666414983635732    0.07880086471331003    0.07952912549228267    0.07880086471331003    0.07666414983635732    
  0.07326719263108787    0.06885758694035087    0.06375624057115974    0.05830771328340508    0.05283288418526825    
  0.047605199409642404    0.04284650475035135    0.038726466099658144    0.035361688192842314    0.032823472030640864    
  0.03115758301045429    0.030406797549950577    0.030627107219543565    0.031898969340590784    0.034337934542086224    
  0.03809991440259806    0.04337102583670353    0.050341261458301714    0.059172984750311415    0.06997152566969153    
  0.08275017509369165    0.09737811625468319    0.11351688340836207    0.13057283440661224    0.1476985699853707    
  0.16385848045961646    0.177943649798953    0.18890306499501913    0.19586703811394773    0.19825642384036818    
  0.15974631980076343    0.15785767523575658    0.15236804138231275    0.1437657309763878    0.13275477449855735    
  0.12014992678105496    0.10678576540993696    0.09343585789264766    0.08074158225519464    0.06916662082822067    
  0.05899140980475424    0.05034126145830173    0.04322631331470586    0.03757642239700026    0.03327031910245676    
  0.030165348688785554    0.02812606502639615    0.0270415483537001    0.02682658051769389    0.027414331990682748    
  0.028750784163550473    0.030790796856493233    0.03348819334954164    0.03677871705783902    0.04056509843759974    
  0.04471137013230398    0.049042232611972734    0.05334162132085397    0.05735664560627349    0.06081888234743561    
  0.0634816642060764    0.06515550937923847    0.06572598421859512    0.06515550937923847    0.0634816642060764    
  0.06081888234743561    0.05735664560627349    0.05334162132085397    0.049042232611972734    0.04471137013230398    
  0.04056509843759974    0.03677871705783902    0.03348819334954164    0.030790796856493233    0.028750784163550473    
  0.027414331990682748    0.02682658051769389    0.0270415483537001    0.02812606502639615    0.030165348688785554    
  0.03327031910245676    0.03757642239700026    0.04322631331470586    0.05034126145830173    0.05899140980475424    
  0.06916662082822067    0.08074158225519464    0.09343585789264766    0.10678576540993696    0.12014992678105496    
  0.13275477449855735    0.1437657309763878    0.15236804138231275    0.15785767523575658    0.15974631980076343    
  0.13002532422364366    0.12854544067926318    0.12424672337699058    0.11751571155823543    0.10889965946819066    
  0.09901921715319772    0.08850357380295479    0.07794145746587022    0.06783574080131875    0.05856592802991784    
  0.050372934587466243    0.04337102583670353    0.037576422397000236    0.03293872972895864    0.029369355861225858    
  0.026766748447879934    0.025035860167795135    0.024096991637572018    0.023884290798496362    0.024341005240491098    
  0.025417254023940305    0.027068125247166626    0.029246673155749914    0.031892479502509924    0.03492239598804004    
  0.038226590222885166    0.04166611956554367    0.04507034195507028    0.04824112498586499    0.05097088627040773    
  0.05306994811856002    0.05439070223055546    0.05484128399145101    0.05439070223055546    0.05306994811856002    
  0.05097088627040773    0.04824112498586499    0.04507034195507028    0.04166611956554367    0.038226590222885166    
  0.03492239598804004    0.031892479502509924    0.029246673155749914    0.027068125247166626    0.025417254023940305    
  0.024341005240491098    0.023884290798496362    0.024096991637572018    0.025035860167795135    0.026766748447879934    
  0.029369355861225858    0.03293872972895864    0.037576422397000236    0.04337102583670353    0.050372934587466243    
  0.05856592802991784    0.06783574080131875    0.07794145746587022    0.08850357380295479    0.09901921715319772    
  0.10889965946819066    0.11751571155823543    0.12424672337699058    0.12854544067926318    0.13002532422364366    
  0.10826428839898383    0.10708650442114655    0.10366252202076115    0.09829269028911508    0.09140259678194043    
  0.08347493893320106    0.07500078304517714    0.06644575976003962    0.05821720507276185    0.05063111775246484    
  0.043892481502845054    0.03809991440259804    0.033270319102456744    0.029369355861225847    0.026336754334834574    
  0.02410356126376616    0.02260236869805405    0.02177176748109549    0.021556853749865323    0.021908401485993722    
  0.022781812419164337    0.024134380667206082    0.02591960055456262    0.028080273359911697    0.030543380012461492    
  0.033216946736028694    0.0359871434055941    0.038716926704749764    0.041251171824210765    0.04343030973873782    
  0.045107839497163515    0.04616590323913379    0.04652755175013851    0.04616590323913379    0.045107839497163515    
  0.04343030973873782    0.041251171824210765    0.038716926704749764    0.0359871434055941    0.033216946736028694    
  0.030543380012461492    0.028080273359911697    0.02591960055456262    0.024134380667206082    0.022781812419164337    
  0.021908401485993722    0.021556853749865323    0.02177176748109549    0.02260236869805405    0.02410356126376616    
  0.026336754334834574    0.029369355861225847    0.033270319102456744    0.03809991440259804    0.043892481502845054    
  0.05063111775246484    0.05821720507276185    0.06644575976003962    0.07500078304517714    0.08347493893320106    
  0.09140259678194043    0.09829269028911508    0.10366252202076115    0.10708650442114655    0.10826428839898383    
  0.09322461430583982    0.09225341179313137    0.08942511616025182    0.0849768850856756    0.07925122332073783    
  0.0726433905809392    0.06555920350937491    0.05838417172990597    0.051455861293998685    0.04503758345744564    
  0.039302590429673    0.034337934542086244    0.030165348688785554    0.026766748447879952    0.024103561263766185    
  0.022127524447158663    0.020786441652779614    0.020028357782589573    0.01980483586155927    0.020072242562681142    
  0.020790301600126352    0.021918580686414457    0.023412351220895068    0.025218682138281313    0.027272634115387762    
  0.029493567063403465    0.03178306207456277    0.03402685706336472    0.036101486084516965    0.03788329774444243    
  0.039257292911789275    0.04012654295985974    0.04042432148826892    0.04012654295985974    0.039257292911789275    
  0.03788329774444243    0.036101486084516965    0.03402685706336472    0.03178306207456277    0.029493567063403465    
  0.027272634115387762    0.025218682138281313    0.023412351220895068    0.021918580686414457    0.020790301600126352    
  0.020072242562681142    0.01980483586155927    0.020028357782589573    0.020786441652779614    0.022127524447158663    
  0.024103561263766185    0.026766748447879952    0.030165348688785554    0.034337934542086244    0.039302590429673    
  0.04503758345744564    0.051455861293998685    0.05838417172990597    0.06555920350937491    0.0726433905809392    
  0.07925122332073783    0.0849768850856756    0.08942511616025182    0.09225341179313137    0.09322461430583982    
  0.0837974523557614    0.08295454537384651    0.08049466095850143    0.07661321204271489    0.07160169003368243    
  0.06580602998007269    0.05958474567139348    0.053274318981234595    0.04716327706441187    0.0414746326786637    
  0.03635879612528619    0.03189896934059081    0.02812606502639616    0.025035860167795156    0.0226023686980541    
  0.02078644165277963    0.019542040682284392    0.01882197695928185    0.01858220572353858    0.01878275290411149    
  0.019385397184928273    0.020350635528376192    0.02163570426778278    0.02319234537854794    0.024962354021855662    
  0.026872528585284747    0.02883373237609797    0.03074625648019045    0.032507845662850386    0.03401910519311409    
  0.035186216825085555    0.03592650556792444    0.036180580628998586    0.03592650556792444    0.035186216825085555    
  0.03401910519311409    0.032507845662850386    0.03074625648019045    0.02883373237609797    0.026872528585284747    
  0.024962354021855662    0.02319234537854794    0.02163570426778278    0.020350635528376192    0.019385397184928273    
  0.01878275290411149    0.01858220572353858    0.01882197695928185    0.019542040682284392    0.02078644165277963    
  0.0226023686980541    0.025035860167795156    0.02812606502639616    0.03189896934059081    0.03635879612528619    
  0.0414746326786637    0.04716327706441187    0.053274318981234595    0.05958474567139348    0.06580602998007269    
  0.07160169003368243    0.07661321204271489    0.08049466095850143    0.08295454537384651    0.0837974523557614    
  0.07918167834550045    0.0784019298890957    0.07612154157972482    0.07251186323766051    0.06783833207343605    
  0.06242619181968181    0.05661610362214223    0.05072286065214153    0.04500841627628195    0.03967164572236194    
  0.0348500434241865    0.030627107219543575    0.0270415483537001    0.024096991637572028    0.021771767481095515    
  0.020028357782589577    0.018821976959281828    0.018107467733638763    0.017843085061125943    0.017990249198516557    
  0.01851076616320518    0.01936474414379281    0.02051030154285389    0.02190220647379446    0.02348682754599179    
  0.025196249983797304    0.0269478650399049    0.028651256634976523    0.03021664112519595    0.03155845630373888    
  0.032595318348178644    0.03325377917408126    0.03347996767585537    0.03325377917408126    0.032595318348178644    
  0.03155845630373888    0.03021664112519595    0.028651256634976523    0.0269478650399049    0.025196249983797304    
  0.02348682754599179    0.02190220647379446    0.02051030154285389    0.01936474414379281    0.01851076616320518    
  0.017990249198516557    0.017843085061125943    0.018107467733638763    0.018821976959281828    0.020028357782589577    
  0.021771767481095515    0.024096991637572028    0.0270415483537001    0.030627107219543575    0.0348500434241865    
  0.03967164572236194    0.04500841627628195    0.05072286065214153    0.05661610362214223    0.06242619181968181    
  0.06783833207343605    0.07251186323766051    0.07612154157972482    0.0784019298890957    0.07918167834550045    
  0.078839309257407    0.07806487859949189    0.0757963817114718    0.07219693791128888    0.06752759281045952    
  0.062117159471118275    0.0563139319836315    0.05043664106732802    0.044743898129915874    0.03942759972497637    
  0.034620709679525095    0.03040679754995057    0.026826580517693873    0.02388429079849635    0.021556853749865327    
  0.01980483586155924    0.018582205723538543    0.01784308506112592    0.017544905196993265    0.017647995389096862    
  0.0181130620147868    0.01889928925566814    0.01996412091020076    0.021262303753524073    0.02274167268418112    
  0.02433785617054008    0.025973478373287687    0.027563913494914577    0.029024909693969005    0.030276290752080447    
  0.03124235310819452    0.031855338541116496    0.03206580497171612    0.031855338541116496    0.03124235310819452    
  0.030276290752080447    0.029024909693969005    0.027563913494914577    0.025973478373287687    0.02433785617054008    
  0.02274167268418112    0.021262303753524073    0.01996412091020076    0.01889928925566814    0.0181130620147868    
  0.017647995389096862    0.017544905196993265    0.01784308506112592    0.018582205723538543    0.01980483586155924    
  0.021556853749865327    0.02388429079849635    0.026826580517693873    0.03040679754995057    0.034620709679525095    
  0.03942759972497637    0.044743898129915874    0.05043664106732802    0.0563139319836315    0.062117159471118275    
  0.06752759281045952    0.07219693791128888    0.0757963817114718    0.07806487859949189    0.078839309257407    
  0.08241780154271178    0.08159456818629152    0.07918179809038155    0.07535073813127448    0.07037958677265745    