#     DFTpy    
  CRYSTAL 
    
  PRIMVEC    
  3.9475172413793103    0.0    0.0    
  0.0    3.9475172413793103    0.0    
  0.0    0.0    2.1748275862069    
  PRIMCOORD    
  4    1    
  Si    0.0    0.0    0.0    
  Si    1.9737586206896505    1.9737586206896505    1.08741379310345    
  Si    0.0    1.9737586206896505    0.5437068965517201    
  Si    1.9737586206896505    0.0    1.63112068965517    
  BEGIN_BLOCK_DATAGRID_3D    
  3d_datagrid_density    
  BEGIN_DATAGRID_3D#0    
  41    41    25    
  0.0    0.0    0.0    
  3.947517256103625    0.0    0.0    
  0.0    3.947517256103625    0.0    
  0.0    0.0    2.1748275943190487    
  0.048886766163439344    0.05701554180187062    0.08484537752559772    0.14077700384145886    0.23127330350345224    
  0.35072181431909716    0.4776961940614536    0.5851806112217701    0.6566246665383998    0.6923429760120776    
  0.7029054790347387    0.69895248740476    0.6856936052387641    0.6630004252283385    0.6285535753732555    
  0.5817352420873007    0.5263092453830657    0.47024668691066773    0.4228673853626333    0.391642529802473    
  0.3808062070534677    0.3916425298024729    0.4228673853626334    0.47024668691066784    0.5263092453830657    
  0.5817352420873005    0.6285535753732555    0.6630004252283386    0.6856936052387639    0.6989524874047598    
  0.7029054790347388    0.6923429760120777    0.6566246665383998    0.5851806112217701    0.4776961940614536    
  0.3507218143190972    0.23127330350345232    0.1407770038414588    0.08484537752559772    0.05701554180187062    
  0.048886766163439344    0.05701554180187071    0.06565595956047944    0.09480216572194097    0.15209260522256965    
  0.2427255074108377    0.36002811043211896    0.48268144783254974    0.5850192027587581    0.6520604694674742    
  0.6849229126528648    0.6941291455552251    0.6899405017917265    0.6772949499163738    0.6559870448249843    
  0.623661385844392    0.5795191011739538    0.5269418284657669    0.4734386160521353    0.4279807341820685    
  0.3979002130947399    0.38743772453353287    0.39790021309473983    0.4279807341820685    0.4734386160521354    
  0.5269418284657669    0.5795191011739536    0.623661385844392    0.6559870448249844    0.6772949499163738    
  0.6899405017917265    0.6941291455552251    0.6849229126528648    0.6520604694674742    0.5850192027587582    
  0.48268144783254985    0.360028110432119    0.2427255074108378    0.15209260522256965    0.09480216572194097    
  0.06565595956047944    0.05701554180187071    0.08484537752559766    0.09480216572194092    0.12717202362262633    
  0.18727300098662394    0.2768262069296428    0.38661955212204147    0.49612406395652114    0.5836090157734889    
  0.6382860606031685    0.6632368547424706    0.6686935773493964    0.6638279574585946    0.6528374851179279    
  0.6353255297195967    0.6088704099867359    0.572220418004661    0.5277369705763557    0.4816362113392865    
  0.4418460353824506    0.4152031591880957    0.40587668553835216    0.4152031591880956    0.4418460353824506    
  0.48163621133928664    0.5277369705763557    0.5722204180046608    0.608870409986736    0.6353255297195967    
  0.6528374851179278    0.6638279574585945    0.6686935773493966    0.6632368547424708    0.6382860606031685    
  0.5836090157734889    0.49612406395652114    0.38661955212204147    0.2768262069296429    0.18727300098662394    
  0.12717202362262628    0.09480216572194092    0.08484537752559766    0.14077700384145886    0.1520926052225697    
  0.187273000986624    0.2480266226642516    0.3315087812773163    0.42613663597301527    0.5137717323270331    
  0.5786397112841324    0.6153739364525073    0.6291183308950428    0.6292808006407918    0.6233948461453804    
  0.6146414126466736    0.6024051321813563    0.5842515196382922    0.55841448279512    0.5259195882085166    
  0.4911297266739275    0.4602944207707952    0.43924907454382484    0.4318069470186817    0.4392490745438247    
  0.4602944207707952    0.4911297266739276    0.5259195882085166    0.5584144827951198    0.5842515196382924    
  0.6024051321813563    0.6146414126466735    0.6233948461453804    0.6292808006407921    0.6291183308950429    
  0.6153739364525073    0.5786397112841324    0.513771732327033    0.4261366359730152    0.3315087812773164    
  0.24802662266425166    0.187273000986624    0.1520926052225697    0.14077700384145886    0.23127330350345224    
  0.24272550741083762    0.27682620692964294    0.3315087812773164    0.4001868620954617    0.4708454821718461    
  0.5296814335258981    0.5676257394286357    0.5842272325750747    0.5857679145571367    0.580181048988668    
  0.5731030847305919    0.5666563723347641    0.560047227775825    0.5509266407668825    0.5371464732926282    
  0.5184499861937119    0.49717593112160885    0.47746815055151953    0.4636186947363659    0.45864850157888565    
  0.4636186947363658    0.47746815055151953    0.4971759311216089    0.5184499861937119    0.5371464732926281    
  0.5509266407668826    0.560047227775825    0.566656372334764    0.5731030847305919    0.5801810489886682    
  0.5857679145571368    0.5842272325750747    0.5676257394286357    0.5296814335258981    0.4708454821718461    
  0.40018686209546184    0.3315087812773164    0.27682620692964294    0.24272550741083762    0.23127330350345224    
  0.35072181431909727    0.36002811043211896    0.3866195521220416    0.42613663597301527    0.4708454821718461    
  0.5109681761414244    0.538192657143374    0.5493091930286785    0.5470266542423738    0.5374621374545768    
  0.5266537523493677    0.5184304680195789    0.5140022629137914    0.5124527442606839    0.5115867203063589    
  0.509077926117535    0.5036901116934976    0.49594281688425346    0.4877988513893793    0.48166787913087017    
  0.4793982719023132    0.48166787913087006    0.4877988513893793    0.49594281688425357    0.5036901116934976    
  0.509077926117535    0.511586720306359    0.5124527442606839    0.5140022629137913    0.5184304680195788    
  0.5266537523493677    0.5374621374545769    0.5470266542423738    0.5493091930286785    0.5381926571433739    
  0.5109681761414244    0.47084548217184613    0.42613663597301527    0.3866195521220416    0.36002811043211896    
  0.35072181431909727    0.47769619406145364    0.48268144783254974    0.49612406395652114    0.513771732327033    
  0.5296814335258981    0.538192657143374    0.5362249382501356    0.524541119846746    0.5070602040716816    
  0.48879887193097626    0.4739205942528489    0.464802694713366    0.46197629134342755    0.4644392991413484    
  0.47015395256768044    0.47677006981467135    0.48242733150233447    0.4862523752793301    0.4883110226769536    
  0.48916574847997213    0.48937617466231764    0.4891657484799721    0.48831102267695353    0.4862523752793302    
  0.48242733150233447    0.47677006981467124    0.47015395256768044    0.4644392991413485    0.46197629134342744    
  0.4648026947133659    0.47392059425284905    0.4887988719309763    0.5070602040716816    0.524541119846746    
  0.5362249382501356    0.538192657143374    0.5296814335258982    0.513771732327033    0.49612406395652103    
  0.48268144783254974    0.47769619406145364    0.58518061122177    0.5850192027587579    0.5836090157734889    
  0.5786397112841323    0.5676257394286356    0.5493091930286785    0.524541119846746    0.49616660948367836    
  0.46804617067697285    0.4438547092013704    0.42626052363412575    0.41662638670008745    0.41502512111948797    
  0.4203907665426619    0.4308094846623541    0.44397284369897566    0.45766249184331037    0.47006218681079415    
  0.4798318150468873    0.4860551077252197    0.4881898591829248    0.48605510772521965    0.4798318150468873    
  0.47006218681079415    0.45766249184331037    0.44397284369897555    0.4308094846623541    0.420390766542662    
  0.4150251211194879    0.41662638670008734    0.42626052363412587    0.4438547092013704    0.46804617067697285    
  0.49616660948367836    0.524541119846746    0.5493091930286785    0.5676257394286356    0.5786397112841324    
  0.5836090157734888    0.585019202758758    0.58518061122177    0.6566246665383998    0.6520604694674741    
  0.6382860606031685    0.6153739364525073    0.5842272325750746    0.5470266542423737    0.5070602040716815    
  0.46804617067697296    0.4333845617874134    0.40568478678714825    0.3866073496269511    0.37685760781741817    
  0.37620549300763195    0.38354451861472416    0.3970590247285943    0.4144926167106631    0.4334172310978146    
  0.4514225592278673    0.46625986380001755    0.4760312217936862    0.47944237444657656    0.47603122179368607    
  0.46625986380001755    0.4514225592278674    0.4334172310978146    0.414492616710663    0.39705902472859433    
  0.3835445186147243    0.37620549300763184    0.3768576078174181    0.3866073496269512    0.40568478678714825    
  0.4333845617874134    0.46804617067697296    0.5070602040716815    0.5470266542423737    0.5842272325750747    
  0.6153739364525073    0.6382860606031685    0.6520604694674741    0.6566246665383998    0.6923429760120775    
  0.6849229126528646    0.6632368547424707    0.6291183308950429    0.5857679145571367    0.5374621374545768    
  0.48879887193097626    0.44385470920137043    0.40568478678714825    0.3762628155187206    0.3566439233617277    
  0.3471090212177502    0.3472216877605804    0.3558628808514711    0.37130889351498064    0.3913517343283504    
  0.41342878632980135    0.43476419911288383    0.45257889102248466    0.46442005383113083    0.46857339410163273    
  0.4644200538311307    0.45257889102248466    0.4347641991128839    0.41342878632980135    0.39135173432835035    
  0.3713088935149808    0.3558628808514712    0.3472216877605803    0.3471090212177501    0.35664392336172784    
  0.3762628155187207    0.40568478678714825    0.4438547092013704    0.48879887193097626    0.5374621374545768    
  0.5857679145571368    0.6291183308950429    0.6632368547424707    0.6849229126528646    0.6923429760120775    
  0.7029054790347388    0.6941291455552251    0.6686935773493966    0.6292808006407921    0.5801810489886682    
  0.5266537523493678    0.47392059425284905    0.42626052363412587    0.38660734962695115    0.3566439233617277    
  0.33709902216597065    0.3279913008899763    0.328752775596773    0.338273972069142    0.35491450456758844    
  0.37650857348489786    0.4004079573095168    0.4236179403515339    0.44306910838552105    0.456027816665782    
  0.4605781424839333    0.45602781666578185    0.44306910838552094    0.423617940351534    0.4004079573095168    
  0.37650857348489775    0.3549145045675885    0.33827397206914217    0.32875277559677296    0.32799130088997624    
  0.3370990221659707    0.3566439233617278    0.38660734962695115    0.42626052363412575    0.473920594252849    
  0.5266537523493678    0.5801810489886683    0.6292808006407921    0.6686935773493966    0.6941291455552251    
  0.7029054790347388    0.6989524874047599    0.6899405017917266    0.6638279574585947    0.6233948461453804    
  0.5731030847305919    0.5184304680195789    0.46480269471336577    0.41662638670008734    0.3768576078174181    
  0.34710902121775006    0.32799130088997613    0.3194153838642076    0.3207641308491268    0.3309488951251425    
  0.3483838734531841    0.3709296592693086    0.3958918317244605    0.42015814961118686    0.4405083239358345    
  0.4540697835704105    0.45883209207969317    0.4540697835704103    0.44050832393583433    0.4201581496111869    
  0.3958918317244605    0.37092965926930843    0.34838387345318417    0.33094889512514253    0.32076413084912675    
  0.31941538386420754    0.32799130088997624    0.3471090212177501    0.3768576078174181    0.41662638670008734    
  0.46480269471336577    0.5184304680195789    0.5731030847305919    0.6233948461453804    0.6638279574585947    
  0.6899405017917266    0.6989524874047599    0.685693605238764    0.6772949499163738    0.652837485117928    
  0.6146414126466736    0.566656372334764    0.5140022629137914    0.46197629134342755    0.41502512111948797    
  0.3762054930076319    0.34722168776058043    0.3287527755967729    0.3207641308491267    0.32268331316042603    
  0.3334539304273739    0.35150841874584154    0.374710105114866    0.4003450564579553    0.42525237256355963    
  0.44613964041864    0.4600595427585422    0.46494773453521293    0.4600595427585421    0.44613964041864007    
  0.4252523725635597    0.4003450564579553    0.3747101051148659    0.3515084187458417    0.3334539304273741    
  0.3226833131604259    0.32076413084912664    0.328752775596773    0.3472216877605805    0.3762054930076319    
  0.41502512111948797    0.46197629134342744    0.5140022629137914    0.5666563723347641    0.6146414126466736    
  0.652837485117928    0.6772949499163738    0.685693605238764    0.6630004252283386    0.6559870448249843    
  0.6353255297195968    0.6024051321813564    0.5600472277758249    0.5124527442606839    0.4644392991413483    
  0.42039076654266194    0.3835445186147244    0.3558628808514711    0.338273972069142    0.33094889512514264    
  0.333453930427374    0.3447933394356771    0.3634027464635538    0.3871316022143667    0.41325817807868354    
  0.4386109492644457    0.45986773092869015    0.4740360638321654    0.4790121453996956    0.4740360638321654    
  0.45986773092869015    0.4386109492644458    0.41325817807868354    0.3871316022143666    0.3634027464635539    
  0.3447933394356772    0.3334539304273739    0.33094889512514253    0.3382739720691421    0.3558628808514712    
  0.3835445186147244    0.4203907665426619    0.4644392991413483    0.5124527442606839    0.560047227775825    
  0.6024051321813564    0.6353255297195968    0.6559870448249843    0.6630004252283386    0.6285535753732556    
  0.6236613858443921    0.608870409986736    0.5842515196382922    0.5509266407668826    0.5115867203063589    
  0.47015395256768056    0.4308094846623541    0.3970590247285943    0.3713088935149807    0.35491450456758833    
  0.34838387345318417    0.3515084187458418    0.36340274646355386    0.3825244264644776    0.40670946613833736    
  0.4332294040880047    0.4589158141548711    0.480440148014703    0.49478688363376555    0.499826140385907    
  0.49478688363376544    0.480440148014703    0.4589158141548712    0.4332294040880047    0.4067094661383373    
  0.3825244264644777    0.3634027464635539    0.3515084187458417    0.3483838734531841    0.35491450456758844    
  0.37130889351498075    0.3970590247285943    0.4308094846623541    0.47015395256768056    0.5115867203063589    
  0.5509266407668826    0.5842515196382922    0.6088704099867359    0.6236613858443921    0.6285535753732556    
  0.5817352420873007    0.5795191011739538    0.5722204180046611    0.55841448279512    0.5371464732926281    
  0.509077926117535    0.47677006981467135    0.44397284369897566    0.4144926167106631    0.3913517343283504    
  0.3765085734848977    0.3709296592693085    0.374710105114866    0.38713160221436654    0.40670946613833736    
  0.4312760066582593    0.45809036174606704    0.48398854105457695    0.5056564769998834    0.5200884252273225    
  0.5251562803748869    0.5200884252273223    0.5056564769998834    0.4839885410545772    0.45809036174606704    
  0.4312760066582592    0.4067094661383375    0.3871316022143667    0.37471010511486585    0.37092965926930843    
  0.37650857348489775    0.3913517343283505    0.4144926167106631    0.44397284369897566    0.47677006981467135    
  0.509077926117535    0.5371464732926282    0.55841448279512    0.5722204180046611    0.5795191011739538    
  0.5817352420873007    0.5263092453830657    0.5269418284657668    0.5277369705763557    0.5259195882085167    
  0.5184499861937117    0.5036901116934974    0.48242733150233436    0.4576624918433106    0.4334172310978145    
  0.41342878632980123    0.40040795730951656    0.3958918317244607    0.40034505645795543    0.41325817807868326    
  0.4332294040880047    0.45809036174606704    0.4850756810691764    0.5110232816517969    0.5326602004638208    
  0.5470404048080093    0.5520848461993745    0.5470404048080091    0.5326602004638208    0.511023281651797    
  0.4850756810691764    0.458090361746067    0.4332294040880048    0.41325817807868337    0.4003450564579554    
  0.3958918317244606    0.40040795730951667    0.41342878632980123    0.4334172310978145    0.4576624918433106    
  0.48242733150233436    0.5036901116934974    0.5184499861937119    0.5259195882085167    0.5277369705763557    
  0.5269418284657669    0.5263092453830657    0.47024668691066773    0.4734386160521352    0.4816362113392865    
  0.4911297266739275    0.49717593112160885    0.49594281688425346    0.4862523752793301    0.47006218681079415    
  0.4514225592278673    0.4347641991128839    0.4236179403515336    0.4201581496111869    0.42525237256355963    
  0.43861094926444566    0.4589158141548711    0.48398854105457695    0.511023281651797    0.5368556124438437    
  0.5582797338733164    0.5724625886184554    0.5774276470159966    0.5724625886184553    0.5582797338733164    
  0.5368556124438439    0.511023281651797    0.4839885410545768    0.4589158141548711    0.4386109492644457    
  0.42525237256355963    0.4201581496111868    0.4236179403515339    0.434764199112884    0.4514225592278673    
  0.47006218681079415    0.4862523752793301    0.49594281688425346    0.4971759311216089    0.4911297266739274    
  0.4816362113392865    0.4734386160521352    0.47024668691066773    0.4228673853626334    0.4279807341820685    
  0.4418460353824506    0.4602944207707952    0.47746815055151964    0.4877988513893793    0.4883110226769536    
  0.47983181504688743    0.4662598638000176    0.45257889102248455    0.4430691083855209    0.4405083239358345    
  0.4461396404186402    0.45986773092869015    0.480440148014703    0.5056564769998834    0.5326602004638209    
  0.5582797338733165    0.5793868566157692    0.5932889057100416    0.5981423297373376    0.5932889057100414    
  0.5793868566157692    0.5582797338733166    0.5326602004638209    0.5056564769998834    0.480440148014703    
  0.45986773092869027    0.44613964041864    0.44050832393583433    0.44306910838552094    0.45257889102248466    
  0.4662598638000176    0.47983181504688743    0.4883110226769536    0.4877988513893793    0.4774681505515197    
  0.4602944207707952    0.4418460353824506    0.42798073418206845    0.4228673853626334    0.3916425298024729    
  0.3979002130947399    0.4152031591880957    0.43924907454382484    0.4636186947363659    0.48166787913087017    
  0.4891657484799721    0.48605510772521965    0.4760312217936862    0.46442005383113066    0.45602781666578185    
  0.4540697835704105    0.4600595427585422    0.4740360638321655    0.49478688363376566    0.5200884252273223    
  0.5470404048080093    0.5724625886184554    0.5932889057100414    0.6069445011201252    0.611700096037534    
  0.606944501120125    0.5932889057100414    0.5724625886184554    0.5470404048080093    0.5200884252273223    
  0.49478688363376566    0.4740360638321656    0.4600595427585422    0.4540697835704105    0.456027816665782    
  0.4644200538311307    0.4760312217936862    0.4860551077252197    0.4891657484799721    0.48166787913087017    
  0.463618694736366    0.43924907454382484    0.4152031591880957    0.3979002130947399    0.3916425298024729    
  0.3808062070534677    0.3874377245335328    0.4058766855383522    0.4318069470186817    0.4586485015788855    
  0.4793982719023131    0.4893761746623177    0.4881898591829248    0.47944237444657656    0.4685733941016326    
  0.46057814248393325    0.4588320920796933    0.46494773453521315    0.4790121453996955    0.499826140385907    
  0.5251562803748869    0.5520848461993745    0.5774276470159966    0.5981423297373376    0.6117000960375341    
  0.6164168491045205    0.611700096037534    0.5981423297373376    0.5774276470159967    0.5520848461993745    
  0.5251562803748869    0.49982614038590706    0.4790121453996956    0.46494773453521304    0.45883209207969317    
  0.4605781424839333    0.46857339410163285    0.47944237444657656    0.4881898591829248    0.4893761746623177    
  0.4793982719023131    0.45864850157888554    0.4318069470186817    0.4058766855383522    0.38743772453353287    
  0.3808062070534677    0.3916425298024729    0.39790021309473983    0.4152031591880957    0.43924907454382495    
  0.4636186947363658    0.48166787913087017    0.4891657484799721    0.48605510772521965    0.4760312217936863    
  0.46442005383113066    0.45602781666578185    0.4540697835704105    0.4600595427585422    0.4740360638321655    
  0.49478688363376555    0.5200884252273225    0.5470404048080092    0.5724625886184554    0.5932889057100416    
  0.6069445011201252    0.611700096037534    0.606944501120125    0.5932889057100417    0.5724625886184556    
  0.5470404048080092    0.5200884252273223    0.49478688363376566    0.4740360638321656    0.4600595427585421    
  0.4540697835704103    0.456027816665782    0.4644200538311307    0.4760312217936863    0.48605510772521965    
  0.48916574847997196    0.48166787913087017    0.4636186947363659    0.43924907454382495    0.4152031591880957    
  0.39790021309473983    0.3916425298024729    0.4228673853626333    0.42798073418206845    0.4418460353824506    
  0.46029442077079524    0.47746815055151964    0.4877988513893794    0.4883110226769536    0.4798318150468873    
  0.4662598638000176    0.45257889102248455    0.4430691083855209    0.4405083239358345    0.4461396404186402    
  0.45986773092869027    0.480440148014703    0.5056564769998835    0.5326602004638209    0.5582797338733165    
  0.5793868566157692    0.5932889057100417    0.5981423297373376    0.5932889057100416    0.5793868566157693    
  0.5582797338733166    0.5326602004638209    0.5056564769998834    0.4804401480147031    0.4598677309286904    
  0.44613964041864    0.44050832393583433    0.44306910838552094    0.4525788910224848    0.4662598638000176    
  0.4798318150468873    0.4883110226769536    0.4877988513893794    0.4774681505515197    0.46029442077079524    
  0.4418460353824505    0.4279807341820685    0.4228673853626333    0.47024668691066784    0.4734386160521351    
  0.48163621133928664    0.4911297266739275    0.4971759311216089    0.4959428168842534    0.48625237527932996    
  0.47006218681079415    0.4514225592278673    0.4347641991128839    0.4236179403515337    0.4201581496111869    
  0.4252523725635597    0.43861094926444555    0.45891581415487104    0.48398854105457695    0.5110232816517969    
  0.5368556124438436    0.5582797338733165    0.5724625886184554    0.5774276470159966    0.5724625886184552    
  0.5582797338733165    0.5368556124438437    0.5110232816517969    0.4839885410545768    0.4589158141548711    
  0.4386109492644457    0.4252523725635595    0.4201581496111867    0.4236179403515337    0.434764199112884    
  0.4514225592278673    0.47006218681079415    0.48625237527932996    0.4959428168842534    0.497175931121609    
  0.4911297266739274    0.48163621133928664    0.4734386160521352    0.47024668691066784    0.5263092453830657    
  0.5269418284657668    0.5277369705763557    0.5259195882085167    0.5184499861937117    0.5036901116934974    
  0.48242733150233436    0.4576624918433106    0.4334172310978145    0.41342878632980123    0.40040795730951656    
  0.3958918317244607    0.40034505645795543    0.41325817807868326    0.4332294040880047    0.45809036174606704    
  0.4850756810691764    0.5110232816517969    0.5326602004638208    0.5470404048080093    0.5520848461993745    
  0.5470404048080091    0.5326602004638208    0.511023281651797    0.4850756810691764    0.458090361746067    
  0.4332294040880048    0.41325817807868337    0.4003450564579554    0.3958918317244606    0.40040795730951667    
  0.41342878632980123    0.4334172310978145    0.4576624918433106    0.48242733150233436    0.5036901116934974    
  0.5184499861937119    0.5259195882085167    0.5277369705763557    0.5269418284657669    0.5263092453830657    
  0.5817352420873007    0.5795191011739538    0.5722204180046611    0.55841448279512    0.5371464732926282    
  0.509077926117535    0.47677006981467135    0.44397284369897566    0.4144926167106631    0.39135173432835046    
  0.3765085734848976    0.37092965926930854    0.3747101051148659    0.38713160221436654    0.40670946613833736    
  0.4312760066582593    0.45809036174606715    0.48398854105457695    0.5056564769998834    0.5200884252273225    
  0.5251562803748868    0.5200884252273223    0.5056564769998834    0.48398854105457706    0.45809036174606715    
  0.4312760066582592    0.4067094661383374    0.3871316022143666    0.3747101051148659    0.3709296592693086    
  0.37650857348489775    0.3913517343283506    0.4144926167106631    0.44397284369897566    0.47677006981467135    
  0.509077926117535    0.5371464732926283    0.55841448279512    0.5722204180046611    0.5795191011739537    
  0.5817352420873007    0.6285535753732555    0.623661385844392    0.608870409986736    0.5842515196382922    
  0.5509266407668826    0.5115867203063589    0.47015395256768044    0.4308094846623541    0.39705902472859417    
  0.37130889351498064    0.35491450456758833    0.34838387345318417    0.3515084187458418    0.36340274646355375    
  0.3825244264644775    0.40670946613833736    0.4332294040880047    0.4589158141548711    0.480440148014703    
  0.49478688363376555    0.499826140385907    0.49478688363376544    0.480440148014703    0.4589158141548712    
  0.4332294040880047    0.40670946613833725    0.3825244264644777    0.36340274646355386    0.3515084187458416    
  0.34838387345318417    0.3549145045675884    0.37130889351498075    0.39705902472859417    0.43080948466235414    
  0.47015395256768044    0.5115867203063589    0.5509266407668827    0.5842515196382921    0.608870409986736    
  0.623661385844392    0.6285535753732555    0.6630004252283386    0.6559870448249844    0.6353255297195967    
  0.6024051321813563    0.560047227775825    0.512452744260684    0.4644392991413484    0.42039076654266194    
  0.38354451861472433    0.3558628808514711    0.338273972069142    0.33094889512514275    0.33345393042737415    
  0.3447933394356771    0.36340274646355386    0.3871316022143667    0.4132581780786834    0.4386109492644457    
  0.45986773092869027    0.4740360638321654    0.4790121453996955    0.4740360638321654    0.45986773092869027    
  0.4386109492644458    0.4132581780786834    0.3871316022143666    0.363402746463554    0.3447933394356772    
  0.33345393042737403    0.33094889512514264    0.3382739720691421    0.3558628808514712    0.38354451861472433    
  0.42039076654266194    0.4644392991413484    0.5124527442606839    0.5600472277758252    0.6024051321813563    
  0.6353255297195967    0.6559870448249844    0.6630004252283386    0.6856936052387639    0.6772949499163738    
  0.652837485117928    0.6146414126466735    0.5666563723347638    0.5140022629137914    0.46197629134342755    
  0.415025121119488    0.37620549300763195    0.3472216877605803    0.32875277559677296    0.3207641308491268    
  0.322683313160426    0.333453930427374    0.3515084187458416    0.37471010511486613    0.4003450564579554    
  0.42525237256355963    0.44613964041864007    0.4600595427585422    0.46494773453521293    0.4600595427585422    
  0.44613964041864    0.4252523725635597    0.4003450564579554    0.374710105114866    0.3515084187458417    
  0.33345393042737403    0.3226833131604259    0.3207641308491267    0.328752775596773    0.3472216877605805    
  0.37620549300763195    0.4150251211194881    0.46197629134342744    0.5140022629137914    0.566656372334764    
  0.6146414126466735    0.652837485117928    0.6772949499163738    0.6856936052387639    0.6989524874047598    
  0.6899405017917265    0.6638279574585947    0.6233948461453804    0.5731030847305919    0.5184304680195789    
  0.46480269471336577    0.41662638670008734    0.3768576078174182    0.34710902121775    0.32799130088997613    
  0.3194153838642076    0.32076413084912675    0.3309488951251425    0.3483838734531841    0.37092965926930843    
  0.3958918317244607    0.42015814961118697    0.44050832393583433    0.4540697835704103    0.45883209207969305    
  0.4540697835704103    0.4405083239358344    0.420158149611187    0.3958918317244607    0.37092965926930843    
  0.3483838734531842    0.33094889512514264    0.3207641308491267    0.3194153838642075    0.32799130088997624    
  0.3471090212177501    0.3768576078174182    0.41662638670008734    0.4648026947133659    0.5184304680195789    
  0.5731030847305919    0.6233948461453804    0.6638279574585947    0.6899405017917265    0.6989524874047598    
  0.7029054790347388    0.6941291455552252    0.6686935773493966    0.629280800640792    0.5801810489886682    
  0.5266537523493677    0.47392059425284905    0.42626052363412564    0.38660734962695115    0.3566439233617278    
  0.3370990221659707    0.32799130088997624    0.328752775596773    0.3382739720691421    0.35491450456758844    
  0.37650857348489786    0.4004079573095168    0.4236179403515338    0.44306910838552105    0.456027816665782    
  0.46057814248393314    0.456027816665782    0.44306910838552105    0.4236179403515339    0.4004079573095168    
  0.37650857348489775    0.3549145045675885    0.3382739720691422    0.32875277559677296    0.32799130088997613    
  0.33709902216597076    0.35664392336172784    0.38660734962695115    0.42626052363412575    0.473920594252849    
  0.5266537523493677    0.5801810489886683    0.6292808006407921    0.6686935773493964    0.6941291455552251    
  0.7029054790347388    0.6923429760120777    0.6849229126528648    0.6632368547424708    0.6291183308950429    
  0.5857679145571368    0.5374621374545768    0.4887988719309763    0.44385470920137043    0.4056847867871482    
  0.3762628155187206    0.3566439233617277    0.34710902121775006    0.3472216877605805    0.35586288085147105    