#     DFTpy    
  CRYSTAL 
    
  PRIMVEC    
  5.042206896551721    0.0    0.0    
  0.0    5.042206896551721    0.0    
  0.0    0.0    2.7779310344827604    
  PRIMCOORD    
  4    1    
  Si    0.0    0.0    0.0    
  Si    2.521103448275861    2.521103448275861    1.3889655172413802    
  Si    0.0    2.521103448275861    0.6944827586206901    
  Si    2.521103448275861    0.0    2.0834482758620703    
  BEGIN_BLOCK_DATAGRID_3D    
  3d_datagrid_density    
  BEGIN_DATAGRID_3D#0    
  49    49    26    
  0.0    0.0    0.0    
  5.042206915359249    0.0    0.0    
  0.0    5.042206915359249    0.0    
  0.0    0.0    2.7779310448444963    
  0.052116901365935296    0.06022146362221575    0.08734597099103676    0.13904804453287814    0.21507237436905596    
  0.30085663276436436    0.3712821918647062    0.40731878408487815    0.4080314605314284    0.38634556874062936    
  0.35724552219495354    0.3308373203268939    0.31207056324342397    0.30272508079887067    0.30280978548803045    
  0.31119134573937074    0.32588944830400685    0.34412864573481033    0.36233501591254963    0.37665848387642875    
  0.38431156067138483    0.3849815433002148    0.3810812240626957    0.3764711127005104    0.3745009158116517    
  0.37647111270051054    0.3810812240626956    0.3849815433002148    0.38431156067138483    0.37665848387642864    
  0.36233501591254963    0.34412864573481033    0.32588944830400685    0.31119134573937085    0.30280978548803045    
  0.30272508079887056    0.3120705632434239    0.33083732032689395    0.35724552219495354    0.38634556874062925    
  0.4080314605314284    0.4073187840848782    0.3712821918647062    0.3008566327643644    0.21507237436905596    
  0.13904804453287817    0.08734597099103676    0.060221463622215726    0.052116901365935296    0.060221463622215816    
  0.06879908556964667    0.09705031803188459    0.14959805094389464    0.22489907482259366    0.30779021732499795    
  0.37402352436033925    0.40622911884820895    0.4045359404790819    0.38185285100991956    0.3525971417171864    
  0.32635233867411617    0.30777878968986805    0.29854073840890955    0.29862296857187787    0.30691946434108724    
  0.3215146263446612    0.33973152167156295    0.35812012205866495    0.3729395444481024    0.38142199619019684    
  0.38313048557374274    0.380238774443833    0.37635287296382586    0.3746445625134387    0.3763528729638258    
  0.380238774443833    0.38313048557374274    0.38142199619019684    0.3729395444481024    0.35812012205866495    
  0.33973152167156295    0.3215146263446612    0.30691946434108724    0.29862296857187787    0.29854073840890955    
  0.307778789689868    0.32635233867411617    0.3525971417171864    0.38185285100991956    0.4045359404790819    
  0.40622911884820895    0.37402352436033925    0.307790217324998    0.22489907482259366    0.14959805094389467    
  0.09705031803188459    0.06879908556964667    0.060221463622215816    0.08734597099103689    0.09705031803188455    
  0.12775594477417018    0.18137186156581364    0.2530469239264586    0.3265687894595378    0.38053520985588596    
  0.40208804748223914    0.39393845074434763    0.36868644530402284    0.3391106256989875    0.31337218961531604    
  0.29535893901723265    0.2864261028691504    0.2864942074564014    0.29453366424704414    0.3088055047193158    
  0.326897605518693    0.34569476983263936    0.36176167551642957    0.37240721616684963    0.37688245099173995    
  0.376719525970437    0.37481458173702314    0.37382685736130133    0.37481458173702314    0.376719525970437    
  0.37688245099173995    0.37240721616684963    0.36176167551642957    0.34569476983263936    0.326897605518693    
  0.3088055047193158    0.29453366424704425    0.2864942074564014    0.2864261028691504    0.29535893901723265    
  0.31337218961531604    0.3391106256989875    0.3686864453040228    0.39393845074434763    0.40208804748223914    
  0.38053520985588596    0.3265687894595379    0.25304692392645856    0.18137186156581367    0.12775594477417018    
  0.09705031803188452    0.08734597099103689    0.13904804453287822    0.1495980509438947    0.18137186156581367    
  0.23247892130687836    0.29441440408785974    0.35114902251853874    0.3862393647829116    0.39278252973546907    
  0.37613478393561706    0.3478020251617268    0.3180983318566308    0.2932468937300314    0.2761151883533536    
  0.26764697360642187    0.26767777713412216    0.2752898043193391    0.2889900628430275    0.3067227803612732    
  0.3258255829020673    0.34330149877346033    0.3566224277867878    0.36468281382025    0.3681677537578333    
  0.36896769829238224    0.36897490259440424    0.3689676982923823    0.3681677537578333    0.36468281382025    
  0.3566224277867878    0.3433014987734602    0.3258255829020673    0.3067227803612732    0.2889900628430275    
  0.2752898043193391    0.26767777713412216    0.2676469736064218    0.2761151883533536    0.29324689373003143    
  0.3180983318566308    0.3478020251617268    0.37613478393561706    0.39278252973546907    0.3862393647829116    
  0.35114902251853886    0.29441440408785974    0.2324789213068784    0.1813718615658137    0.14959805094389464    
  0.13904804453287822    0.21507237436905596    0.2248990748225936    0.25304692392645856    0.29441440408785974    
  0.33869656593461783    0.37245436384248654    0.3854633808051782    0.37626143410143553    0.35155556531250975    
  0.3208135495111317    0.29154017610527655    0.2679824211891632    0.2519990266288764    0.2441165682898178    
  0.24408536372530418    0.25111807113822665    0.26398996123536095    0.2810134084025833    0.2999918973256686    
  0.318410321558043    0.3339890767548372    0.34535750938209464    0.3523850185617854    0.35589674741600424    
  0.35691746048207723    0.3558967474160043    0.3523850185617854    0.34535750938209464    0.3339890767548372    
  0.31841032155804294    0.2999918973256686    0.2810134084025833    0.26398996123536095    0.25111807113822676    
  0.24408536372530418    0.24411656828981773    0.2519990266288764    0.26798242118916327    0.29154017610527655    
  0.32081354951113167    0.35155556531250975    0.37626143410143553    0.3854633808051782    0.3724543638424866    
  0.33869656593461783    0.29441440408785974    0.25304692392645856    0.22489907482259358    0.21507237436905596    
  0.3008566327643644    0.30779021732499795    0.3265687894595378    0.3511490225185388    0.3724543638424866    
  0.3815834738974212    0.3740935775744092    0.35197102785813933    0.32159878664235264    0.28989606971441123    
  0.26179434662879986    0.23990710361023926    0.22527282099566884    0.2180625927983725    0.21795659579420745    
  0.2242997061308275    0.23612029238917678    0.25205792794488946    0.27032331171357316    0.2888461399363956    
  0.30563894668745795    0.31921666716203045    0.32883972551738405    0.33443854729965095    0.3362572451373557    
  0.33443854729965095    0.32883972551738405    0.3192166671620304    0.30563894668745795    0.2888461399363955    
  0.27032331171357316    0.25205792794488946    0.23612029238917678    0.22429970613082761    0.21795659579420745    
  0.2180625927983725    0.22527282099566884    0.23990710361023926    0.26179434662879986    0.28989606971441123    
  0.32159878664235264    0.35197102785813933    0.3740935775744092    0.38158347389742125    0.3724543638424866    
  0.35114902251853886    0.3265687894595379    0.3077902173249979    0.3008566327643644    0.3712821918647061    
  0.3740235243603392    0.38053520985588607    0.38623936478291154    0.38546338080517817    0.3740935775744092    
  0.3516889052289555    0.321514491599175    0.2885999856297544    0.2575134871882598    0.2312547932414867    
  0.21130339174066906    0.19812465790626252    0.19162897418891947    0.1914512795317976    0.19705377799074913    
  0.2076766431992596    0.22222602528525706    0.23924035056314166    0.2570167680588707    0.2738503006153508    
  0.28826990766467975    0.29918950299770447    0.30594562481196125    0.30822561947814153    0.3059456248119613    
  0.29918950299770447    0.28826990766467975    0.2738503006153508    0.25701676805887064    0.23924035056314166    
  0.22222602528525706    0.2076766431992596    0.19705377799074913    0.1914512795317976    0.19162897418891947    
  0.19812465790626252    0.21130339174066906    0.2312547932414867    0.2575134871882597    0.2885999856297544    
  0.32151449159917506    0.3516889052289555    0.37409357757440925    0.3854633808051782    0.38623936478291154    
  0.38053520985588607    0.37402352436033914    0.3712821918647061    0.4073187840848782    0.40622911884820884    
  0.40208804748223914    0.392782529735469    0.3762614341014355    0.3519710278581392    0.32151449159917506    
  0.2881063990036176    0.25532140040255225    0.22603809712602294    0.20203645834839504    0.18410852371264347    
  0.17236862464689687    0.1665707478314195    0.16633433139043557    0.17120976768416157    0.1805911223593725    
  0.19359015208567432    0.20900619881806268    0.22542807802116543    0.24139225198158284    0.25551297233400155    
  0.2665751416298503    0.2736221498444818    0.2760413385651372    0.2736221498444818    0.2665751416298503    
  0.25551297233400155    0.24139225198158284    0.2254280780211654    0.20900619881806268    0.1935901520856743    
  0.1805911223593725    0.1712097676841616    0.16633433139043557    0.16657074783141948    0.17236862464689687    
  0.18410852371264347    0.20203645834839504    0.22603809712602294    0.25532140040255225    0.2881063990036177    
  0.3215144915991751    0.35197102785813933    0.3762614341014355    0.392782529735469    0.40208804748223914    
  0.4062291188482088    0.4073187840848782    0.40803146053142847    0.40453594047908187    0.39393845074434763    
  0.376134783935617    0.35155556531250987    0.3215987866423526    0.2885999856297544    0.25532140040255225    
  0.22430107136966393    0.19741710338965435    0.17576473617587038    0.15975269842316    0.1493121349040927    
  0.14413623793408556    0.14385546458140042    0.14807245923504836    0.15627338137799218    0.1677202456894299    
  0.18142298811323063    0.19620399628733903    0.21079586361585267    0.22392275006755155    0.23437625345260182    
  0.24112467978117305    0.2434589134480292    0.2411246797811731    0.23437625345260182    0.22392275006755155    
  0.21079586361585267    0.19620399628733895    0.18142298811323063    0.1677202456894299    0.15627338137799218    
  0.1480724592350484    0.14385546458140042    0.14413623793408553    0.14931213490409267    0.15975269842316003    
  0.17576473617587038    0.19741710338965435    0.22430107136966393    0.25532140040255225    0.2885999856297544    
  0.3215987866423526    0.35155556531250987    0.37613478393561706    0.39393845074434763    0.40453594047908187    
  0.40803146053142847    0.3863455687406294    0.38185285100991956    0.3686864453040229    0.3478020251617268    
  0.3208135495111318    0.28989606971441123    0.2575134871882598    0.22603809712602296    0.19741710338965437    
  0.17299530748721403    0.1534990224958673    0.13913703716774856    0.12977243396133026    0.12510488684538307    
  0.12478897556064689    0.1284479428444042    0.13561133108668602    0.14564524683706356    0.15772568785688107    
  0.17086044640033568    0.1839390910024083    0.19579690640167086    0.20529913492013485    0.21146066806820857    
  0.2135968768335423    0.21146066806820857    0.20529913492013485    0.19579690640167088    0.1839390910024083    
  0.17086044640033562    0.1577256878568811    0.14564524683706356    0.13561133108668602    0.1284479428444042    
  0.12478897556064689    0.12510488684538304    0.12977243396133026    0.13913703716774858    0.1534990224958673    
  0.17299530748721398    0.19741710338965437    0.22603809712602296    0.2575134871882598    0.28989606971441123    
  0.3208135495111318    0.34780202516172687    0.3686864453040229    0.3818528510099195    0.3863455687406294    
  0.35724552219495354    0.3525971417171863    0.33911062569898737    0.3180983318566309    0.2915401761052765    
  0.26179434662879986    0.2312547932414867    0.20203645834839504    0.1757647361758704    0.15349902249586733    
  0.13577221192006853    0.122707620668297    0.11416795548502028    0.10988547220667347    0.10953409949550978    
  0.11273897136598623    0.1190494377464616    0.12790384339124178    0.13860035063310777    0.150283843922361    
  0.16196446061061504    0.1725786690766701    0.18108808457667944    0.18660282275241302    0.18851370328792394    
  0.18660282275241308    0.18108808457667944    0.1725786690766701    0.16196446061061504    0.15028384392236094    
  0.13860035063310777    0.12790384339124178    0.1190494377464616    0.11273897136598623    0.10953409949550978    
  0.10988547220667347    0.11416795548502028    0.12270762066829703    0.13577221192006853    0.15349902249586733    
  0.1757647361758704    0.20203645834839506    0.2312547932414867    0.26179434662879986    0.2915401761052765    
  0.3180983318566309    0.33911062569898737    0.35259714171718626    0.35724552219495354    0.330837320326894    
  0.32635233867411617    0.3133721896153161    0.29324689373003143    0.26798242118916327    0.23990710361023931    
  0.21130339174066912    0.18410852371264352    0.1597526984231601    0.13913703716774858    0.12270762066829703    
  0.11057264695040452    0.10261966482547834    0.09860506816665258    0.0982068667812367    0.10104743455314072    
  0.10669468762849688    0.11464228247124886    0.12427157264720452    0.13481738810869948    0.14537368080814256    
  0.1549586857747938    0.16262445382261362    0.16757831622616093    0.16929162166530962    0.16757831622616096    
  0.16262445382261362    0.15495868577479383    0.14537368080814256    0.13481738810869942    0.12427157264720452    
  0.11464228247124886    0.10669468762849685    0.10104743455314072    0.0982068667812367    0.09860506816665257    
  0.10261966482547834    0.11057264695040452    0.12270762066829703    0.13913703716774858    0.15975269842316006    
  0.18410852371264352    0.21130339174066912    0.23990710361023937    0.26798242118916327    0.29324689373003143    
  0.3133721896153161    0.3263523386741161    0.330837320326894    0.312070563243424    0.30777878968986794    
  0.29535893901723265    0.2761151883533536    0.2519990266288764    0.22527282099566884    0.19812465790626252    
  0.17236862464689692    0.1493121349040927    0.12977243396133026    0.11416795548502028    0.10261966482547837    
  0.09503507310405533    0.09117518638686346    0.0907107397038586    0.09326506385000032    0.09843020202084325    
  0.10574487724190704    0.11464355261243532    0.12441243789458853    0.13419516694514194    0.14306478234793266    
  0.15013896596110418    0.15469713634110602    0.1562706212487181    0.15469713634110607    0.15013896596110418    
  0.14306478234793268    0.13419516694514194    0.12441243789458852    0.11464355261243532    0.10574487724190701    
  0.09843020202084325    0.09326506385000036    0.0907107397038586    0.09117518638686344    0.09503507310405533    
  0.10261966482547838    0.11416795548502028    0.12977243396133026    0.1493121349040927    0.17236862464689698    
  0.19812465790626255    0.2252728209956689    0.2519990266288764    0.2761151883533536    0.29535893901723265    
  0.3077787896898679    0.312070563243424    0.3027250807988707    0.2985407384089096    0.28642610286915043    
  0.26764697360642187    0.2441165682898178    0.21806259279837256    0.1916289741889195    0.16657074783141956    
  0.1441362379340856    0.1251048868453831    0.10988547220667354    0.09860506816665258    0.0911751863868635    
  0.08735191695849455    0.08680026197052297    0.08914957005011541    0.09401368000556    0.10096155140074249    
  0.10945619781754393    0.11880712961786802    0.12817997664564718    0.13667425725431004    0.14344075557069255    
  0.1477946925392246    0.14929634238600417    0.14779469253922467    0.14344075557069258    0.13667425725431004    
  0.12817997664564718    0.11880712961786796    0.10945619781754393    0.1009615514007425    0.09401368000556001    
  0.08914957005011542    0.08680026197052296    0.08735191695849452    0.0911751863868635    0.0986050681666526    
  0.10988547220667354    0.12510488684538307    0.1441362379340856    0.16657074783141956    0.1916289741889195    
  0.21806259279837256    0.2441165682898178    0.26764697360642187    0.28642610286915043    0.29854073840890955    
  0.3027250807988707    0.30280978548803056    0.29862296857187776    0.2864942074564014    0.26767777713412216    
  0.24408536372530412    0.21795659579420745    0.1914512795317976    0.16633433139043555    0.1438554645814004    
  0.12478897556064686    0.10953409949550973    0.09820686678123663    0.09071073970385853    0.08680026197052289    
  0.08614535764213739    0.0883839809199675    0.0931389705000422    0.09998594336229094    0.10839064752304282    
  0.11766228156441877    0.1269663727589578    0.1354048852116588    0.1421319957330732    0.14646378953882475    
  0.14795853280933943    0.14646378953882477    0.1421319957330732    0.13540488521165886    0.1269663727589578    
  0.11766228156441877    0.10839064752304282    0.09998594336229094    0.0931389705000422    0.08838398091996749    
  0.08614535764213739    0.08680026197052287    0.09071073970385853    0.09820686678123665    0.10953409949550973    
  0.12478897556064684    0.1438554645814004    0.16633433139043557    0.1914512795317976    0.21795659579420745    
  0.24408536372530412    0.26767777713412216    0.2864942074564014    0.2986229685718777    0.30280978548803056    
  0.31119134573937085    0.3069194643410872    0.29453366424704425    0.2752898043193392    0.25111807113822676    
  0.22429970613082761    0.19705377799074916    0.17120976768416163    0.14807245923504844    0.12844794284440425    
  0.11273897136598628    0.10104743455314068    0.09326506385000036    0.08914957005011542    0.08838398091996756    
  0.0906145544866519    0.09545784961530876    0.10246965315349105    0.11108940751930575    0.12060068209651212    
  0.13014841260592439    0.13881789346767687    0.1457436058067015    0.15021400033977478    0.1517590726064685    
  0.15021400033977483    0.1457436058067015    0.13881789346767687    0.13014841260592439    0.12060068209651208    
  0.11108940751930575    0.10246965315349105    0.09545784961530875    0.0906145544866519    0.08838398091996756    
  0.08914957005011541    0.09326506385000036    0.10104743455314069    0.11273897136598628    0.12844794284440422    
  0.14807245923504844    0.17120976768416163    0.1970537779907492    0.22429970613082761    0.25111807113822676    
  0.2752898043193392    0.29453366424704425    0.3069194643410872    0.31119134573937085    0.3258894483040069    
  0.3215146263446612    0.3088055047193158    0.28899006284302753    0.26398996123536095    0.23612029238917673    
  0.2076766431992596    0.18059112235937252    0.15627338137799218    0.13561133108668605    0.11904943774646162    
  0.10669468762849678    0.09843020202084327    0.09401368000555999    0.09313897050004222    0.09545784961530873    
  0.10057085311288988    0.10799381368076912    0.117113034374572    0.12716043006723352    0.13723967328107958    
  0.1464018662465182    0.15374161651650803    0.1584951275293106    0.1601417751195848    0.15849512752931064    
  0.15374161651650803    0.14640186624651821    0.13723967328107958    0.12716043006723346    0.11711303437457202    
  0.10799381368076914    0.1005708531128899    0.09545784961530873    0.09313897050004222    0.09401368000555996    
  0.09843020202084327    0.10669468762849683    0.11904943774646162    0.13561133108668602    0.15627338137799218    
  0.18059112235937255    0.2076766431992596    0.23612029238917678    0.26398996123536095    0.28899006284302753    
  0.3088055047193158    0.32151462634466116    0.3258894483040069    0.3441286457348104    0.33973152167156295    
  0.32689760551869307    0.30672278036127326    0.2810134084025833    0.25205792794488946    0.222226025285257    
  0.19359015208567432    0.16772024568942995    0.14564524683706367    0.12790384339124178    0.11464228247124882    
  0.10574487724190708    0.10096155140074252    0.09998594336229101    0.10246965315349103    0.10799381368076912    
  0.11602549547717397    0.12588128144835206    0.1367215992605978    0.1475899902196765    0.15748423473954581    
  0.16543645254724754    0.17060578334637763    0.1724008381895757    0.17060578334637772    0.16543645254724756    
  0.1574842347395458    0.1475899902196765    0.13672159926059774    0.12588128144835206    0.11602549547717399    
  0.10799381368076912    0.10246965315349102    0.09998594336229101    0.10096155140074249    0.10574487724190708    
  0.11464228247124884    0.12790384339124178    0.14564524683706365    0.16772024568942995    0.19359015208567432    
  0.222226025285257    0.25205792794488946    0.2810134084025833    0.30672278036127326    0.32689760551869307    
  0.3397315216715629    0.3441286457348104    0.36233501591254963    0.35812012205866495    0.3456947698326394    
  0.32582558290206737    0.29999189732566867    0.2703233117135732    0.23924035056314166    0.2090061988180627    
  0.18142298811323065    0.1577256878568811    0.13860035063310772    0.12427157264720452    0.11464355261243535    
  0.10945619781754387    0.10839064752304282    0.11108940751930575    0.11711303437457204    0.1258812814483521    
  0.13663873203438714    0.14846593677610642    0.1603314901699497    0.17115844905890124    0.17989083426729366    
  0.1855870550421709    0.1875692965061812    0.185587055042171    0.17989083426729366    0.17115844905890124    
  0.1603314901699497    0.1484659367761064    0.13663873203438714    0.12588128144835206    0.11711303437457204    
  0.11108940751930575    0.10839064752304282    0.10945619781754383    0.11464355261243535    0.12427157264720455    
  0.13860035063310772    0.15772568785688107    0.18142298811323065    0.2090061988180627    0.23924035056314166    
  0.2703233117135732    0.29999189732566867    0.32582558290206737    0.3456947698326394    0.3581201220586649    
  0.36233501591254963    0.3766584838764287    0.3729395444481023    0.36176167551642957    0.3433014987734603    
  0.31841032155804294    0.2888461399363956    0.2570167680588707    0.2254280780211654    0.19620399628733898    
  0.17086044640033562    0.1502838439223609    0.13481738810869934    0.12441243789458849    0.11880712961786792    
  0.11766228156441873    0.12060068209651197    0.12716043006723346    0.13672159926059774    0.1484659367761063    
  0.16139546676665928    0.17439252385875234    0.18628392913402333    0.19590291826981224    0.2021926572985539    
  0.2043843683004077    0.20219265729855398    0.19590291826981224    0.1862839291340233    0.17439252385875234    
  0.16139546676665922    0.14846593677610634    0.13672159926059774    0.12716043006723346    0.12060068209651197    
  0.11766228156441873    0.11880712961786792    0.12441243789458849    0.1348173881086994    0.15028384392236088    
  0.17086044640033562    0.19620399628733898    0.2254280780211654    0.2570167680588707    0.28884613993639563    
  0.31841032155804294    0.3433014987734603    0.36176167551642957    0.37293954444810223    0.3766584838764287    
  0.3843115606713849    0.3814219961901968    0.3724072161668496    0.35662242778678777    0.33398907675483713    
  0.3056389466874579    0.2738503006153509    0.24139225198158284    0.21079586361585276    0.18393909100240827    
  0.16196446061061504    0.14537368080814253    0.13419516694514197    0.12817997664564718    0.12696637275895784    
  0.13014841260592436    0.13723967328107958    0.14758999021967645    0.1603314901699497    0.1743925238587524    
  0.18856006876805056    0.2015479884198444    0.21206785830717323    0.21895101673335635    0.2213499492204533    
  0.21895101673335643    0.21206785830717328    0.20154798841984442    0.1885600687680506    0.17439252385875237    
  0.1603314901699497    0.14758999021967645    0.13723967328107958    0.13014841260592439    0.12696637275895784    
  0.12817997664564712    0.13419516694514197    0.14537368080814253    0.16196446061061504    0.18393909100240827    
  0.21079586361585276    0.24139225198158284    0.2738503006153509    0.30563894668745795    0.33398907675483713    
  0.3566224277867877    0.3724072161668496    0.38142199619019673    0.3843115606713849    0.38498154330021483    
  0.38313048557374274    0.37688245099174    0.36468281382025    0.3453575093820947    0.3192166671620304    
  0.28826990766467975    0.25551297233400166    0.22392275006755155    0.19579690640167083    0.1725786690766701    
  0.15495868577479377    0.14306478234793268    0.13667425725431004    0.1354048852116589    0.1388178934676768    
  0.14640186624651813    0.1574842347395459    0.17115844905890132    0.1862839291340234    0.20154798841984453    
  0.21554653387224545    0.22687645938409584    0.23428003353927412    0.23685784714354108    0.23428003353927418    
  0.22687645938409584    0.21554653387224545    0.20154798841984453    0.18628392913402336    0.17115844905890132    
  0.1574842347395459    0.14640186624651813    0.13881789346767687    0.1354048852116589    0.13667425725430998    
  0.14306478234793268    0.15495868577479377    0.1725786690766701    0.19579690640167086    0.22392275006755155    
  0.2555129723340016    0.28826990766467975    0.3192166671620305    0.3453575093820947    0.36468281382025    
  0.37688245099174    0.3831304855737427    0.38498154330021483    0.3810812240626957    0.3802387744438329    
  0.37671952597043684    0.36816775375783317    0.35238501856178545    0.3288397255173841    0.29918950299770447    
  0.26657514162985024    0.23437625345260193    0.20529913492013485    0.1810880845766794    0.16262445382261362    
  0.15013896596110418    0.14344075557069252    0.14213199573307322    0.14574360580670143    0.153741616516508    
  0.1654364525472475    0.17989083426729371    0.19590291826981227    0.21206785830717328    0.22687645938409573    
  0.23883493661787805    0.2466295576441255    0.2493390566414757    0.24662955764412559    0.2388349366178781    
  0.22687645938409573    0.21206785830717328    0.1959029182698122    0.17989083426729371    0.16543645254724756    
  0.153741616516508    0.14574360580670145    0.14213199573307322    0.1434407555706925    0.15013896596110418    
  0.16262445382261362    0.1810880845766794    0.2052991349201348    0.23437625345260193    0.26657514162985024    
  0.29918950299770447    0.32883972551738416    0.35238501856178545    0.36816775375783317    0.3767195259704369    
  0.3802387744438329    0.3810812240626957    0.3764711127005106    0.3763528729638258    0.3748145817370231    
  0.36896769829238235    0.3558967474160043    0.3344385472996509    0.30594562481196136    0.27362214984448185    
  0.24112467978117302    0.2114606680682085    0.18660282275241297    0.16757831622616082    0.15469713634110607    
  0.14779469253922464    0.14646378953882475    0.15021400033977478    0.1584951275293106    0.1706057833463777    
  0.18558705504217088    0.20219265729855407    0.21895101673335643    0.23428003353927418    0.24662955764412559    
  0.2546596530358775    0.2574467542321385    0.2546596530358776    0.24662955764412559    0.23428003353927418    
  0.21895101673335643    0.20219265729855398    0.18558705504217088    0.1706057833463777    0.1584951275293106    
  0.15021400033977478    0.14646378953882475    0.1477946925392246    0.15469713634110607    0.16757831622616084    
  0.18660282275241297    0.21146066806820857    0.24112467978117302    0.27362214984448185    0.30594562481196136    
  0.334438547299651    0.3558967474160043    0.36896769829238235    0.3748145817370231    0.3763528729638258    
  0.3764711127005106    0.3745009158116516    0.37464456251343853    0.3738268573613012    0.36897490259440424    
  0.3569174604820772    0.3362572451373557    0.3082256194781416    0.2760413385651372    0.24345891344802925    
  0.2135968768335422    0.18851370328792386    0.16929162166530953    0.15627062124871804    0.14929634238600414    
  0.14795853280933943    0.1517590726064685    0.1601417751195848    0.17240083818957574    0.1875692965061812    
  0.20438436830040776    0.2213499492204533    0.23685784714354102    0.2493390566414756    0.2574467542321385    
  0.2602590533165439    0.2574467542321386    0.24933905664147565    0.23685784714354102    0.2213499492204533    
  0.20438436830040768    0.1875692965061812    0.17240083818957574    0.1601417751195848    0.1517590726064685    
  0.14795853280933943    0.1492963423860041    0.15627062124871804    0.16929162166530956    0.18851370328792386    
  0.2135968768335422    0.24345891344802925    0.2760413385651372    0.3082256194781416    0.33625724513735583    
  0.3569174604820772    0.36897490259440424    0.3738268573613013    0.3746445625134385    0.3745009158116516    
  0.37647111270051054    0.3763528729638258    0.3748145817370231    0.36896769829238224    0.3558967474160043    
  0.334438547299651    0.3059456248119613    0.2736221498444818    0.24112467978117305    0.21146066806820857    
  0.18660282275241302    0.16757831622616084    0.15469713634110613    0.14779469253922461    0.14646378953882477    
  0.15021400033977478    0.1584951275293106    0.17060578334637772    0.18558705504217096    0.20219265729855404    
  0.21895101673335643    0.2342800335392742    0.24662955764412553    0.2546596530358776    0.25744675423213853    
  0.2546596530358776    0.24662955764412559    0.23428003353927426    0.21895101673335648    0.20219265729855404    
  0.185587055042171    0.17060578334637774    0.1584951275293106    0.1502140003397748    0.14646378953882477    