
     Program PWSCF v.6.5 starts on 10Mar2023 at 10:45:33 

     This program is part of the open-source Quantum ESPRESSO suite
     for quantum simulation of materials; please cite
         "P. Giannozzi et al., J. Phys.:Condens. Matter 21 395502 (2009);
         "P. Giannozzi et al., J. Phys.:Condens. Matter 29 465901 (2017);
          URL http://www.quantum-espresso.org", 
     in publications or presentations arising from this work. More details at
     http://www.quantum-espresso.org/quote

     Serial version
     Reading input from /home/valeria/Documents/DFTPY/Fitting_densities/Si-B-tin/DATA2/Si9.in
Warning: card &IONS ignored
Warning: card / ignored
Warning: card &CELL ignored
Warning: card / ignored
Warning: card &FCP ignored
Warning: card / ignored
Warning: card &RISM ignored
Warning: card / ignored

     Current dimensions of program PWSCF are:
     Max number of different atomic species (ntypx) = 10
     Max number of k-points (npk) =  40000
     Max angular momentum in pseudopotentials (lmaxx) =  3

     WARNING: check_stop already initialized
     Found symmetry operation: I + ( -0.5000 -0.5000  0.5000)
     This is a supercell, fractional translations are disabled
     Message from routine setup:
     using ibrav=0 with symmetry is DISCOURAGED, use correct ibrav instead

     G-vector sticks info
     --------------------
     sticks:   dense  smooth     PW     G-vecs:    dense   smooth      PW
     Sum        1541    1541    465                24941    24941    4125



     bravais-lattice index     =            0
     lattice parameter (alat)  =       8.9642  a.u.
     unit-cell volume          =     396.8595 (a.u.)^3
     number of atoms/cell      =            4
     number of atomic types    =            1
     number of electrons       =        16.00
     number of Kohn-Sham states=           12
     kinetic-energy cutoff     =      60.0000  Ry
     charge density cutoff     =     240.0000  Ry
     convergence threshold     =      1.0E-06
     mixing beta               =       0.7000
     number of iterations used =            8  plain     mixing
     Exchange-correlation= LDA
                           (   1   1   0   0   0   0   0)

     celldm(1)=   8.964209  celldm(2)=   0.000000  celldm(3)=   0.000000
     celldm(4)=   0.000000  celldm(5)=   0.000000  celldm(6)=   0.000000

     crystal axes: (cart. coord. in units of alat)
               a(1) = (   1.000000   0.000000   0.000000 )  
               a(2) = (   0.000000   1.000000   0.000000 )  
               a(3) = (   0.000000   0.000000   0.550936 )  

     reciprocal axes: (cart. coord. in units 2 pi/alat)
               b(1) = (  1.000000  0.000000  0.000000 )  
               b(2) = (  0.000000  1.000000  0.000000 )  
               b(3) = (  0.000000  0.000000  1.815094 )  


     PseudoPot. # 1 for Si read from file:
     /home/valeria/Desktop/programs/dftpy/examples/ofpp/EAC/upf/blps/si.lda.upf
     MD5 check sum: 946fc5a8d23174f015515f8139e499ed
     Pseudo is Norm-conserving, Zval =  4.0
     DFTpy
     Using radial grid of 1601 points,  1 beta functions with: 
                l(1) =   0

     atomic species   valence    mass     pseudopotential
        Si             4.00    28.08000     Si( 1.00)

      8 Sym. Ops. (no inversion) found



   Cartesian axes

     site n.     atom                  positions (alat units)
         1           Si  tau(   1) = (   0.0000000   0.0000000   0.0000000  )
         2           Si  tau(   2) = (   0.5000000   0.5000000   0.2754678  )
         3           Si  tau(   3) = (   0.0000000   0.5000000   0.1377339  )
         4           Si  tau(   4) = (   0.5000000   0.0000000   0.4132017  )

     number of k points=   550  Gaussian smearing, width (Ry)=  0.0050

     Number of k-points >= 100: set verbosity='high' to print them.

     Dense  grid:    24941 G-vectors     FFT dimensions: (  45,  45,  25)

     Estimated max dynamical RAM per process >     333.01 MB

     Initial potential from superposition of free atoms

     starting charge   15.99744, renormalised to   16.00000
     Starting wfcs are random

     total cpu time spent up to now is       26.7 secs

     Self-consistent Calculation

     iteration #  1     ecut=    60.00 Ry     beta= 0.70
     Davidson diagonalization with overlap
     ethr =  1.00E-02,  avg # of iterations =  7.4

     Threshold (ethr) on eigenvalues was too large:
     Diagonalizing with lowered threshold

     Davidson diagonalization with overlap
     ethr =  1.50E-04,  avg # of iterations =  2.5

     total cpu time spent up to now is      288.5 secs

     total energy              =     -32.20683806 Ry
     Harris-Foulkes estimate   =     -32.20958784 Ry
     estimated scf accuracy    <       0.02393199 Ry

     iteration #  2     ecut=    60.00 Ry     beta= 0.70
     Davidson diagonalization with overlap
     ethr =  1.50E-04,  avg # of iterations =  1.0

     total cpu time spent up to now is      351.2 secs

     total energy              =     -32.20694315 Ry
     Harris-Foulkes estimate   =     -32.20710418 Ry
     estimated scf accuracy    <       0.00186334 Ry

     iteration #  3     ecut=    60.00 Ry     beta= 0.70
     Davidson diagonalization with overlap
     ethr =  1.16E-05,  avg # of iterations =  2.8

     total cpu time spent up to now is      419.2 secs

     total energy              =     -32.20698468 Ry
     Harris-Foulkes estimate   =     -32.20698641 Ry
     estimated scf accuracy    <       0.00000552 Ry

     iteration #  4     ecut=    60.00 Ry     beta= 0.70
     Davidson diagonalization with overlap
     ethr =  3.45E-08,  avg # of iterations =  3.7

     total cpu time spent up to now is      523.0 secs

     End of self-consistent calculation

     Number of k-points >= 100: set verbosity='high' to print the bands.

     the Fermi energy is     9.9735 ev

!    total energy              =     -32.20699371 Ry
     Harris-Foulkes estimate   =     -32.20699384 Ry
     estimated scf accuracy    <       0.00000029 Ry

     The total energy is the sum of the following terms:

     one-electron contribution =      16.81233139 Ry
     hartree contribution      =       0.33236625 Ry
     xc contribution           =      -9.83813196 Ry
     ewald contribution        =     -39.51337149 Ry
     smearing contrib. (-TS)   =      -0.00018790 Ry

     convergence has been achieved in   4 iterations

 Energies determined by pw2casino tool
 -------------------------------------
 Kinetic energy      6.1400251384495732       au  =     12.280050276899146       Ry
 Local energy        2.2661405578831220       au  =     4.5322811157662439       Ry
 Non-Local energy    0.0000000000000000       au  =     0.0000000000000000       Ry
 Ewald energy       -19.756685744762073       au  =    -39.513371489524147       Ry
 xc contribution    -4.9190659813768489       au  =    -9.8381319627536978       Ry
 hartree energy     0.16618312589459486       au  =    0.33236625178918972       Ry
 Smearing (-TS)     -9.3950062249005016E-005  au  =    -1.8790012449801003E-004  Ry
 Total energy       -16.103496853834852       au  =    -32.206993707669703       Ry
 -------------------------------------
 Total energy0      -16.103496853973883       au  =    -32.206993707947767       Ry
 External energy0    0.0000000000000000       au  =     0.0000000000000000       Ry
 -------------------------------------


     Writing output data file ./si.save/
