#     DFTpy    
  CRYSTAL 
    
  PRIMVEC    
  4.778188003088501    1.9990167960000004e-05    -5.000000000000001e-13    
  -2.3890766895499707    4.138042309477871    -9.810000000000001e-12    
  -8.200000000000002e-13    -1.9090000000000002e-11    7.856083503170562    
  PRIMCOORD    
  4    1    
  Si    1.1894746930000003e-05    2.758701340929881    4.418055769762661    
  Si    2.3890994187860004    1.3793609586821103    0.49001396016622006    
  Si    1.1894748730000004e-05    2.758701340928741    7.36606948498934    
  Si    2.38909941879376    1.3793609587127504    3.4380277914022908    
  BEGIN_BLOCK_DATAGRID_3D    
  3d_datagrid_density    
  BEGIN_DATAGRID_3D#0    
  46    46    81    
  0.0    0.0    0.0    
  4.778188020911234    1.999016803456371e-05    -5.000000018650096e-13    
  -2.389076698461272    4.138042324912848    -9.810000036591488e-12    
  -8.200000030586159e-13    -1.9090000071206065e-11    7.856083532473903    
  0.009733499109487617    0.00993403022861096    0.010551010233990429    0.011628607239160437    0.013238345999105889    
  0.015484240581827338    0.01851104697849182    0.022506323718879104    0.027694413509188293    0.03433034528676252    
  0.04269791739644714    0.05310129081436681    0.06583178896850407    0.08110158167113883    0.0989548048252569    
  0.11917965647171502    0.1412449981465955    0.16427466791275686    0.18706315631627796    0.2081391338820117    
  0.22589323168764405    0.2387796514360093    0.24556600754462043    0.2455660063336774    0.23877964817282715    
  0.22589322728753364    0.20813912936213227    0.18706315239998686    0.16427466489536377    0.14124499600429413    
  0.1191796550514526    0.09895480398046959    0.08110158130108756    0.06583178898667945    0.053101291109132594    
  0.04269791784474541    0.03433034581621581    0.027694414133525795    0.022506324495736318    0.018511047930392373    
  0.015484241654435288    0.013238347077559751    0.01162860818997312    0.010551010939103584    0.009934030603165346    
  0.009733499109487617    0.009934030589785368    0.009934039372296019    0.01034279238649542    0.011190099028854462    
  0.012534142955785454    0.014463412768989731    0.017103196671453068    0.02062090211644675    0.025225155025673344    
  0.031161099787789474    0.0387064746357538    0.04816467085624083    0.059842025334500046    0.0739984585257673    
  0.09077221720260056    0.11009196338093724    0.13159653233952662    0.1545821859924908    0.17799068129551285    
  0.20044698087214058    0.22035879310284878    0.23609002695424094    0.24619818955886483    0.24968686533940374    
  0.24619966235789487    0.23609283110853765    0.22036266151290212    0.20045156193725922    0.17799560199600364    
  0.1545871117518251    0.1316011988432577    0.11009617991531916    0.09077586033938678    0.07400146964111019    
  0.059844408497861816    0.048166481552871156    0.03870779830816032    0.031162029198836375    0.02522577604081955    
  0.020621289659430737    0.017103415225206586    0.014463516158693346    0.012534173938980495    0.011190091412306338    
  0.01034277393125442    0.009934030589785368    0.01055101094739085    0.010342792741418208    0.010551040495368641    
  0.011190125140027339    0.012304094832674655    0.013969057782960228    0.01629633127573772    0.019435881297106838    
  0.023579928720379995    0.02896583390775944    0.03587496290434375    0.04462214093783887    0.05553126322436203    
  0.06889562111749718    0.08492230526675526    0.10365928112909417    0.12490880504892364    0.14814405781500337    
  0.17245668459815533    0.19656124267741984    0.21887283597203572    0.23766432817466934    0.251294081420344    
  0.2584674878328985    0.25846899927375044    0.2512984716887691    0.23767117920066136    0.21888150933621872    
  0.19657098320549823    0.17246674865901643    0.14815381564159735    0.124917786542519    0.1036671768279659    
  0.08492895173390472    0.06890098460263855    0.05553541677583962    0.044625229810479526    0.03587716475937382    
  0.028967327206116514    0.02358087723975994    0.019436430522586902    0.016296606439589564    0.013969159919493249    
  0.012304100291527047    0.011190091414495602    0.01055101094739085    0.011628608285671829    0.011190099719449082    
  0.011190125475079575    0.011628669110247822    0.01253422488106611    0.013969132215871533    0.016033383637844036    
  0.01886454498615916    0.022640170113152162    0.027587023171325532    0.03398884839939362    0.04217812441606531    
  0.05250706000919313    0.06530699548508048    0.08084443720834886    0.09926640923294519    0.1205201689921306    
  0.14424988694888274    0.1697029960602487    0.19569241547477415    0.22064682990822918    0.2427551757349692    
  0.26018939504776745    0.2713706648171687    0.27522611225790566    0.2713752479085514    0.2601981175061532    
  0.24276720616716146    0.22066107226127216    0.1957076867346422    0.16971820762640455    0.14426417176121667    
  0.12053293192507412    0.09927731804704933    0.08085338294451064    0.06531404128044144    0.05251238690211506    
  0.04218197926016829    0.03399149985966908    0.027588732285136433    0.022641176601353046    0.018865061261220676    
  0.016033587456347875    0.0139691599486907    0.012534173990658436    0.011628608285671829    0.013238347348138413    
  0.01253414394788825    0.012304095463983845    0.012534225172698922    0.013238471611455917    0.014463611559973543    
  0.016296563963383033    0.018864724036349846    0.022335014102128938    0.026923507046976176    0.03291101081044097    
  0.040643323680441296    0.050503939297317724    0.0628711005467304    0.07807660419779938    0.09636137682655882    
  0.11780253998459268    0.142200270852129    0.16895299409481246    0.19697859085340358    0.2247321379763674    
  0.25033604492572825    0.2718019440413377    0.2873012142601596    0.2954325325604478    0.29543571928397205    
  0.287310449374763    0.2718163042176622    0.2503541572385269    0.22475240040659505    0.1969994169159038    
  0.16897302261829678    0.1422184963557576    0.11781835088081925    0.09637451740105106    0.07808709265621791    
  0.06287913837122097    0.05050983504350114    0.040647435356549466    0.03291370280487693    0.02692512179206925    
  0.02233585831793358    0.018865061320223    0.016296606549555358    0.01446351633130676    0.013238347348138413    
  0.015484242192458062    0.014463414015299342    0.013969058655342655    0.013969132736103982    0.014463611781185819    
  0.015484492698528755    0.01710360238026216    0.01943638468910605    0.022640667661209583    0.026923857643544595    
  0.03256117000795065    0.039904262991653755    0.049361343232105795    0.06135716123372602    0.07629374185805894    
  0.09450944089917357    0.11620694979440946    0.14133127252371686    0.16942174348920006    0.19949821780785268    
  0.23004472600892492    0.2591252034188755    0.2846174244130894    0.3045045245563479    0.3171475625075016    
  0.3214865456230765    0.3171556466854889    0.3045198316099195    0.2846383970918396    0.2591498650709196    
  0.23007099314281634    0.19952418380817213    0.16944588897482374    0.14135257633845694    0.11622489333889766    
  0.09452392415934353    0.07630495665329769    0.061365472649063786    0.0493672032941199    0.03990814958386816    
  0.0325635408079774    0.02692512186628065    0.02264117675881909    0.019436430775135464    0.01710341559897646    
  0.015484242192458062    0.018511048804591243    0.01710319811861196    0.01629633232720168    0.016033384315939175    
  0.016296564326847954    0.017103602514688905    0.018511508291207648    0.020621628026851566    0.023580852769132694    
  0.027588038134793737    0.03291196358474397    0.03990491361657146    0.04899084701392163    0.06063236351052517    
  0.0752968689144044    0.09341897135163216    0.11532547526905054    0.14110085512167095    0.17041715738758378    
  0.20238697124491842    0.23550762867921585    0.2677586176932748    0.29687110254944976    0.32069481408611733    
  0.3375134734948192    0.3461968066768904    0.34620179787242134    0.33752789682831713    0.32071713072406    
  0.29689907915106445    0.2677897078562144    0.23553934868854853    0.2024172059906252    0.17044435858404258    
  0.14112411263778415    0.11534446416031527    0.09343381047746918    0.07530795559345474    0.06064023982863893    
  0.04899610972380822    0.039908149627988755    0.032913702950999185    0.027588732564610783    0.023580877680337065    
  0.0206212902955673    0.018511048804591243    0.02250632571351076    0.020620903712917263    0.01943588247082596    
  0.018864545759516665    0.018864724473387315    0.019436384883029026    0.020621628079950032    0.022507100019920373    
  0.025226356579105914    0.028967395929046572    0.03399066564092141    0.04064522086015798    0.049363032404571995    
  0.060633447089886855    0.0749774050241115    0.09291645699493271    0.11489591758729094    0.141135400983494    
  0.1714334849852297    0.20498367248941476    0.24026572976370478    0.27510547019264814    0.3069950519696101    
  0.3336228880413799    0.35334994439315376    0.36534692231237037    0.36936007891074624    0.3653582866115397    
  0.3533714758264606    0.3336523899604128    0.30702968512548123    0.2751421999347296    0.24030176980316173    
  0.20501682640197144    0.1714623207938302    0.14115925030051724    0.11491473791049786    0.09293062749366915    
  0.07498753453674213    0.06064023976263049    0.04936720330376385    0.0406474355255916    0.033991500237617184    
  0.02896732783034504    0.02522577694577861    0.02250632571351076    0.027694415617628785    0.02522515671909335    
  0.023579929966868272    0.022640170933999795    0.02233501456464951    0.022640667864303042    0.023580852821483315    
  0.025226356574204013    0.027695658866240824    0.03116299858747373    0.03587745724213045    0.04218110099478562    
  0.050507183329701784    0.061360334912104054    0.07529953830239199    0.09291810561212814    0.11477048929803375    
  0.1412086985211385    0.17215673193413822    0.20688187301162486    0.2438151893056915    0.28053648565249895    
  0.314126312627469    0.3419370341560221    0.3624141009447352    0.3753763964410735    0.38152114677245186    
  0.38152742943577017    0.37539464872340655    0.362442577676134    0.34197300771062006    0.3141664350126045    
  0.28057732713772665    0.24385379377957217    0.2069161323388416    0.17218549191139418    0.14123164290819604    
  0.11478790447749553    0.09293062723675932    0.07530795530186134    0.06136547249492475    0.050509835133044224    
  0.042181979654755376    0.03587716549722922    0.03116203030418519    0.027694415617628785    0.03433034742609331    
  0.031161101507229602    0.028965835170220843    0.027587023995174154    0.026923507498653874    0.026923857823266322    
  0.027588038154428042    0.02896739588603674    0.031162998547332777    0.03433227333299074    0.038709353701693955    
  0.04462591636169868    0.05251159564080845    0.06287613849665531    0.07629891297370388    0.09342382156782203    
  0.11489988569522369    0.14121108190242124    0.17241785820362976    0.2078746385820636    0.2459622611730764    
  0.2839512799755163    0.3183199560579979    0.3457798785840332    0.3646224851987756    0.3754011784996094    
  0.3803060091873465    0.381628066753869    0.3803188273450528    0.37542579384554664    0.3646567818225964    
  0.3458207109447087    0.3183635623530594    0.28399398612353527    0.24600115014085716    0.20790789049183836    
  0.17244472493783622    0.14123164246002462    0.1149147372267425    0.09343380981186852    0.07630495620717954    
  0.06287913826925098    0.052512387209906836    0.0446252305566562    0.03870779949561358    0.03433034742609331    
  0.0426979194429115    0.038706476277352325    0.03587496410258228    0.033988849168061455    0.03291101120969573    
  0.03256117013281284    0.032911963544950816    0.03399066553455643    0.035877457136288066    0.03870935363483855    
  0.042700790374090074    0.04816886268932913    0.055536715234587385    0.06531354064157334    0.07808395384752018    
  0.09451721183949    0.11533318273581576    0.14114240706933667    0.17216224089466672    0.2078777872356261    
  0.24667815943960025    0.28555697363363625    0.3202901239579858    0.34662409440081904    0.36224053408663476    
  0.3681287116886638    0.3680872918937835    0.3666147754093845    0.3666210743320566    0.36810582876599307    
  0.36815825324377616    0.3622787030134354    0.34666739968879046    0.3203345384640317    0.2855988245404053    
  0.24671482114915882    0.2079078900004883    0.17218549097152813    0.14115924914812641    0.11534446308211614    
  0.09452392338445426    0.07808709232322181    0.0653140414515065    0.05553541745987367    0.04816648272156688    
  0.0426979194429115    0.05310129262495008    0.04816467229932745    0.044622141977715024    0.042178125061633466    
  0.04064332398122157    0.03990426303074903    0.03990491349492516    0.04064522067159309    0.04218110080495712    
  0.04462591620842695    0.048168862600648954    0.05310542902661961    0.05984793010226207    0.0689032126699509    
  0.08085351112935317    0.0963716217639575    0.11621795752581003    0.1411120693413335    0.17144415763118825    
  0.20689111021973722    0.2459691283386833    0.28556063696428496    0.32083615658859854    0.3463940487046147    
  0.3587668669329314    0.3587318680451933    0.3513085238162086    0.3432432223404946    0.3398966713675017    
  0.34325479497457706    0.351331196878119    0.35876429023811474    0.35880641310691685    0.34643697058606804    
  0.3208783976789372    0.28559882425595184    0.24600114934983236    0.20691613107874576    0.17146231932505646    
  0.14112411128229016    0.11622489235161723    0.0963745169287201    0.08085338303860133    0.06890098524499194    
  0.05984440962332164    0.05310129262495008    0.0658317904268221    0.059842026482612956    0.05553126403179724    
  0.05250706048113015    0.05050393947180738    0.049361343176667766    0.048990846814867546    0.0493630321454182    
  0.05050718306986297    0.05251159541405561    0.05553671506683028    0.059847930018684464    0.06583760352749383    
  0.07400655449556572    0.08493254936296157    0.09927855073148127    0.11781623752224879    0.1413460574448844    
  0.17043235984933694    0.20499841823659673    0.24382846887217366    0.283962025946391    0.32029738771326777    
  0.34639741132370633    0.35722019741833716    0.35245217784480587    0.3374981623339152    0.3209193781259458    
  0.31047491526520393    0.3104800177757754    0.3209346125430466    0.3375230305530197    0.35248515381281975    
  0.35725838755900374    0.3464369705933714    0.32033453822848285    0.2839939853862702    0.24385379254245224    
  0.20501682493345902    0.17044435723701207    0.14135257538927995    0.11781835047670895    0.09927731822190806    
  0.08492895243950342    0.0740014707765523    0.0658317904268221    0.08110158271096654    0.07399845932935653    
  0.06889562165893223    0.06530699576727664    0.06287110059933286    0.06135716111068621    0.06063236328183597    
  0.060633446823415996    0.061360334654262605    0.06287613827102709    0.06531354046731984    0.0689032125704864    
  0.074006554473563    0.08110955950494152    0.09078300079025278    0.10367265656127585    0.12053583692083389    
  0.14221783969674906    0.16944064001137835    0.20240637837986572    0.2402846151746538    0.2805536405135429    
  0.3183340626388919    0.34663404741384407    0.35877235872160357    0.3524540588456994    0.332230589669998    
  0.3076286912816818    0.28849339547747943    0.2813881099338884    0.2885019858667964    0.3076458164135526    
  0.33225561550162025    0.35248515378937123    0.35880641320669787    0.34666739972236366    0.31836356200391075    
  0.28057732631077686    0.24030176871923128    0.2024172050047732    0.1694458883716735    0.14221849627325855    
  0.12053293237366763    0.10366717773107625    0.09077586156886945    0.08110158271096654    0.0989548054042694    
  0.09077221763505991    0.0849223055278651    0.08084443729942231    0.07807660414488586    0.07629374170860266    
  0.07529686872686558    0.07497740484950909    0.07529953816724941    0.0762989128821086    0.07808395380336312    
  0.08085351114824132    0.08493254944752644    0.09078300088982331    0.09896542562782032    0.11010586217245008    
  0.12492568720679323    0.14426939923352827    0.1689746504506954    0.19952128426540566    0.23553109235241315    
  0.275128056966549    0.31414648629095693    0.34579601151951644    0.36225147637088106    0.3587376206744064    
  0.33750000041097356    0.3076286014444282    0.28045952857817635    0.26473695983685425    0.26474042476994836    
  0.28046995444703465    0.3076458160767851    0.3375230302347916    0.3587642902336778    0.36227870327253914    
  0.3458207111353675    0.3141664348949587    0.2751421995909853    0.23553934840648907    0.19952418384699852    
  0.168973023093199    0.1442641726557638    0.12491778775796336    0.11009618131032821    0.0989548054042694    
  0.11917965652200067    0.11009196339074931    0.10365928107013936    0.09926640910478014    0.09636137665560786    
  0.09450944073456703    0.09341897125012982    0.09291645699646545    0.09291810572084058    0.09342382175854715    
  0.09451721208836994    0.09637162206788581    0.09927855108565913    0.10367265691565673    0.11010586241740491    
  0.11919333528045857    0.13161388509936162    0.1481647088534169    0.16972649246410976    0.19700427403403242    
  0.23007163619042081    0.2677854804237946    0.30702025177630654    0.3419586488465811    0.3646386928061548    
  0.36813857816684686    0.35131255895117963    0.3209193114849588    0.28849141919439153    0.2647351075398777    
  0.2561436579255703    0.2647404242762279    0.2885019850164182    0.3209346117083373    0.3513311965038361    
  0.368158253508175    0.3646567824992402    0.34197300844617684    0.3070296857882654    0.26778970856778583    
  0.23007099407586196    0.19699941814135866    0.16971820910031546    0.1481538172528476    0.1316012004534841    
  0.11917965652200067    0.1412449975534838    0.13159653182694805    0.12490880458077633    0.12052016856564655    
  0.11780253962859029    0.1162069495651108    0.11532547523155871    0.11489591778212807    0.11477048971330836    
  0.11489988627274429    0.11533318341163112    0.11621795826277037    0.11781623829473928    0.12053583766982864    
  0.12492568782122339    0.13161388544978392    0.14126209901390807    0.1546032480441129    0.17248120290004612    
  0.19571974858460345    0.2247613804861905    0.2591551291074759    0.29690012612700134    0.33364901332337643    
  0.36243511164267334    0.3754153172623602    0.3680940898274751    0.3432437592755681    0.3104712909629465    
  0.2813826330031932    0.2647351071016853    0.2647369589256828    0.2813881086562753    0.3104800164722298    
  0.3432547941734539    0.36810582888449295    0.3754257948819975    0.3624425792773577    0.33365239178162104    
  0.2968990810666753    0.2591498670923979    0.22475240252939735    0.1957076888868918    0.1724667507284788    
  0.15458711361753216    0.1412449975534838    0.1642746665572823    0.15458218484583644    0.14814405682979845    
  0.14424988611893005    0.14220027020880385    0.14133127213182606    0.14110085506061276    0.14113540130693353    
  0.14120869921609197    0.14121108288613224    0.14114240823386728    0.14111207060088907    0.1413460587341443    
  0.14221784093030623    0.14426940028527638    0.14816470959011047    0.1546032483925555    0.16429547642568837    
  0.17801552897388692    0.19658941626042592    0.2206774328576932    0.2503679088938356    0.2846490558044861    
  0.32072430300882676    0.35337497062190676    0.37539466157444457    0.3803160823443155    0.3666167586934735    
  0.33989213103094923    0.310471290645937    0.2884914184910846    0.28045952748213987    0.28849339406567587    
  0.3104749138094243    0.33989667038678334    0.3666210743979042    0.3803188287070575    0.3753946511479859    
  0.353371478839052    0.32071713393987666    0.28463840030814463    0.250354160342604    0.220661075150052    
  0.19657098577452636    0.1779956041511187    0.1642746665572823    0.18706315418415242    0.1779906794935695    
  0.17245668306473272    0.16970299478325007    0.16895299310641232    0.16942174286117795    0.17041715721425343    
  0.17143348534110422    0.17215673282204103    0.17241785953649538    0.17216224253300594    0.17144415943736155    
  0.17043236170065937    0.1694406417717852    0.16897465195607786    0.16972649355945604    0.1724812035127716    
  0.17801552917477428    0.1870877392602442    0.20047535873289155    0.21890404847795772    0.24278807633360244    
  0.2718351311571582    0.3045362436798545    0.3375415143742419    0.3653687888574501    0.38153470658915195    
  0.3816323739018287    0.3666167586034636    0.34324375889527325    0.320919310798684    0.30762860049010876    
  0.30762869012400873    0.32091937696002604    0.34324322160763776    0.36661477571709644    0.38162806853210285    
  0.3815274326225801    0.3653582907159076    0.33752790127307486    0.30451983597952287    0.27181630827392667    
  0.2427672097699123    0.21888151239149392    0.20045156437984135    0.18706315418415242    0.20813913119588917    
  0.20044697861586946    0.19656124077273546    0.1956924138988302    0.19697858963436946    0.1994982170194711    
  0.20238697099109162    0.20498367286346048    0.2068818740400501    0.20787464019462504    0.20787778928922965    
  0.2068911125451583    0.20499842065436835    0.20240638068404138    0.19952128622522103    0.19700427544593815    
  0.1957197493568013    0.19658941648166522    0.200475358670754    0.2081672239816465    0.22039008909269633    
  0.23769764452824776    0.26022337485583985    0.28733424131352553    0.3171776292778775    0.3462214979824788    
  0.3693769438520128    0.3815347069436724    0.38031608263506783    0.36809408985213354    0.3513125587165335    
  0.337499999997218    0.33223058915190257    0.3374981618497625    0.3513085237090137    0.36808729272169627    
  0.3803060114586716    0.3815211505781756    0.3693600838313151    0.34620180324849115    0.3171556519476214    
  0.2873104541702099    0.2601981216532083    0.23767118261102538    0.22036266414452554    0.20813913119588917    
  0.22589322896604497    0.22035879088324228    0.21887283416164952    0.2206468284668267    0.22473213691843721    
  0.2300447253987211    0.23550762861522131    0.24026573033997323    0.24381519055852782    0.24596226305184715    
  0.24667816182524424    0.24596913107563312    0.24382847176510608    0.24028461796388917    0.2355310947287021    
  0.23007163787479185    0.22476138134056814    0.22067743296817763    0.21890404815458492    0.2203900887553659    
  0.2259242647714724    0.23612338565836055    0.25132839123234507    0.2714043855184901    0.2954638486405408    
  0.3215132682169531    0.3462214987777023    0.36536879008337225    0.37539466283318146    0.3754153183038797    
  0.36813857894175234    0.3587376212448404    0.3524540592866493    0.3524521782649427    0.35873186871308155    
  0.36812871309079054    0.37540118115481796    0.37537640054983595    0.365346927571888    0.3461968124517585    
  0.3214865512789946    0.2954357243904919    0.27137525224396414    0.25129847516051784    0.23609283368585396    
  0.22589322896604497    0.238779649382814    0.2360900254546225    0.2376643271344671    0.24275517509303346    
  0.25033604466841536    0.2591252035791202    0.26775861833330694    0.2751054713657215    0.28053648735843684    
  0.28395128214953774    0.2855569761823307    0.2855606397953886    0.2839620289335569    0.28055364342810446    
  0.27512805947178287    0.26778548217311193    0.2591551298952337    0.25036790877282766    0.24278807562799626    
  0.23769764371023094    0.2361233851418735    0.2388128477899824    0.24623258808303514    0.2585015632260236    
  0.2752581839367197    0.2954638496087246    0.3171776311014207    0.3375415167697288    0.3533749732262259    
  0.3624351141477309    0.3646386950399711    0.3622514782822904    0.35877236032187654    0.3572201987823668    
  0.35876686828866017    0.36224053587327826    0.3646224879301709    0.3624141049007037    0.353349949401504    
  0.337513479016688    0.31714756792734533    0.29543253741810893    0.27522611630069355    0.25846900239517157    
  0.2461996645249071    0.238779649382814    0.24556600677804127    0.24619818938848093    0.2512940817769669    
  0.2601893958575142    0.2718019452493215    0.2846174259893325    0.29687110447053133    0.30699505418035683    
  0.3141263150117795    0.31831995846430633    0.32029012628060344    0.3208361588218005    0.32029738989333656    
  0.3183340647107944    0.3141464880336824    0.3070202528710715    0.2969001263293136    0.28464905511053673    
  0.27183512985840574    0.2602233734287189    0.2513283901155508    0.2462325875054206    0.2456003751434034    
  0.24972113094978673    0.2585015641620343    0.2714043874309455    0.28733424413749925    0.30453624720412914    
  0.32072430692091514    0.33364901729051255    0.3419586525833926    0.34579601482109024    0.3466340501650591    
  0.34639741352811126    0.34639405055378064    0.3466240963092194    0.345779881066523    0.34193703755532423    
  0.3336228923094627    0.3206948188125131    0.3045045291997278    0.2873012183736222    0.2713706681318448    
  0.2584674902243044    0.24968686676257545    0.24556600677804127    0.24556600710025625    0.24968686673807808    
  0.2584674898490204    0.27137066738825794    0.2873012172905488    0.3045045279232578    0.32069481762091395    
  0.3336228914954452    0.3419370371983006    0.3457798808848153    0.3466240957837404    0.3463940492444024    
  0.34639741127778195    0.34663404702844    0.3457960108690763    0.34195864782316604    0.33364901177020995    
  0.32072430090412973    0.3045362412462998    0.28733423895958154    0.2714043836343072    0.2585015619990623    
  0.24972113036618696    0.2456003760377093    0.24623258989166136    0.2513283939920899    0.2602233785246062    
  0.2718351355673508    0.2846490606869399    0.2969001311589176    0.3070202566225673    0.3141464906440882    
  0.3183340662691558    0.32029739053662515    0.3208361587429138    0.3202901258246759    0.31831995814210234    
  0.3141263153106329    0.30699505530252    0.29687110624628843    0.28461742802881823    0.2718019471707775    
  0.26018939742266833    0.25129408290196514    0.2461981900883043    0.24556600710025625    0.2387796502260222    
  0.24619966505975607    0.25846900267879236    0.2752261163460724    0.29543253721849766    0.317147567513794    
  0.33751347849112523    0.35334994885859905    0.36241410423693937    0.3646224867248763    0.36224053355362484    
  0.3587668644948669    0.3572201935826265    0.3587723540891021    0.3622514714093071    0.36463868777494673    
  0.36243510665575757    0.35337496577958993    0.33754150987555953    0.31717762541697675    0.29546384566609124    
  0.27525818190222456    0.25850156293507315    0.24623258931404682    0.23881285046015518    0.23612338920471254    
  0.23769764890357542    0.24278808138102695    0.25036791436522776    0.2591551347022582    0.26778548581617556    
  0.275128061833641    0.28055364458671694    0.2839620290910461    0.28556063926471065    0.2855569754182301    
  0.2839512817098993    0.2805364877192647    0.2751054727006345    0.26775862045357474    0.25912520607823974    
  0.25033604713286967    0.24275517723665335    0.23766432882708688    0.23609002668978013    0.2387796502260222    
  0.2258932300091326    0.23609283445733487    0.25129847577793374    0.2713752527796642    0.2954357248461049    
  0.3214865515921576    0.34619681251339307    0.3653469271904623    0.37537639933967826    0.37540117849000826    
  0.36812870832401884    0.3587318615744858    0.35245216906284743    0.35245404871842806    0.3587376100417301    
  0.3681385676598446    0.3754153073555681    0.37539465265556177    0.36536878125783573    0.3462214919441987    
  0.3215132638018542    0.2954638466342751    0.2714043855467628    0.2513283928752957    0.2361233886882255    
  0.2259242690747527    0.22039009407667667    0.21890405397375076    0.2206774386227355    0.22476138624486955    
  0.23007164165892863    0.23553109725505741    0.24028461927732186    0.243828472046601    0.24596913064051112    
  0.24667816114012078    0.24596226267575175    0.24381519095955811    0.2402657316953213    0.23550763076135803    
  0.23004472796168218    0.22473213950203574    0.22064683077767644    0.21887283604633867    0.22035879231430347    
  0.2258932300091326    0.20813913204825482    0.220362664756123    0.2376711831450792    0.26019812225086153    
  0.28731045488714174    0.3171556526922228    0.34620180373815657    0.3693600835639498    0.3815211488124005    
  0.3803060072859142    0.36808728537061897    0.35130851298308197    0.3374981483003808    0.33223057379355964    
  0.3374999838614608    0.3513125426241144    0.3680940744737177    0.38031606867530365    0.3815346952308636    
  0.36937693517556985    0.3462214927394221    0.3171776272405198    0.28733424178355516    0.2602233770974851    
  0.23769764808555852    0.22039009373934623    0.208167229451761    0.20047536449929823    0.19658942208606683    
  0.1957197542268855    0.19700427926747321    0.19952128888747264    0.2024063822246935    0.20499842121603745    
  0.2068911123854516    0.20787778881291738    0.20787463991004407    0.2068818743912848    0.20498367404040121    
  0.20238697287414015    0.1994982192888969    0.19697859193576167    0.19569241595724374    0.19656124243330908    