#     DFTpy    
  CRYSTAL 
    
  PRIMVEC    
  4.541903980957751    1.9001643170000003e-05    -4.800000000000001e-13    
  -2.2709355345722204    3.933413843624571    -9.320000000000001e-12    
  -7.800000000000001e-13    -1.8150000000000003e-11    7.467595857409382    
  PRIMCOORD    
  4    1    
  Si    1.1306545160000001e-05    2.6222820438509302    4.199580484444721    
  Si    2.2709571398350508    1.3111508013846402    0.4657825005975601    
  Si    1.1306546870000002e-05    2.6222820438498404    7.001813301665691    
  Si    2.2709571398424204    1.3111508014137705    3.2680154280911906    
  BEGIN_BLOCK_DATAGRID_3D    
  3d_datagrid_density    
  BEGIN_DATAGRID_3D#0    
  46    46    73    
  0.0    0.0    0.0    
  4.54190399789914    1.9001643240876494e-05    -4.800000017904092e-13    
  -2.270935543042853    3.9334138582962797    -9.320000034763779e-12    
  -7.800000029094151e-13    -1.815000006769985e-11    7.467595885263656    
  0.01353304467731747    0.0138058185549557    0.014639845203167239    0.016085874656419714    0.018236018113347494    
  0.02122542746279271    0.025229839085170624    0.030466998331597123    0.03720524531263911    0.0457686882459316    
  0.056521583743537135    0.06982473165420222    0.08597399517176409    0.10513603050109077    0.1272835639648782    
  0.15212040775571037    0.17899723505971007    0.20684909067479018    0.23420332736379018    0.2592885469817325    
  0.2802341351275183    0.2953190513314497    0.30322114373164905    0.30322114283138446    0.29531904895431693    
  0.28023413205595066    0.2592885440429932    0.23420332509426703    0.2068490892392647    0.178997234371712    
  0.15212040764201423    0.12728356426989376    0.10513603111360738    0.08597399600146342    0.06982473260080296    
  0.05652158469991908    0.04576868914107584    0.0372052461488108    0.0304669991675304    0.025229839974975868    
  0.021225428404750946    0.018236019043428874    0.01608587547614105    0.014639845813572567    0.013805818880303217    
  0.01353304467731747    0.013805818782310611    0.013805818188712186    0.014359188122688615    0.015499096904242358    
  0.017297236132437166    0.01986791515159567    0.023367458246578078    0.02799403542412459    0.03399390836384247    
  0.041669246207973396    0.05137213498607196    0.06347304891096153    0.07830756157661821    0.09611518701412712    
  0.11697720446101792    0.1407460158011303    0.1669598261046406    0.19476101055112865    0.22286272755314768    
  0.24960651250879465    0.2731205864572232    0.2915512288519248    0.30332157983813945    0.30737023438644284    
  0.30332242998319253    0.2915528522770082    0.2731228334894426    0.24960918054747794    0.22286560125954943    
  0.19476390457307982    0.16696260345540317    0.14074857681158992    0.11697947050325042    0.09611710225167967    
  0.07830910681470242    0.06347424437834735    0.05137302458769517    0.04166987904586515    0.033994332664316    
  0.027994301021933243    0.02336761479561451    0.019868003627540494    0.017297283047632814    0.015499117612055083    
  0.014359193988338646    0.013805818782310611    0.014639845649925511    0.01435918834579964    0.014639849383343489    
  0.01549910862052642    0.016991073072547623    0.0192105284181208    0.022294610252309045    0.02642431366560646    
  0.031830491857070146    0.038801638583172225    0.047681211694529074    0.0588436718055481    0.07265092397179558    
  0.08939983605151937    0.1092658244924404    0.13223477952464302    0.15801522359139134    0.18594293718852792    
  0.2149162666948509    0.24340719468581756    0.2695721388160809    0.29145291543344326    0.3072337351919768    
  0.3155089740442038    0.3155098328269696    0.307236237144973    0.2914568390070777    0.269577133543984    
  0.24341283637376213    0.21492214010676314    0.1859487016384658    0.1580206263817097    0.13223963376225487    
  0.10926999742757719    0.0894032636391643    0.07265362194434861    0.05884571576437218    0.047682699516474254    
  0.03880266747076059    0.03183115800331816    0.026424714548057227    0.022294834554395074    0.019210642452215113    
  0.016991119585685294    0.015499117527081075    0.014639845649925511    0.01608587530748412    0.015499097336999466    
  0.015499108830694164    0.016085896159176157    0.01729727796750349    0.01921056450303419    0.02194458390665028    
  0.02566327685097981    0.030583406617605644    0.036983212813035134    0.04520127680054031    0.05561677423605526    
  0.06861359256280047    0.08453723787239781    0.10364555824999874    0.1260423080976924    0.15158515872493397    
  0.17978031097119454    0.20969798806528053    0.23994938155605253    0.2687532492489465    0.29409789764964384    
  0.3139808347946579    0.32668830130511894    0.33106163640849745    0.3266908499960311    0.31398571712646833    
  0.2941046928230588    0.26876137645741127    0.23995819562957313    0.2097068908513046    0.1797888207844539    
  0.15159291929696794    0.1260490749517976    0.10365120096873465    0.08454174755978436    0.06861706069713107    
  0.055619342722993875    0.04520309515037512    0.03698442570973737    0.030584157150403482    0.025663700715324422    
  0.021944793789595775    0.019210642388795215    0.017297282919397656    0.01608587530748412    0.01823601894860641    
  0.017297236753441976    0.016991073468417408    0.01729727814942743    0.018236069710072265    0.019868006705055175    
  0.02229471430530901    0.02566335963474462    0.030176407549149117    0.03610185574280341    0.04377344165911275    
  0.05357413989868568    0.0659073872096799    0.08116381004567326    0.09967915196481823    0.12166677090050167    
  0.14711652212503462    0.17567781027897666    0.20656309770226008    0.23850621847326292    0.26979916423284594    
  0.2984218044564703    0.3222622666002612    0.339394976022344    0.3483564016417731    0.34835812257537474    
  0.3393999974385751    0.3222701687924321    0.2984319200838354    0.26981066340393495    0.23851824097885965    
  0.20657487912491865    0.1756887518587532    0.14712620702256646    0.12167496320789851    0.09968579136101195    
  0.08116898270836041    0.06591126685041324    0.0535769283475787    0.04377533928052734    0.036103057211827765    
  0.0301770978444374    0.025663700670540465    0.022294834467987874    0.019868003517024127    0.01823601894860641    
  0.02122542846120985    0.01986791593549599    0.01921052896802067    0.01921056482805092    0.019868006840781133    
  0.021225524610968893    0.023367634721277532    0.026424546959783544    0.030583658909443714    0.03610204796088624    
  0.04330766060492241    0.052584328207907635    0.06434912233428298    0.07903060887026982    0.0970371766175452    
  0.11868889401919165    0.1441018217006001    0.17305120261701767    0.20485982722763363    0.23834488826336617    
  0.2718406760471704    0.3033171929575767    0.33060650536329844    0.35169832218890246    0.36501165254002016    
  0.3695612368343305    0.3650159142925576    0.3517064945096338    0.33061790502473104    0.3033308712061635    
  0.27185554902342857    0.23835990050278133    0.20487408732696638    0.1730640552513961    0.1441128668274246    
  0.11869797522804622    0.09704434092263613    0.07903603851101455    0.06435306217397918    0.05258703847226434    
  0.04330939832845698    0.036103057160726475    0.030584157078848002    0.02642471447976501    0.023367614764317837    
  0.02122542846120985    0.02522984022954478    0.02336745917038471    0.022294610925512742    0.02194458433562301    
  0.022294714529072994    0.02336763480072762    0.025230017531376818    0.027994366617339696    0.03183095711716348    
  0.036983763407174006    0.0437739764139847    0.052584692306750405    0.06384038742141206    0.07799540458711286    
  0.09551702417026728    0.11682318340930833    0.14215338599265104    0.17140394390445465    0.20398825058070524    
  0.23876324195834123    0.2740402715557483    0.3077128399280948    0.3375346173468683    0.3614968719111737    
  0.37813852841644124    0.38662836565130554    0.3866309198986664    0.3781459866293353    0.3615086256848118    
  0.33754969151963515    0.3077299994814966    0.2740581995142233    0.23878073402222766    0.2040043585749576    
  0.17141803964605512    0.1421651591651075    0.11683259473616711    0.09552422938724457    0.07800067128606662    
  0.06384403083516414    0.052587038359944625    0.043775339144511476    0.036984425603663246    0.031831157968683466    
  0.027994301104233486    0.02522984022954478    0.03046699960867765    0.027994036470647965    0.02642431443952341    
  0.02566327735521372    0.025663359911353684    0.026424547076597246    0.027994366647477124    0.03046732475834103    
  0.03399449738274175    0.038802467671936514    0.04520227959954862    0.05357519310549836    0.06435005240888382    
  0.0779959985287197    0.09502017817840716    0.11591923441162612    0.1410455893891283    0.17041437777956694    
  0.20352242717356722    0.2392334000668512    0.2757590110360105    0.31079772009033246    0.3419077822998859    
  0.36705939114868363    0.38508933348456914    0.39573985595831435    0.399238812253707    0.3957455391868345    
  0.3851002777744133    0.36707474171451093    0.34192629222670673    0.3108178968065925    0.275779349334706    
  0.23925261267220754    0.2035395879682405    0.17042895593832433    0.14105740498657998    0.11592837511103489    
  0.09502690645524757    0.07800067103873465    0.06435306184362634    0.05357692804913884    0.045203094957641826    
  0.03880266743826861    0.03399433284276872    0.03046699960867765    0.03720524670297948    0.033993909514913906    
  0.031830492714927314    0.030583407180766863    0.03017640786131872    0.03058365904387716    0.03183095715396882    
  0.03399449738497891    0.03720581108343666    0.04167021732441402    0.04768255622355641    0.0556184075988629    
  0.06590916882402524    0.07903235084249369    0.09551849289105137    0.11592014009805611    0.14068440664994597    
  0.16993915258876197    0.20326509186904868    0.23951785353498514    0.2767466946005794    0.312318860632074    
  0.3434054880758656    0.36779849239361667    0.38465096707718693    0.394588280235011    0.3990121897213293    
  0.3990152206655644    0.39459719559238243    0.38466519208249883    0.36781698751417413    0.34342678023571177    
  0.31234124189132534    0.2767685267483782    0.23953783517766797    0.2032823848296327    0.169953368756797    
  0.1406955190058432    0.1159283746830558    0.09552422873766925    0.07903603783318384    0.06591126628389846    
  0.0556193423576566    0.04768269941317065    0.04166987925188896    0.03720524670297948    0.04576868970811791    
  0.04166924742942725    0.038801639501203654    0.03698321342108562    0.0361018560835007    0.036102048109650994    
  0.03698376344829899    0.038802467673177035    0.04167021732172891    0.04576960771164204    0.05137364053478384    
  0.05884572022304954    0.06861608210528056    0.0811665852584943    0.09704003313237605    0.1168258573356014    
  0.14104774689907273    0.1699404136832758    0.2031784724131942    0.23962277881341185    0.27714074853434345    
  0.3126640636321551    0.34276056816456174    0.36477322685526514    0.3779910913274169    0.383985304133857    
  0.385719842822351    0.38593490073577136    0.3857258455559752    0.3839970640042267    0.3780079701993959    
  0.36479405059179904    0.3427836690577648    0.31268756214423427    0.2771629398784823    0.23964242079913606    
  0.20319487402753125    0.16995336819682863    0.1410574040122064    0.11683259358018012    0.09704433980732458    
  0.08116898179600446    0.06861706008891406    0.058845715519634086    0.05137302474058979    0.04576868970811791    
  0.056521585210196686    0.0513721362210979    0.04768121263300439    0.04520127743177691    0.04377344202157803    
  0.04330766077149905    0.04377397646868928    0.04520227961158426    0.04768255623067075    0.0513736405445333    
  0.05652301224639924    0.06347529198098405    0.07265392062910346    0.08454086461547905    0.0996832343641693    
  0.11869320080446895    0.14215760478259828    0.17041811354441933    0.20326791905830346    0.2396243208089175    
  0.2772270581355078    0.31256091074025427    0.3414265129208826    0.36038974422495507    0.3685104550758409    
  0.36808811743396835    0.36368847688601086    0.3600391196257401    0.36004196254716125    0.3636969723531282    
  0.36810204415395464    0.3685291358142871    0.3604118637657697    0.3414502256671607    0.3125842317900807    
  0.2772483137661379    0.23964242027275012    0.20328238373888177    0.1704289544431147    0.14216515752630848    
  0.1186979736969079    0.09968579011995478    0.08454174671616102    0.07265362154838177    0.06347424444217485    
  0.056521585210196686    0.06982473305061716    0.06347305009534504    0.0588436727186399    0.05561677486644986    
  0.053574140279356156    0.05258432840483661    0.05258469239842662    0.05357519315796775    0.055618407648412665    
  0.058845720276308904    0.063475292024782    0.06982688136633973    0.07831079809694927    0.08940406608567258    
  0.10365062852393642    0.12167248023864423    0.14410789466342955    0.1714099961642846    0.2035279857537323    
  0.23952243876567522    0.2771439599565023    0.312562502042708    0.3407941584433799    0.3573338630035885    
  0.3605024333823024    0.3528437013761549    0.3402545560741083    0.329403457924743    0.32520113859877436    
  0.32940862267516646    0.3402649117934229    0.3528590398194847    0.36052197314686546    0.3573561095434805    
  0.34081713247451945    0.31258423148563286    0.2771629390454748    0.2395378337650422    0.2035395861453072    
  0.1714180377015181    0.14411286504054557    0.12167496177715026    0.10365120000162219    0.08940326317039023    
  0.07830910682860966    0.06982473305061716    0.08597399644092302    0.07830756266337874    0.0726509248283895    
  0.06861359318199908    0.06590738762095162    0.0643491225952985    0.06384038760113822    0.0643500525650677    
  0.06590916898659312    0.06861608227617098    0.07265392079196531    0.07831079821595788    0.08597712425744733    
  0.09611969760594216    0.10927157702187307    0.12604911414000766    0.1471241412273467    0.17305928887227356    
  0.20399632098159465    0.2392408869121529    0.2767530443900452    0.3126688180130121    0.34142940970823465    
  0.35733501240996174    0.35740258391080976    0.34366861619723704    0.3228061997238988    0.30316755867172    
  0.29155986395555217    0.2915621418676169    0.30317446223016437    0.32281779036129266    0.34368459169250387    
  0.35742195953066075    0.3573561094313137    0.34145022530975566    0.3126875613023955    0.27676852532866025    
  0.23925261082810068    0.2040043566108336    0.17306405346861947    0.1471262056290062    0.12604907404777574    
  0.10926999702728382    0.09611710231034057    0.08597399644092302    0.10513603160596098    0.09611518797874237    
  0.08939983684106388    0.08453723848783935    0.08116381051765426    0.07903060925117977    0.07799540493615797    
  0.07799599889162649    0.07903235123688254    0.08116658567538887    0.0845408650303327    0.08940406645782543    
  0.09611969785850462    0.10514042061541183    0.11698327064945407    0.13224232928807234    0.15159396033865213    
  0.1756875571360477    0.20487006536028998    0.23877336112871875    0.27576832514446653    0.31232670292534387    
  0.3427663818795995    0.3603932597166876    0.36050390282312855    0.34366883894673733    0.31640778175968876    
  0.2883026222934176    0.26794348569646265    0.2605980404246104    0.26794747243660644    0.28831072053796347    
  0.3164199730738727    0.3436845914572563    0.3605219728938906    0.3604118634456932    0.3427836684203938    
  0.312341240762133    0.27577934779728464    0.23878073235792585    0.20487408583943859    0.17568875075387264    
  0.15159291865958338    0.13223963358259652    0.1169794707104796    0.10513603160596098    0.12728356486097153    
  0.1169772052768034    0.10926582520339406    0.10364555886662032    0.09967915252382983    0.09703717717235809    
  0.09551702477500304    0.0950201788671109    0.09551849366433406    0.09704003396243172    0.09968323521003268    
  0.10365062933351389    0.10927157771193813    0.11698327108495743    0.1272895126950924    0.14075391831212752    
  0.15802482725217615    0.1797913159358076    0.2065750862274468    0.23835725705011787    0.2740522565119338    
  0.3108084850355543    0.3434142150428369    0.3647792713974214    0.36851363902879924    0.3528445410372883    
  0.3228057451463577    0.28830198195671997    0.259535619962686    0.24355017370169157    0.24355187835937347    
  0.25954080425181375    0.2883107200190603    0.32281778962564056    0.3528590391960961    0.3685291353995254    
  0.3647940501850063    0.3434267795772953    0.31081789584750863    0.2740581984435489    0.2383598995826104    
  0.20657487853845763    0.17978882059227638    0.1580206265488543    0.14074857724751608    0.12728356486097153    
  0.15212040835742044    0.14074601640446255    0.13223478011061277    0.1260423086848567    0.12166677153458594    
  0.11868889476120058    0.11682318431638392    0.11591923551208619    0.11592014137565632    0.11682585873730131    
  0.11869320226266801    0.12167248167948862    0.12604911546546052    0.132242330354604    0.14075391893684566    
  0.15212822209825283    0.16696983078712482    0.18595479922845148    0.20971129560096127    0.23852039387009483    
  0.2718549372642741    0.30772625034495477    0.34191933286976167    0.3678072257088646    0.37799638170903604    
  0.36809004267126777    0.34025398912804694    0.30316577091225466    0.2679416064164518    0.24354896905169615    
  0.2349342537086603    0.24355187773124262    0.26794747127213836    0.30317446082874877    0.3402649105810867    
  0.36810204342195485    0.3780079698987901    0.3678169873655172    0.3419262920233204    0.30772999924331923    
  0.2718555489038473    0.23851824110403985    0.20970689124715516    0.1859487022463003    0.16696260417336461    
  0.15212040835742044    0.1789972352306972    0.16695982637953574    0.15801522395185222    0.1515851591942533    
  0.14711652275822182    0.14410182257065732    0.14215338716809667    0.1410455909028772    0.14068440847649272    
  0.14104774896029532    0.14215760697626786    0.1441078968813633    0.1471241433437766    0.15159396219032908    
  0.15802482864526907    0.16696983153952943    0.17900719228913117    0.19477331223700572    0.2149304656059154    
  0.239964907166438    0.2698152485921225    0.303332868031773    0.33754877120201204    0.3670708570061395    
  0.3846587394067129    0.38398894386010674    0.3636884405457763    0.32940094997912245    0.29155626701143145    
  0.26059443533940296    0.24354896847952132    0.24355017252263447    0.26059803870716924    0.2915621398742062    
  0.3294086208704091    0.3636969712041177    0.3839970636854263    0.38466519240228203    0.3670747423516625    
  0.3375496922830668    0.30333087207173504    0.2698106643957506    0.23995819672495444    0.214922141226347    
  0.19476390561268364    0.1789972352306972    0.20684909026265452    0.19476101035589716    0.18594293718815177    
  0.17978031118942372    0.17567781077804173    0.17305120348328806    0.1714039452236052    0.17041437959995892    
  0.1699391548893009    0.16994041637110677    0.17041811648366723    0.17140999920309333    0.17305929184161511    
  0.17568755983623957    0.17979131814707242    0.1859548007577247    0.1947733129818443    0.2068613743748508    
  0.2228773793445382    0.24342361683246908    0.2687706839786164    0.298439292879706    0.330622908614762    
  0.3615109260522231    0.38509978434075165    0.3945942182908022    0.3857211510441488    0.36003663298963234    
  0.32519626699387205    0.29155626653403927    0.26794160541505196    0.2595356184303125    0.2679434836817605    
  0.29155986166179765    0.32520113646089943    0.3600419611267594    0.3857258452387253    0.39459719635431206    
  0.38510027926966744    0.36150862753291896    0.33061790698792987    0.2984319220439369    0.26876137832664626    
  0.2434128380540758    0.22286560265200145    0.20684909026265452    0.23420332628670312    0.22286272680105548    
  0.21491626623786605    0.2096979879225598    0.20656309793885302    0.20485982794094595    0.2039882518744183    
  0.20352242911760618    0.20326509446007243    0.20317847556190888    0.20326792261056092    0.20352798951811102    
  0.20399632473637405    0.20487006885090447    0.20657508918732392    0.2097112978075513    0.2149304669524475    
  0.22287737989552125    0.23421797825366633    0.2496233837204042    0.26959045793887965    0.2941167209482143    
  0.3222804712464541    0.3517146336724413    0.3781515875536154    0.3957484330502489    0.39901560246234297    
  0.38593338897468304    0.36003663268240377    0.32940094922424196    0.3031657697149958    0.2883019803518653    
  0.28830262032495324    0.30316755648242383    0.3294034558741189    0.3600391182755493    0.385934900601811    
  0.39901522189937066    0.3957455415015429    0.3781459895298105    0.35170649756362127    0.32227017172510625    
  0.2941046954688835    0.2695771357851946    0.24960918229398582    0.23420332628670312    0.25928854534576334    
  0.2496065112857865    0.24340719383426554    0.23994938108422817    0.2385062184413105    0.23834488877160268    
  0.23876324312069466    0.2392334019696267    0.23951785619525534    0.2396227821611993    0.2396243246989571    
  0.23952244299445513    0.2392408912197277    0.2387733652014913    0.23835726055651105    0.23852039653480536    
  0.23996490885731056    0.24342361762383202    0.24962338389968358    0.25930543830003333    0.2731393522143729    
  0.2914726100014943    0.3140003607042082    0.33941309327477137    0.36502700498379376    0.38663958403207377    
  0.39924480681248053    0.39901560253056867    0.38572115082439445    0.36368843990744354    0.34025398811181956    
  0.32280574383373023    0.3164077802101024    0.32280619803690885    0.34025455452201053    0.3636884759663918    
  0.385719843086805    0.3990121914481339    0.39923881525737187    0.3866309236597898    0.36501591825174157    
  0.33940000118718716    0.31398572042090267    0.29145684170675396    0.273122835511105    0.25928854534576334    
  0.2802341333007012    0.2731205851043002    0.2695721378828147    0.2687532487250601    0.2697991641608095    
  0.271840676512903    0.27404027266179315    0.27575901286115073    0.2767466971631604    0.2771407517813964    
  0.27722706195514846    0.27714396418170506    0.2767530487773367    0.27576832935988016    0.2740522601699295    
  0.27185494002386246    0.269815250270835    0.26877068463497517    0.2695904578834628    0.27313935193004785    
  0.2802529537886577    0.2915713770713465    0.3072541278718594    0.3267077416979011    0.3483735903937672    
  0.3695748054371287    0.3866395845622097    0.39574843370924007    0.39459421873117206    0.38398894391953114    
  0.36809004236864984    0.3528445404643388    0.34366883817801497    0.3436686153122463    0.3528437005791909    
  0.3680881171419342    0.3839853048739614    0.3945882823534164    0.3957398593756717    0.3866283698970553    
  0.3695612413079668    0.3483581267865856    0.3266908536388678    0.30723624005419065    0.29155285436944167    
  0.2802341333007012    0.2953190498764954    0.29155122790956006    0.2914529149423449    0.2940978975741291    
  0.2984218048028958    0.3033171937683548    0.3077128412549583    0.31079772195738076    0.31231886301233736    
  0.31266406645902617    0.31256091393892227    0.3125625055317518    0.3126688216525241    0.3123267064588487    
  0.3108084880990897    0.3077262525651822    0.3033328691687085    0.2984392929446899    0.29411672023786556    
  0.2914726090184069    0.2915713763609612    0.2953392912909798    0.30334244311311465    0.3155292935676633    
  0.33108017850666727    0.3483735912146603    0.36502700639979646    0.3781515892303443    0.38509978594459787    
  0.38465874071822387    0.3779963826584112    0.36851363964097855    0.360503903142882    0.3574025839987213    
  0.3605024334034531    0.36851045538799093    0.3779910924209252    0.38465096933116055    0.38508933691538777    
  0.3781385326460718    0.36501165700121924    0.34835640582307986    0.33106163996882015    0.31550983557900886    
  0.30332243183617136    0.2953190498764954    0.30322114317461574    0.3033215798207234    0.30723373565994727    
  0.3139808356862317    0.3222622678656159    0.33060650696235794    0.3375346192247807    0.3419077843586119    
  0.3434054901749482    0.34276057017116623    0.34142651477784886    0.3407941601830992    0.3414294113764889    
  0.3427663834234467    0.34341421625883717    0.34191933346243897    0.3375487709259675    0.3306229074267129    
  0.32228046938392696    0.31400035863452336    0.30725412612777264    0.30334244211885897    0.30324213903931163    
  0.3073910551501583    0.31552929447663575    0.32670774345139364    0.3394130957057304    0.351714636515533    
  0.36151092900583864    0.3670708598087916    0.3678072281828817    0.3647792734437384    0.3603932612879516    
  0.3573350135166255    0.35733386377960075    0.36038974499493837    0.36477322808614077    0.3677984944872925    
  0.36705939420560785    0.3614968756627934    0.3516983261479061    0.3393949797055471    0.3266883043657753    
  0.3155089762809388    0.3073702356969136    0.30322114317461574    0.3032211433884176    0.3073702355032221    
  0.31550897569115566    0.3266883034049085    0.33939497845809646    0.35169832480043034    0.36149687447530343    
  0.3670593933686931    0.3677984939405103    0.364773227475647    0.36038974385816164    0.3573338618093032    
  0.3573350106672154    0.3603932576638641    0.3647792691221392    0.3678072231453985    0.36707085403169887    
  0.36151092263213297    0.3517146299749297    0.3394130896727468    0.32670773863945374    0.31552929140579544    
  0.30739105405883205    0.3032421399556579    0.3033424449314238    0.30725413054013617    0.3140003640946155    
  0.3222804751476064    0.3306229127641194    0.33754877532910493    0.34191933672643887    0.34341421841891234    
  0.3427663846179604    0.34142941174163605    0.34079415986018186    0.34142651401521507    0.34276056938493493    
  0.34340548983971053    0.3419077847763353    0.3375346203727233    0.33060650854888735    0.3222622695200071    
  0.31398083712015074    0.30723373671945853    0.30332158045626717    0.3032211433884176    0.2953190504092711    
  0.30332243200384784    0.315509835419245    0.3310616394998317    0.34835640505916904    0.3650116559884937    
  0.37813853145921184    0.3850893355586468    0.3846509675958571    0.3779910898723991    0.36851045157882095    
  0.3605024281556356    0.3574025774950806    0.3605038957689425    0.36851363175177976    0.3779963744592019    
  0.3846587323179846    0.38509977752189534    0.3781515811805531    0.36502699933008315    0.3483735857579004    
  0.3310801750884747    0.3155292923147679    0.30334244393716814    0.29533929398722825    0.29157138058641785    
  0.2914726142190615    0.29411672568295927    0.2984392978964893    0.3033328730718109    0.30772625514253743    
  0.31080848933249905    0.31232670649988203    0.3126688207351255    0.3125625039484697    0.312560912079547    
  0.3126640648197319    0.31231886208048365    0.3107977220120161    0.307712842245018    0.30331719537322027    
  0.2984218066130843    0.2940978992522524    0.2914529162882342    0.29155122884687007    0.2953190504092711    
  0.2802341338827678    0.29155285464751685    0.30723624009866823    0.3266908534859889    0.3483581264080947    
  0.36956124060976153    0.38662836872215406    0.3957398574632454    0.39458827927389506    0.3839853000753431    
  0.3680881101938836    0.3528436914539776    0.34366860443428615    0.34366882620357875    0.3528445280082492    
  0.3680900298759673    0.3839889317126875    0.394594207156007    0.3957484232598901    0.38663957586089653    
  0.3695747990423674    0.3483735865787934    0.32670774039294614    0.30725412879604924    0.2915713798760325    
  0.28025295805935024    0.27313935710752213    0.2695904632677172    0.26877068951803146    0.2698152541004505    
  0.27185494249472947    0.2740522612201061    0.27576832911020505    0.2767530474680413    0.27714396214880804    
  0.27722705964206534    0.2771407497168685    0.27674669583981426    0.2757590125564896    0.2740402733360764    
  0.27184067786688526    0.26979916579913976    0.2687532503068829    0.26957213919182405    0.27312058604869055    
  0.2802341338827678    0.25928854567896237    0.27312283561040396    0.2914568416755767    0.3139857203332778    
  0.339400001016771    0.3650159178125159    0.3866309225781436    0.39923881297035346    0.3990121872360876    
  0.3857198362164282    0.36368846598923654    0.3402545415567943    0.322806182760806    0.3164077635451467    
  0.3228057266122072    0.34025397095699617    0.36368842332690626    0.38572113538309266    0.399015588955386    
  0.39924479590468487    0.3866395763910324    0.3650270007460856    0.3394130921037056    0.3140003620249306    
  0.29147261323597407    0.27313935682319695    0.25930544369395964    0.2496233894080021    0.24342362258866523    
  0.2399649127694015    0.23852039911071116    0.2383572617325962    0.23877336507903923    0.23924089001159027    
  0.23952244100998044    0.23962432235766018    0.23962277996954093    0.2395178546305138    0.2392334013138636    
  0.23876324336582744    0.2383448896669189    0.2385062196359558    0.23994938226351104    0.24340719479031334    
  0.24960651192739142    0.25928854567896237    0.23420332617135417    0.24960918201748816    0.26957713548293494    