#     DFTpy    
  CRYSTAL 
    
  PRIMVEC    
  3.1241998481732502    1.307049443e-05    -3.3000000000000006e-13    
  -1.5620886047057505    2.7056430485047605    -6.410000000000001e-12    
  -5.400000000000001e-13    -1.2480000000000002e-11    5.136669982842291    
  PRIMCOORD    
  4    1    
  Si    7.777334530000001e-06    1.8037662613772305    2.8887287725371205    
  Si    1.5621034661293103    0.9018898575998403    0.3203937431856101    
  Si    7.777335710000001e-06    1.8037662613764807    4.8162762017238006    
  Si    1.5621034661343802    0.9018898576198803    2.24794124822458    
  BEGIN_BLOCK_DATAGRID_3D    
  3d_datagrid_density    
  BEGIN_DATAGRID_3D#0    
  31    31    49    
  0.0    0.0    0.0    
  3.124199859826575    1.3070494478753195e-05    -3.3000000123090635e-13    
  -1.5620886105323708    2.7056430585968605    -6.410000023909424e-12    
  -5.400000020142105e-13    -1.2480000046550641e-11    5.136670002002168    
  0.13678479534072774    0.1411261853203942    0.15427147312183417    0.17660981838416956    0.2088278761409558    
  0.25183546148114194    0.3064940247577199    0.3731196629457381    0.4508293146387653    0.5369341679848831    
  0.6266956652485736    0.7136956276523658    0.790781679417639    0.8512340694764011    0.8897362717421708    
  0.9029474206677818    0.8897362769183405    0.8512340785078056    0.7907816903557093    0.7136956387149027    
  0.6266956752088343    0.5369341761516712    0.45082932069318987    0.3731196668133714    0.3064940265474791    
  0.25183546148041397    0.20882787484055906    0.17660981646030302    0.1542714713140079    0.1411261842451621    
  0.13678479534072774    0.14112618335617597    0.14112526923627955    0.14986610427814326    0.16759529917616567    
  0.19483487281897444    0.2323537722423503    0.28098791613643803    0.3412614128274614    0.41281474130554097    
  0.4937471500314174    0.5801599419221783    0.6662783547288129    0.7453009643511516    0.8106581177092469    
  0.8570863271713475    0.8811284962474187    0.8811304520393298    0.8570921151858844    0.8106674570107583    
  0.7453132930644487    0.6662928232905857    0.5801755339034417    0.493762852552463    0.4128296539588961    
  0.3412747966919292    0.2809992530955681    0.23236282638119335    0.19484166993724583    0.16760000187546895    
  0.1498688698370405    0.14112618335617597    0.1542714694326024    0.14986610256784483    0.15426785569557894    
  0.16759270905074636    0.19019526670306378    0.2226372589477392    0.2655378911390993    0.3192816673515345    
  0.3835706397069501    0.45681303386931255    0.5355417032199189    0.6143668946812387    0.6868904620781628    
  0.7473140934005007    0.7917801403249862    0.8186179438022994    0.8275462848717811    0.8186251170312753    
  0.7917943254872764    0.7473347263739285    0.686916326090609    0.6143961461624654    0.5355722128370003    
  0.4568427911457309    0.38359799976359893    0.31930546099779444    0.2655574854326576    0.22265252851853384    
  0.19020641196105884    0.1676000008433999    0.1542714694326024    0.17660981343298895    0.16759529624383285    
  0.1675927078552199    0.17660202524519866    0.1948285729995718    0.22263388688014274    0.2603758737936018    
  0.308134608387249    0.36534195053907553    0.4302514396306907    0.49931949631289624    0.5670550334358505    
  0.627073680583867    0.6742501036223287    0.7066077202305254    0.7254752389072788    0.7337928667918103    
  0.7337975885883832    0.725489458157714    0.7066313361017877    0.6742822764885501    0.6271124284795895    
  0.56709741934437    0.4993623050772944    0.4302918644004737    0.36537796700130704    0.3081650579217405    
  0.2604003608344723    0.2226525272679512    0.1948416676849503    0.17660981343298895    0.20882787056113933    
  0.19483486933148753    0.1901952650201535    0.19482857255398314    0.20881519258618247    0.23234356612961174    
  0.26553134521997773    0.3081317723142728    0.35917197198373657    0.4164587338291138    0.47594016328857724    
  0.5314957236282751    0.576186047361128    0.6050866824147424    0.6179366280233731    0.6193440873202338    
  0.616251211696172    0.6144831657856128    0.6162618396925177    0.6193656443667309    0.6179690737314371    
  0.6051287810755508    0.5762349851570862    0.5315475857099878    0.4759909571888225    0.41650528721008007    
  0.3592123166558066    0.30816505649780923    0.26555748277395586    0.23236282277257392    0.20882787056113933    
  0.2518354559830234    0.23235376893693993    0.22263725756191685    0.22263388682842644    0.23234356658006064    
  0.2518181761570969    0.2809745473360718    0.31927299036610807    0.3653375986015496    0.4164575026112972    
  0.46788973994562066    0.5125368809763808    0.5423532505226513    0.551965535693965    0.5423277623777851    
  0.5210715503286194    0.4989647662329541    0.48535535938739593    0.4853606687680202    0.49898099739215    
  0.5210992509153166    0.5423668090855467    0.552014209502223    0.5424080254523322    0.5125932090691107    
  0.4679433305917274    0.41650528576027357    0.3653779641297107    0.319305456915083    0.28099924813396326    
  0.2518354559830234    0.30649402002974085    0.280987913699407    0.265537890768313    0.2603758749087735    
  0.2655313469605538    0.28097454869664035    0.30647340022180175    0.3412464740530496    0.3835616838375268    
  0.4302476845055644    0.47593997657998255    0.5125379623424927    0.5305360895957221    0.5233578986475588    
  0.4923726366882259    0.44779038175796193    0.40391181738428117    0.37292451081471006    0.36188168304432167    
  0.37293433743474785    0.40393212734996464    0.4478218529645733    0.49241492630403394    0.5234087892699024    
  0.5305915399854892    0.5125932076996467    0.4759909543874639    0.4302918601933252    0.38359799438570974    
  0.3412747905347767    0.30649402002974085    0.3731196595795461    0.3412614118017651    0.3192816685314251    
  0.3081346112386289    0.3081317759783564    0.3192729938007145    0.34124647621239507    0.3730979677879318    
  0.4128007819071203    0.45680656874509795    0.49931914838865    0.5314990928840025    0.542357398538754    
  0.5233604449005168    0.475027992218862    0.40930556726573536    0.34402426522416696    0.29423970190219895    
  0.26802744405955153    0.26803154876202817    0.29425241854856454    0.34404651141715265    0.4093379518332302    
  0.47506974540221847    0.5234087878326024    0.5424080227180381    0.5315475816401926    0.4993622996840773    
  0.4568427846740184    0.4128296468573283    0.3731196595795461    0.4508293130770621    0.412814742031108    
  0.3835706427172361    0.3653419553966538    0.35917197788043287    0.3653376044950864    0.3835616886372327    
  0.4128007846510343    0.4508099291955972    0.4937376765844737    0.5355411159346807    0.5670609039522803    
  0.5761948042160567    0.5519735982191247    0.49237785433472464    0.40930767136895274    0.32382575560456317    
  0.25490369815331043    0.21229763049868258    0.19814618213056168    0.21230420430218774    0.254917539836713    
  0.3238477449599976    0.40933795007861407    0.4924149231472711    0.5520142052021915    0.5762349797540472    
  0.5670974128443502    0.5355722054632501    0.4937628447785673    0.4508293130770621    0.5369341684751764    
  0.4937471525957779    0.45681303867879713    0.4302514463913444    0.4164587418378147    0.41645751088174726    
  0.4302476919509645    0.45680657435858607    0.4937376795900559    0.5369213029339897    0.5801588285356125    
  0.6143752607844059    0.6270875551481565    0.6051012609606521    0.542339254949918    0.4477973150346504    
  0.34402721741265446    0.2549042729093353    0.19417644468927936    0.16457957372027981    0.16458199747280772    
  0.19418398887686786    0.2549175378884347    0.34404650764712036    0.4478218477588163    0.542366802886466    
  0.6051287741209126    0.6271124208435679    0.6143961380311914    0.5801755257158012    0.5369341684751764    
  0.6266956677814801    0.5801599460988339    0.5355417094203504    0.4993195044191116    0.4759401727447645    
  0.46788974988197785    0.4759399859920828    0.49931915630630325    0.5355411215564168    0.5801588313599878    
  0.6266934963747831    0.6662887971430995    0.6869095241652905    0.6742721211120846    0.6179560264578347    
  0.5210850044371471    0.403918899179054    0.2942419277384718    0.21229721341667587    0.164578569135562    
  0.14926682132030736    0.16458199559677666    0.21230420044155454    0.29425241274407127    0.4039321199727192    
  0.5210992425927313    0.6179690650098395    0.6742822676463891    0.6869163173191828    0.6662928149397876    
  0.6266956677814801    0.713695631862784    0.6662783598982444    0.6143669014092824    0.5670550417938011    
  0.5314957332296253    0.5125368911148747    0.5125379721825729    0.531499101616288    0.5670609108826764    
  0.614375265410392    0.6662887992832127    0.713707222551261    0.7453245276408681    0.7473436942490939    
  0.7066363671683867    0.6193662263657578    0.49897812199414066    0.37292988670293903    0.2680273116488323    
  0.19814330139531058    0.16457856737699927    0.1645795701082346    0.19814617653890657    0.26803154115062944    
  0.3729343281017032    0.49898098706559657    0.619365633908438    0.706631326108192    0.7473347171357593    
  0.7453132848335723    0.713695631862784    0.7907816844757355    0.7453009694528139    0.6868904679928061    
  0.6270736875630083    0.5761860552004858    0.5423532587145633    0.53053609754027    0.5423574057012198    
  0.5761948101709852    0.6270875595674761    0.6869095268554201    0.7453245286900156    0.7908081187164308    
  0.8106941571915715    0.7918181228132033    0.7255076296887717    0.6162732646924324    0.48536617845662894    
  0.36188331494181564    0.2680273100200476    0.212297210059923    0.19417643955212754    0.2122976234773359    
  0.26802743507647186    0.3618816723106215    0.48536065700552095    0.6162618279680555    0.725489447388143    
  0.7917943161446066    0.8106674492917468    0.7907816844757355    0.8512340741046185    0.8106581213559669    
  0.7473140968618655    0.6742501072868762    0.6050866862826491    0.5519655395075848    0.5233579020932879    
  0.5233604477681527    0.5519736004354789    0.6051012625200554    0.6742721220049921    0.7473436944953398    
  0.810694157008046    0.8512739002086158    0.8571318066619188    0.8186603648779186    0.7338250812491061    
  0.6145017645065107    0.4853661771647389    0.3729298837805136    0.29424192313141373    0.2549042666443552    
  0.25490369020009623    0.29423969220605506    0.37292449952979384    0.4853553471596469    0.6144831537301068    
  0.7337975778280071    0.8186251082269163    0.8570921085394294    0.8512340741046185    0.8897362745322047    
  0.8570863280568134    0.7917801398957629    0.7066077189089299    0.6179366260362779    0.5423277598064947    
  0.4923726335775963    0.47502798868329416    0.492377850600886    0.5423392513162746    0.6179560231980223    
  0.706636364455442    0.7918181207521721    0.8571318054343969    0.8897854537974751    0.8811783098324082    
  0.8275879397392584    0.7338250806425848    0.6162732628097237    0.498978118473151    0.40391889400138037    
  0.34402721071051934    0.3238257474707299    0.3440242556846762    0.40391180658241693    0.49896475471728047    
  0.6162512005023035    0.7337928570889499    0.8275462774422325    0.8811304471272273    0.8897362745322047    
  0.9029474206677822    0.8811284937602463    0.8186179389509195    0.7254752319609743    0.6193440786959515    
  0.5210715405360621    0.44779037131085253    0.40930555662241797    0.40930766094274396    0.4477973052437503    
  0.5210849957191713    0.6193662191181943    0.7255076241805031    0.8186603612162109    0.8811783080151635    
  0.9029999599024812    0.8811783098613684    0.8186603644377677    0.7255076281183371    0.6193662232317207    
  0.521084999686394    0.4477973088628923    0.4093076639965354    0.4093055588341767    0.44779037244298014    
  0.5210715405961558    0.6193440780643278    0.7254752312180789    0.8186179384914997    0.8811284936034005    
  0.9029474206677822    0.8897362741283069    0.881130446690381    0.8275462764387566    0.7337928551389311    
  0.6162511972590199    0.4989647499398995    0.4039118003180702    0.3440242482664718    0.3238257393116692    
  0.34402720213951987    0.40391888528091513    0.4989781099343613    0.6162732549835167    0.7338250742624256    
  0.8275879355116786    0.8811783080441237    0.8897854540575655    0.8571318068095137    0.7918181222140614    
  0.7066363652940477    0.6179560231298228    0.5423392503099421    0.49237784864711004    0.4750279857142823    
  0.49237262959383976    0.5423277551105786    0.6179366213380643    0.7066077150844523    0.7917801374921966    
  0.8570863269656627    0.8897362741283069    0.8512340738795887    0.8570921084616078    0.8186251070341618    
  0.733797574550122    0.6144831478396737    0.48535533866841535    0.37292448896497826    0.29423968033940257    
  0.2549036776653165    0.2549042537610673    0.29424191004402195    0.37292987075810735    0.4853661648600352    
  0.6145017539888261    0.7338250736559043    0.8186603607760601    0.8571318055819921    0.8512739007849875    
  0.8106941576266325    0.7473436939418261    0.6742721197232501    0.6051012584722488    0.5519735948102544    
  0.5233604407985616    0.5233578941020739    0.5519655310956594    0.6050866784138221    0.6742501010472278    
  0.7473140929583793    0.810658119715964    0.8512340738795887    0.7907816852976128    0.8106674507135807    
  0.7917943163192983    0.7254894446484897    0.6162618213144048    0.48536064642760984    0.36188165871510397    
  0.26802741975260097    0.21229760742987672    0.1941764231941035    0.2122971934071987    0.2680272931478284    
  0.3618832984250783    0.4853661635681446    0.6162732531008082    0.7255076226100682    0.7918181201530302    
  0.8106941574431069    0.7908081197168163    0.745324528569876    0.6869095245471641    0.6270875547838722    
  0.5761948031247923    0.5423573968531493    0.5305360875266099    0.5423532484245879    0.576186045804794    
  0.6270736802884709    0.6868904636732179    0.7453009681303162    0.7907816852976128    0.7136956345044848    
  0.7453132886223436    0.7473347199264209    0.7066313256458221    0.6193656285252483    0.4989809763282029    
  0.3729343129552983    0.26803152332290603    0.1981461575705997    0.16457955074518515    0.16457854767489427    
  0.19814328127779063    0.268027291519044    0.3729298678356819    0.49897810641337176    0.619366215984157    
  0.7066363625811027    0.7473436941880719    0.7453245296190237    0.713707224076084    0.6662887986896502    
  0.6143752620124994    0.5670609047349666    0.5314990932346996    0.5125379623912848    0.5125368810134464    
  0.5314957241418442    0.5670550350399138    0.6143668979137417    0.666278359834171    0.7136956345044848    
  0.6266956726759277    0.6662928214461853    0.6869163233043323    0.6742822705725272    0.6179690625997754    
  0.5210992336736573    0.40393210500061816    0.2942523935031152    0.21230417899654813    0.1645819732938157    
  0.14926679856603864    0.16457854591633145    0.21229719005044578    0.2942419054369636    0.4039188801032414    
  0.5210849909684176    0.6179560198700101    0.6742721206161569    0.6869095272372935    0.6662888008297632    
  0.6266934984509206    0.5801588307084953    0.5355411179842572    0.4993191502413705    0.47593997828480106    
  0.46788974170897735    0.47594016549834284    0.49931949946508675    0.535541707741528    0.5801599479832169    
  0.6266956726759277    0.5369341756613776    0.5801755347930427    0.6143961470972623    0.6271124274350831    
  0.6051287756731748    0.5423667974938132    0.4478218349488109    0.34404648861397474    0.25491751481555075    
  0.19418396376329478    0.16458197141778463    0.16457954713314002    0.19417641805695174    0.2549042474960869    
  0.34402719543738447    0.44779729907199145    0.5423392466762984    0.6051012600316513    0.6270875592031917    
  0.6143752666384852    0.5801588335328705    0.5369213055695233    0.4937376794139274    0.4568065716463864    
  0.4302476874639735    0.4164575057437441    0.41645873740701816    0.4302514440176786    0.45681303936845974    
  0.4937471567261396    0.5369341756613776    0.4508293222548926    0.49376285593001584    0.5355722170062543    
  0.5670974226381194    0.5762349853499368    0.5520142043228321    0.4924149143736673    0.4093379334694758    
  0.32384772206232376    0.25491751286727243    0.21230417513591493    0.19814615197894445    0.2122976004085299    
  0.25490366971210204    0.32382573117783564    0.40930765357032606    0.49237784491327086    0.551973597026608    
  0.5761948090797208    0.5670609116653623    0.535541123605993    0.4937376824195094    0.4508099325152346    
  0.41280078556392574    0.38356168776085847    0.3653376028151892    0.35917197663342554    0.3653419558509646    
  0.3835706458629107    0.4128147483101215    0.4508293222548926    0.3731196701795632    0.4128296593675237    
  0.4568427978280029    0.4993623117414253    0.5315475905337617    0.5424080262697767    0.5234087841186721    
  0.4750697333396142    0.40933793171485955    0.3440464848439423    0.29425238769862216    0.2680315157115073    
  0.2680274107695216    0.2942396706432584    0.3440242387269805    0.40930554819085846    0.4750279821787138    
  0.523360443666197    0.542357404015615    0.531499101966985    0.4993191581590238    0.4568065772598745    
  0.41280078830783995    0.3730979720166519    0.3412464787210511    0.31927299539804765    0.30813177772871425    
  0.30813461428065597    0.31928167380331196    0.34126141978793467    0.3731196701795632    0.30649403127545793    
  0.3412748035456395    0.38359800816877404    0.4302918733661678    0.4759909653147068    0.5125932145921693    
  0.530591540976683    0.5234087826813721    0.49241491121690445    0.4478218297430537    0.40393209762337257    
  0.3729343036222536    0.36188164798140365    0.3729244776800615    0.4039117895162055    0.44779036199586997    
  0.49237262648320973    0.5233578975478023    0.5305360954711572    0.5125379722313649    0.47593998769690143    
  0.43024769490937365    0.38356169256056444    0.3412464808803965    0.30647340543059226    0.2809745529089134    
  0.2655313510575471    0.26037587988375027    0.26553789748878465    0.2809879226740758    0.30649403127545793    
  0.2518354669785323    0.28099926071782894    0.3193054703185028    0.36537797724743204    0.416505297302426    
  0.4679433391849936    0.5125932132227056    0.5424080235354827    0.5520142000228007    0.5423667912947324    
  0.5210992253510718    0.49898096600164915    0.48536063466511026    0.4853553264406659    0.4989647384242252    
  0.5210715308035972    0.5423277525392876    0.5519655349092781    0.5423532566164999    0.5125368911519401    
  0.4678897516453346    0.41645751401419434    0.3653376087087263    0.3192729988326542    0.2809745542694819    
  0.2518181820016597    0.23234357205109754    0.22263389278995327    0.22263726481544124    0.23235377800518164    
  0.2518354669785323    0.20882788042037548    0.23236283404408786    0.26555749486111835    0.3081650684981151    
  0.3592123275139635    0.41650529585261953    0.47599096251334827    0.5315475864639668    0.5762349799468979    
  0.6051287687185367    0.6179690538781775    0.6193656180669553    0.6162618095899424    0.6144831357841669    
  0.6162511860651506    0.6193440694400448    0.6179366193509683    0.6050866822817281    0.5761860536441518    
  0.531495733743194    0.4759401749545302    0.4164587454157192    0.35917198253012217    0.30813178139279807    
  0.2655313527981233    0.23234357250154639    0.208815198334685    0.1948285784476569    0.19019527181640566    
  0.19483487756682472    0.20882788042037548    0.1766098214114834    0.1948416769232603    0.222652537287312    
  0.2604003708721906    0.30816506707418395    0.3653779743758358    0.4302918691590195    0.4993623063482085    
  0.5670974161380996    0.6271124197990617    0.6742822617303662    0.7066313156522264    0.7254894338789186    
  0.7337975637897454    0.7337928454360697    0.7254752242717736    0.706607713762856    0.6742501047117746    
  0.6270736872676119    0.5670550433978643    0.499319507571302    0.4302514507783325    0.3653419607085431    
  0.308134617132036    0.2603758809989223    0.22263389273823708    0.19482857800206824    0.1766020301006766    
  0.16759271330161007    0.16759530283714325    0.1766098214114834    0.15427147500323948    0.16760000756187787    
  0.19020641941847238    0.22265253603672946    0.2655574922024167    0.3193054662357914    0.3835980027908852    
  0.4568427913562908    0.5355722096325045    0.6143961389659889    0.686916314532906    0.7473347106882515    
  0.7917943069766284    0.8186250982298022    0.8275462690092072    0.818617933640119    0.791780137062973    
  0.7473140964197434    0.6868904695878612    0.6143669046417856    0.5355417139419596    0.45681304417794466    
  0.38357064887319714    0.31928167498320287    0.26553789711799863    0.22263726342961904    0.19019527013349535    
  0.16759271210608379    0.15426785910977453    0.14986610692028796    0.15427147500323948    0.14112618620938017    
  0.14986887377581165    0.16760000652980886    0.1948416746709647    0.23236283043546838    0.28099925575622414    
  0.3412747973884873    0.4128296522659562    0.49376284815612065    0.5801755266054025    0.6662928130953875    
  0.7453132803914672    0.8106674429945696    0.8570921018151527    0.8811304417782782    0.8811284911162275    
  0.8570863278511283    0.8106581233626836    0.7453009732319785    0.6662783650036027    0.5801599521598728    
  0.49374715929050034    0.4128147490356889    0.34126141876223864    0.2809879202370451    0.23235377469977125    
  0.19483487407933792    0.16759529990481045    0.14986610520998944    0.14112527097172745    0.14112618620938017    
  0.13678479534072774    0.1411261853203942    0.15427147312183417    0.17660981838416956    0.2088278761409558    
  0.25183546148114194    0.3064940247577199    0.3731196629457381    0.4508293146387653    0.5369341679848831    
  0.6266956652485736    0.7136956276523658    0.790781679417639    0.8512340694764011    0.8897362717421708    
  0.9029474206677818    0.8897362769183405    0.8512340785078056    0.7907816903557093    0.7136956387149027    
  0.6266956752088343    0.5369341761516712    0.45082932069318987    0.3731196668133714    0.3064940265474791    
  0.25183546148041397    0.20882787484055906    0.17660981646030302    0.1542714713140079    0.1411261842451621    
  0.13678479534072774    0.13546889298194428    0.1397411369072397    0.15267841352099995    0.17466674882518138    
  0.20638277206982047    0.24871801102370797    0.3025111097686563    0.3680581429867247    0.4444671902644134    
  0.5290612391101244    0.6171466804004423    0.702397706577682    0.7778092968227333    0.8368522957646137    
  0.8744069933307911    0.8872826176913334    0.8744044130816593    0.8368477017961208    0.7778035426095838    
  0.7023916077274864    0.617140847149407    0.5290560631933461    0.4444628758774051    0.3680547297772372    
  0.302508511484868    0.24871608510805882    0.20638138762847413    0.17466581170733028    0.15267785007700563    
  0.13974087887201617    0.13546889298194428    0.13974087808093896    0.13974009075677693    0.14837639011722323    
  0.1659144723044965    0.1929017154809612    0.23011561710628517    0.27835800184804443    0.3380677177755037    
  0.40875647286158545    0.4883571829614396    0.5727826045464087    0.656124859566738    0.7316635423531967    
  0.7932683696927826    0.8364466017329713    0.858586397425012    0.8585869997273863    0.836448625299289    
  0.793272280121792    0.7316696636620907    0.6561331038170203    0.5727924869266016    0.48836799843350387    
  0.40876743920344216    0.33807806187395195    0.27836707541010075    0.230123029915246    0.19290736738000225    
  0.1659184361688765    0.14837875160854588    0.13974087808093896    0.15267784843480225    0.14830800069295857    
  0.1526745134120861    0.16591173405897403    0.1884201188867735    0.22080370297354696    0.2636730067414375    
  0.3173125633889268    0.38121247772536526    0.4534446574726965    0.5300965404397965    0.6053532276122803    
  0.6727043052949454    0.7268645877038858    0.7651660973011698    0.7874546020964831    0.7947042659570771    
  0.7874590052605183    0.7651752933360801    0.7268789046718012    0.6727234607275109    0.6053761195660905    
  0.5301214970029092    0.45346986467115397    0.38123629304107204    0.31733369678703216    0.26369065293080807    
  0.2208175772226966    0.18843030822852816    0.16591843528131703    0.15267784843480225    0.17466580911468801    
  0.16566980089891334    0.1656673667259323    0.17465849590444152    0.1928950980725975    0.22080016486711407    
  0.25875252580067554    0.3067496754079108    0.36397382505068426    0.4281970350977747    0.4951518054164407    
  0.5585682001408855    0.6116884624620248    0.6499212429068606    0.672831760774722    0.6838178439611733    
  0.6876682502821873    0.6876714433242809    0.6838277608383195    0.6728490759823458    0.6499461603687623    
  0.6117200033462761    0.5586041385872823    0.4951892675651164    0.4282332609013757    0.36400666502164475    
  0.3067777748663275    0.2587752955384233    0.22081757617443207    0.19290736547329043    0.17466580911468801    
  0.20638138402535372    0.19230909982326355    0.18765313884911541    0.19230315340804677    0.2063694272015873    
  0.23010489514397772    0.26366609674846814    0.3067466389776817    0.3581216679895521    0.4150233492511019    
  0.47242506729478706    0.5230505469661191    0.5592875834840965    0.5767787909582355    0.5771929568799978    
  0.5676610518654566    0.5572226971172041    0.552887588480082    0.5572301246674429    0.5676767331902465    
  0.5772178250622912    0.5768127967624553    0.5593289544565645    0.5230959920855226    0.4724707719346455    
  0.4150660266240108    0.35815911769076897    0.30677777368798836    0.26369065072284714    0.2301230269005339    
  0.20638138402535372    0.24871608054018532    0.22895946926361962    0.21913246494096494    0.21912928478798946    
  0.22894985498872378    0.2486998221879722    0.27834386627927166    0.31730326177702123    0.36396900295934465    
  0.41502184315646856    0.46456378890184746    0.503985896343398    0.5242360247739668    0.5205532455034942    
  0.4963354652446857    0.4622692297461468    0.43121372168892574    0.4131688261680768    0.413172455767327    
  0.43122513879731417    0.4622896793113917    0.49636594553297786    0.5205933079105719    0.5242831465805259    
  0.5040360054329089    0.4646125937740853    0.415066025412782    0.3640066626439229    0.31733369341275447    
  0.2783670713026382    0.24871608054018532    0.30250850611112184    0.2764534696402789    0.26071010583539633    
  0.25546042091904475    0.2607039770156201    0.27644097909611565    0.30248927282650395    0.3380516837522316    
  0.3812025538038092    0.4281924562826887    0.47242424431420427    0.5039866083766413    0.5119566150228257    
  0.49029457532084025    0.4433990441919665    0.38534850927486564    0.3326728695197523    0.29734753888379134    
  0.28508803746038525    0.2973541561834857    0.3326871061964251    0.38537183095243205    0.44343229982629956    
  0.49033680840470495    0.5120046652283118    0.5040360042195575    0.47247076954517386    0.42823325738658347    
  0.38123628858881436    0.33807805679334774    0.30250850611112184    0.3680547238196856    0.3353617641583775    
  0.3128476136294558    0.3014551149811612    0.30145249966408977    0.3128396307841187    0.33534805842720083    
  0.3680348523669203    0.4087410226272375    0.4534368279923452    0.4951502350677674    0.5230528625145645    
  0.5242393573966252    0.49029666258735705    0.42512626630703976    0.34562332788164374    0.27256012897444387    
  0.22022397848529057    0.19384123454566077    0.19384387798270708    0.22023240263647317    0.27257562338815605    
  0.34564731091434464    0.42515914531450066    0.4903368070066403    0.5242831440424823    0.5230959884935945    
  0.4951892629694691    0.45346985925936556    0.4087674333205305    0.3680547238196856    0.4444628695653455    
  0.40542628971926137    0.3754390233140016    0.35679617214576964    0.3504981793885978    0.35679232240449377    
  0.37543112019512814    0.4054139877870304    0.444445783193768    0.48834581671791477    0.5300942140591303    
  0.5585724654660552    0.5592948533231431    0.5205600149859301    0.4434033348985508    0.3456250020053113    
  0.25268056065090455    0.1831439456099096    0.1428193546392435    0.1299295443421898    0.1428234933889966    
  0.1831530051275714    0.25269578053338476    0.34564730918862374    0.4434322967008962    0.520593303760705    
  0.5593289494865014    0.5586041328759259    0.530121490715867    0.48836799191676716    0.4444628695653455    
  0.5290560567370223    0.48491485264732004    0.44722389824110237    0.4202269117694004    0.40625657968508855    
  0.40625563777815166    0.4202240331206362    0.44721891305145206    0.4849074789127268    0.5290459449475378    
  0.5727792665926915    0.6053595605014799    0.6117003977974748    0.5767914782567629    0.49634526052000244    
  0.38535420873877535    0.272562463513847    0.18314439727680118    0.12684472716638703    0.1010611815291967    
  0.10106266110926514    0.12684943309906255    0.18315300331753726    0.27257561976416    0.38537182582165774    
  0.49636593942679963    0.5768127901200768    0.6117199963777713    0.6053761124292584    0.5727924799201021    