#     DFTpy    
  CRYSTAL 
    
  PRIMVEC    
  4.305619958827    1.8013118380000005e-05    -4.5000000000000005e-13    
  -2.1527943795944804    3.728785377771271    -8.840000000000002e-12    
  -7.400000000000001e-13    -1.7210000000000004e-11    7.079108211648202    
  PRIMCOORD    
  4    1    
  Si    1.0718343390000001e-05    2.4858627467719803    3.981105199126791    
  Si    2.1528148608840905    1.2429406440871702    0.4415510410289001    
  Si    1.0718345010000002e-05    2.485862746770951    6.637557118342041    
  Si    2.1528148608910804    1.2429406441147903    3.0980030647800905    
  BEGIN_BLOCK_DATAGRID_3D    
  3d_datagrid_density    
  BEGIN_DATAGRID_3D#0    
  46    46    73    
  0.0    0.0    0.0    
  4.305619974887045    1.801311844718928e-05    -4.5000000167850865e-13    
  -2.152794387624444    3.7287853916797116    -8.840000032973371e-12    
  -7.400000027602142e-13    -1.721000006419363e-11    7.0791082380534105    
  0.019049554928586794    0.01941932118743821    0.02055070599505219    0.02251098380585802    0.025414398023871534    
  0.02942320148515001    0.034749432634798454    0.041660180830594716    0.050484303629678554    0.06161061310901549    
  0.07546454723733759    0.09245629841198659    0.11290404686133972    0.1369443877051044    0.16444475689249952    
  0.19492996215572483    0.22752980242857065    0.2609540933676766    0.2935114967670381    0.32320193470451003    
  0.34790637757104004    0.36566006299052883    0.3749484418098647    0.3749484413272087    0.36566006177626975    
  0.34790637618088405    0.3232019337012684    0.29351149647380026    0.2609540938197317    0.22752980347649263    
  0.19492996359756562    0.1644447585551723    0.13694438946301865    0.11290404861627946    0.09245630006736948    
  0.07546454869691714    0.06161061430841461    0.05048430457283621    0.04166018158965859    0.03474943330474953    
  0.029423202128018345    0.025414398642203448    0.022510984353782074    0.020550706408010235    0.01941932140949664    
  0.019049554928586794    0.01941932123609595    0.019419300687051402    0.020169888108529148    0.021715859515434015    
  0.024147956259167772    0.027604521523019076    0.032273721665061976    0.03839761204083667    0.046277562517864274    
  0.05627560215379615    0.0688019857259653    0.08427997039666381    0.10308456746530432    0.12545983845839367    
  0.1514262138073004    0.18069296150660016    0.2125893201185234    0.24602336353674753    0.2794791622185983    
  0.31107397138106285    0.33870309654681147    0.36027869873825163    0.374023267161064    0.37874432152241577    
  0.37402250302423246    0.36027723530460126    0.33870105509155585    0.31107151500479663    0.2794764763043376    
  0.2460206327963188    0.21258670730455095    0.18069059340762567    0.15142417496554691    0.1254581696125807    
  0.10308326850004412    0.0842790098308907    0.06880131482913966    0.056275167321512505    0.046277311810375005    
  0.038397497661439454    0.03227370167491584    0.027604560880744502    0.02414802571382015    0.02171593330465737    
  0.020169943565343598    0.01941932123609595    0.020550706086876334    0.020169888156629064    0.020550630146874912    
  0.021715801357877308    0.023733825635642584    0.02671953156022266    0.030838000001926106    0.036310644561631106    
  0.04341959965898033    0.052506127448939656    0.06396032054889625    0.07819916961725858    0.09562705995712943    
  0.11657150289338886    0.14119326342212735    0.16938310478204    0.20066741233610974    0.23414365236419443    
  0.268459260265568    0.30184762676454524    0.33224194227979564    0.3574807896593284    0.3755849340140632    
  0.38504418787770256    0.38504339556502243    0.3755826280169092    0.35747717216550273    0.33223731862441375    
  0.30184236594970554    0.2684537479055521    0.2341382431881893    0.20066239440656813    0.16937868213988025    
  0.14118955285223928    0.1165685390514521    0.09562480937149466    0.07819755349139147    0.06395923854784566    
  0.05250547361498066    0.04341927034625616    0.03631054420281648    0.03083804654277814    0.02671965818068448    
  0.023733977700476694    0.021715933139462587    0.020550706086876334    0.02251098393260474    0.021715859606534944    
  0.021715801402996    0.02251082189172671    0.024147795688531547    0.026719416766071015    0.030367436777328418    
  0.0352916451448918    0.04175730024748939    0.050092167818098506    0.06067263385598081    0.07390495724984046    
  0.0902017711177251    0.10994091405304032    0.13339093602322777    0.16060372882230883    0.1912973749434433    
  0.22476159473945928    0.2598103655869282    0.294797157762686    0.3277087248966239    0.3563500454558893    
  0.3786062610029784    0.39272746498891836    0.3975664446747237    0.39272502878972704    0.3786016183518275    
  0.3563436179948228    0.32770106309434827    0.29478886494123    0.25980201937499803    0.22475368187803568    
  0.19129025465636343    0.16059762501149855    0.1333859468649091    0.10993703161469409    0.09019890967491061    
  0.07390298460230602    0.06067139570387508    0.050091502478690604    0.04175705004974962    0.03529166836679428    
  0.030367615771816923    0.026719658026891902    0.024148025413206167    0.02251098393260474    0.02541439818011866    
  0.02414795638863267    0.023733825720081137    0.024147795725849592    0.02541410581516715    0.027604194579288668    
  0.03083769316268299    0.03529144189471714    0.041210932275547375    0.04891080781982305    0.058759687405885504    
  0.07115899683326499    0.08652462311088166    0.10526163226677047    0.12770843684062705    0.15403793813933928    
  0.18413128726165517    0.21745885669884762    0.2530015107210429    0.28923728601035686    0.3242169553291124    
  0.35574401549962287    0.3816404976822157    0.40003255808724636    0.4095747196106824    0.40957300726273516    
  0.4000275937793718    0.38163276757066517    0.35573423531939313    0.32420595906643496    0.2892259080196448    
  0.2529904822931061    0.21744873957148467    0.18412245252821496    0.15403057796613417    0.12770259191511288    
  0.10525722738003375    0.08652150613537879    0.07115697209003381    0.05875853829604379    0.04891031401909632    
  0.04121088743296705    0.035291668214006706    0.030838046256274832    0.027604560485406455    0.02541439818011866    
  0.02942320167567039    0.027604521694291607    0.026719531683313223    0.026719416834518447    0.02760419460436163    
  0.029422716700289946    0.032273151635810765    0.03631005962709195    0.04175679536696351    0.04891049038001197    
  0.058130339342181564    0.06981623596829872    0.08439045957057816    0.10227829227653232    0.1238637465264097    
  0.14940120119569741    0.17889063181102371    0.21194575423101067    0.24768772011151619    0.2846982856196529    
  0.32107561247202104    0.3546264689636298    0.38317100334332016    0.40485803130523557    0.4183670126359458    
  0.4229476461779246    0.41836262712972544    0.4048497153048801    0.3831595825631077    0.35461299802863216    
  0.32106120972675056    0.28468397793645417    0.24767433160320299    0.21193385870917492    0.1788805590459479    
  0.14939307057048992    0.1238575109751002    0.10227378708580938    0.08438744881673116    0.06981444800525317    
  0.05812949216845275    0.04891031383379108    0.04175704973405578    0.036310543795336374    0.03227370121720242    
  0.02942320167567039    0.034749432879920834    0.03227372189643224    0.030838000176629472    0.03036743688273017    
  0.03083769321071618    0.032273151650514365    0.03474869116482818    0.0383967236702556    0.04341864559332984    
  0.050091245820393676    0.058758910101172325    0.06981575177492873    0.0836892888582255    0.10082347879511494    
  0.12163859316575694    0.14644724785763472    0.1753308555757672    0.20800000444552127    0.2436644285103447    
  0.28094994787892474    0.3179328852448376    0.3523643476845575    0.3820660857151827    0.40533792251807926    
  0.4211640202887953    0.42912425492053374    0.4291215174949785    0.4211560982884629    0.4053256356246862    
  0.38205064183719856    0.35234714210903734    0.3179152830319625    0.2809331038286979    0.24364918933612884    
  0.20798689594251937    0.17532011938943565    0.14643889423512993    0.12163245952060597    0.10081929128127355    
  0.08368671687617414    0.06981444773076691    0.05875853786070008    0.05009150195928979    0.04341926979954065    
  0.03839749714309924    0.034749432879920834    0.04166018116370558    0.03839761236475554    0.03631064481688088    
  0.03529164531068264    0.035291441982567465    0.0363100596661695    0.03839672368706389    0.04165912493484188    
  0.04627627667806172    0.052504694533317665    0.060671151283538456    0.07115758947032948    0.08438930208580758    
  0.10082278790107974    0.12090878766110717    0.14500808057775996    0.1732636968268666    0.20544996093365406    
  0.2408149661094322    0.2779518747646492    0.31480139588181716    0.3489208074176104    0.3780316500008046    
  0.4006149706017982    0.416196123452715    0.4251269859448103    0.4280089682415427    0.425120649819772    
  0.41618410057571625    0.4005984677231368    0.378012246761613    0.34890019930599714    0.3147811277309931    
  0.27793315140336783    0.2407985860348322    0.2054363450305094    0.17325295391656992    0.14500007908087245    
  0.12090323138262694    0.10081929086195125    0.08438744814656754    0.07115697130702481    0.06067139490579669    
  0.05250547287429934    0.04627731119269418    0.04166018116370558    0.0504843040847006    0.04627756296896763    
  0.04341960003048773    0.04175730050919203    0.0412109324370808    0.0417567954614098    0.043418645654073745    
  0.04627627671747932    0.05048286732949346    0.056273819650512875    0.063958275464629    0.07390275604225782    
  0.08652241577032149    0.10227628354095065    0.12163701992477823    0.14500718048798994    0.17258415660476398    
  0.20419329889073082    0.2390962031841531    0.27580011877729743    0.3120004323737642    0.3448797412383838    
  0.37185078318247256    0.39145058162406465    0.40382273758982534    0.41042194924374165    0.4131004196568835    
  0.4130968499280466    0.41041157745558743    0.40380655402493404    0.3914301353780636    0.37182796910475047    
  0.3448564831245311    0.31197837097299147    0.2757804280323839    0.23907956592498658    0.20417997790436002    
  0.17257409018162514    0.14500007851052354    0.1216324585481988    0.10227378590391907    0.08652150490643748    
  0.07390298344388001    0.06395923754480573    0.05627516654359677    0.0504843040847006    0.0616106137055925    
  0.05627560275249767    0.05250612796315929    0.05009216820947547    0.04891080809480167    0.04891049057343327    
  0.05009124597043664    0.052504694657626076    0.056273819734575736    0.06160871145277175    0.0687995915208117    
  0.07819637668599945    0.09019870862573381    0.10525848128860218    0.12386073467251325    0.14644462213284662    
  0.17326170624115492    0.20419219090468982    0.2385180821583375    0.27465940752254475    0.3100182116086546    
  0.34125395836681716    0.3652141344100046    0.3802190749679636    0.386890608686388    0.3878767026781785    
  0.3866099673743406    0.3858404758392758    0.3866025506619541    0.387862476620565    0.38687081135041096    
  0.3801955126898403    0.36518893508717465    0.3412291843786945    0.309995509204902    0.27463984201993286    
  0.23850216062866733    0.20417997726610776    0.17325295271282384    0.14643889265278506    0.12385750923209192    
  0.10525722566327878    0.09019890812003975    0.07819755219161557    0.0688013138517066    0.0616106137055925    
  0.07546454797680523    0.06880198647224536    0.06396032121433141    0.06067263439949629    0.0587596878312228    
  0.058130339683383    0.058758910397738555    0.060671151555251455    0.06395827569830424    0.0687995916722797    
  0.07546209177806956    0.08427685822177221    0.09562340567263586    0.10993687685047901    0.12770422498433007    
  0.14939705556248423    0.1753270314353434    0.20544672626199245    0.23909383158321942    0.2746581406404123    
  0.30929700303324176    0.3391034682179069    0.36014336419671755    0.3701608728371373    0.3699134970734077    
  0.3630714213418719    0.35468015435711764    0.3492164421264117    0.34921274634347294    0.35466929042368966    
  0.3630541309098904    0.3698911586108572    0.3701354642563121    0.3601171564271155    0.3390785625288541    
  0.30927495811880057    0.27463984147083276    0.23907956473027553    0.2054363432674734    0.17532011726569413    
  0.14939306833133992    0.1277025897715451    0.1099370297173993    0.09562480781699274    0.08427900867731115    
  0.07546454797680523    0.09245629928693219    0.08427997127987782    0.0781991704313487    0.07390495796020805    
  0.07115899744495756    0.06981623651346486    0.0698157522903374    0.07115758997314514    0.07390275651655134    
  0.0781963770844251    0.08427685847175197    0.09245321860386942    0.10308065478119252    0.11656690061803396    
  0.13338583634535098    0.15403257335479062    0.1788852568373273    0.20799489307758012    0.24081041465059744    
  0.27579642404747606    0.31001562253952436    0.33910214816877654    0.3582489354855785    0.36425707164692056    
  0.35751252315074084    0.34230467493848593    0.325099868515834    0.3120467137085272    0.3072301246781527    
  0.312039879110414    0.3250864812028785    0.34228550270393737    0.35748902052654746    0.36423132051137613    
  0.3582232527936544    0.33907856218229876    0.3099955083183167    0.27578042649241363    0.24079858391439898    
  0.2079868934674747    0.17888055648939674    0.15403057556144253    0.13338594477282723    0.11656853736532401    
  0.10308326726275358    0.09245629928693219    0.11290404786457817    0.10308456847709337    0.09562706091890971    
  0.0902017720111954    0.08652462394979017    0.08439046038764483    0.08368928968514419    0.08438930293192363    
  0.0865224166111215    0.09019870940571749    0.09562340631240512    0.1030806551742997    0.11290029140060606    
  0.12545506528825684    0.14118765522448998    0.1605975168561057    0.18412473239710653    0.21193913528091735    
  0.24365804769451974    0.2779460537306255    0.31199547722365945    0.3412501199733996    0.36014081917221386    
  0.364255880984286    0.3529865383382849    0.3305943717392363    0.3045945671983751    0.28267771143651355    
  0.2703764666971813    0.27037345202775487    0.2826687006654337    0.30457980362240267    0.3305746266809756    
  0.35296332572349864    0.36423132025226174    0.3601171558857448    0.34122918336770586    0.3119783693409076    
  0.27793314919145795    0.24364918677041517    0.21193385608259566    0.18412245009112865    0.16059762292741517    
  0.14118955120342064    0.12545816842129648    0.11290404786457817    0.1369443888222058    0.1254598395904082    
  0.11657150400391399    0.10994091514646585    0.10526163337358303    0.10227829343631603    0.10082348003640366    
  0.1008227892225735    0.10227628490360571    0.10525848262196844    0.10993687806235646    0.11656690159259708    
  0.12545506587314514    0.13693991913904896    0.1514205512267352    0.16937648474283673    0.19129007582982846    
  0.21745117517960044    0.2476799664165813    0.28094245106055693    0.314794489752948    0.3448737348318679    
  0.36520929961441323    0.37015743082660113    0.35751055625788053    0.33059367198481976    0.2973108737752398    
  0.2667162414607167    0.24581783298817628    0.23846759591028924    0.24581277876681967    0.26670610711568604    
  0.297295876775296    0.3305746262368971    0.35748901988944276    0.37013546349237175    0.36518893403832614    
  0.34485648158940285    0.31478112567793753    0.28093310144186745    0.2476743291687789    0.2174487373424875    
  0.19129025278892178    0.1693786806968827    0.1514241739446239    0.1369443888222058    0.16444475807869183    
  0.1514262150303738    0.14119326466621399    0.13339093731607704    0.1277084382345012    0.12386374807551401    
  0.12163859490226099    0.12090878957564258    0.12163702196112555    0.12386073673882436    0.1277042269677725    
  0.13338583811333973    0.1411876566127602    0.1514205520329488    0.16443956426809336    0.18068643637948525    
  0.2006598559498085    0.22475333738888167    0.2529928892501268    0.28468964228601124    0.3179245680835302    
  0.3489131579396184    0.37184413314919323    0.38021375638195065    0.369909794422281    0.34230266569747064    
  0.3045939573516126    0.2667163691507803    0.23727967471367278    0.22149659034327038    0.22149457512633913    
  0.23727356572231126    0.2667061064328643    0.3045798024928588    0.3422855014501854    0.3698911574317774    
  0.38019551152200504    0.37182796772842175    0.34890019758943047    0.31791528105972156    0.2846839759375565    
  0.2529904804935544    0.22475368041173732    0.2006623933096396    0.1806905926514615    0.16444475807869183    
  0.1949299633130981    0.18069296274496444    0.16938310610154358    0.16060373026961425    0.15403793978859348    
  0.14940120312161123    0.14644725010547666    0.14500808313886038    0.14500718329298956    0.1464446250662505    
  0.14939705848364385    0.15403257610485893    0.1605975192492478    0.16937648656134652    0.18068643739131687    
  0.19492407974901796    0.21258202791302946    0.23413532109239937    0.2598013803954278    0.28922802663916775    
  0.3210664519006168    0.3523556525488368    0.3780237868325336    0.3914439419408104    0.3868856061281659    
  0.36306837075828075    0.3250987715642399    0.28267813733120845    0.24581901856106558    0.22149764171859027    
  0.21309076901093874    0.22149457438054848    0.2458127773220838    0.28266869873873435    0.32508647916610856    
  0.36305412911216073    0.3868708098982044    0.39143013411318367    0.3780122454714651    0.35234714073382506    
  0.32106120837453617    0.28922590684324956    0.25980201846423484    0.23413824254601862    0.21258670687775003    
  0.1949299633130981    0.22752980340143553    0.21258932123796487    0.20066741361291557    0.19129737643605596    
  0.18413128906195864    0.17889063401625752    0.17533085825278663    0.17326369997998986    0.17258416016278944    
  0.17326171007052799    0.17532703536542096    0.17888526067431224    0.18412473592134282    0.19129007879538137    
  0.20065985810596063    0.2125820290488708    0.22752330732183718    0.24601545545072567    0.2684503836044801    
  0.2947877559923115    0.32420745309615956    0.3546172729495317    0.3820575963489434    0.4006076114731996    
  0.40381698298962687    0.38787301975159383    0.3546788082980759    0.3120475568610514    0.27037891353361676    
  0.23847080397037948    0.22149764102751004    0.22149658892598914    0.23846759379644905    0.27037344939478486    
  0.31203987633260133    0.3546692879646212    0.3878624747861936    0.4038065528042207    0.40059846688955825    
  0.38205064118447307    0.35461299749302516    0.3242059586756293    0.29478886471288906    0.26845374780297204    
  0.2460206327458484    0.22752980340143553    0.2609540939707141    0.2460233643645504    0.2341436534329337    
  0.2247615961117965    0.21745885847778432    0.21194575653413905    0.20800000736553806    0.2054499644985596    
  0.2041933030422282    0.2041921955050889    0.20544673111826262    0.20799489795922615    0.2119391399241861    
  0.2174511792950478    0.22475334069116257    0.2341353233521521    0.24601545655408974    0.26094708855660637    
  0.2794708274134391    0.301838482052235    0.3276992710133151    0.3557347234130153    0.3831623266168026    
  0.4053303242392736    0.4161901103021412    0.41041806372806766    0.38660866076561345    0.349217849413624    
  0.3072339174310615    0.2703789129140691    0.24581901729017364    0.23727967278239054    0.24581783041638242    
  0.27037646361503004    0.3072301214180134    0.34921274341269787    0.3866025485274415    0.4104115762907929    
  0.41618410021755964    0.40532563576538827    0.38315958295554026    0.35573423582914687    0.3277010636400059    
  0.3018423664477363    0.2794764766652582    0.2609540939707141    0.29351149685523137    0.279479162607883    
  0.26845926097226624    0.2598103666706478    0.2530015122875575    0.2476877222918949    0.24366443142022406    
  0.24081496980364359    0.23909620762802836    0.23851808722754017    0.2390938370816368    0.24081042032466618    
  0.24365805323879727    0.24767997148888227    0.2529928935138224    0.2598013835847439    0.26845038559319545    
  0.2794708282676911    0.29350410335407356    0.3110654250060891    0.3322328289456307    0.35634091616391655    
  0.3816318779882586    0.4048504479842399    0.4211580275711112    0.42512317295365853    0.41309934815472715    
  0.3858425091656394    0.3492178489223785    0.31204755577540855    0.28267813566378763    0.26671636693160816    
  0.2667162387157169    0.2826777082558002    0.3120467103587639    0.34921643908983674    0.3858404736627867    
  0.4130968489417162    0.42512064996935517    0.42115609923246333    0.40484971664754915    0.3816327690123746    
  0.3563436193410557    0.33223731973898024    0.3110715157850736    0.29351149685523137    0.3232019342711277    
  0.3110739713087631    0.30184762706410706    0.2947971584826937    0.28923728724802183    0.28469828750580767    
  0.28094995053845845    0.2779518782689402    0.27580012311333163    0.2746594125909004    0.27465814626807156    
  0.27579642999185594    0.2779460596742654    0.2809424566233148    0.28468964707692385    0.28922803034003525    
  0.2947877584442212    0.3018384833173662    0.3110654253860037    0.32319428622625557    0.3386945556644644    
  0.35747198858226453    0.37859780005175303    0.4000250386229663    0.4183610608777744    0.4291205204367226    
  0.4280080885463642    0.4130993479771457    0.3866086601083323    0.35467880707062166    0.3250987698167265    
  0.30459395516188076    0.2973108711942609    0.3045945642942313    0.3250998654883255    0.35468015162052235    
  0.3866099654751142    0.4131004190151263    0.42800896891222945    0.42912151916275376    0.4183626293156658    
  0.40002759605328664    0.37860162041390555    0.3574771738262578    0.3387010562352079    0.3232019342711277    
  0.3479063768169881    0.33870309618965266    0.33224194231873216    0.3277087253589779    0.3242169562867638    
  0.3210756140319243    0.31793288751296755    0.3148013989180817    0.31200043616610634    0.31001821607878016    
  0.3092970080529018    0.310015627925009    0.3119954827082409    0.31479449497644474    0.3179245726360252    
  0.32106645541769085    0.3242074553692827    0.32769927207375427    0.33223282909167723    0.3386945554176203    
  0.34789859618301266    0.3602703439715604    0.3755766713468931    0.3927199568084461    0.40956866218570387    
  0.42294376343626944    0.42912052071255213    0.42512317309519276    0.4104180634341397    0.38787301891209647    
  0.36306836942258264    0.3423026639711236    0.330593669948644    0.33059436945916215    0.3423046725645928    
  0.3630714192112278    0.38787670128765295    0.41042194903905    0.4251269870635063    0.4291242571101288    
  0.42294764894724374    0.40957301011038894    0.3927250313397589    0.37558263003389797    0.3602772366580644    
  0.3479063768169881    0.3656600622859537    0.3602786984447126    0.35748078975955583    0.3563500459434211    
  0.35574401639756925    0.3546264703199175    0.3523643495424323    0.3489208097798894    0.3448797440558048    
  0.34125396156200194    0.3391034717157027    0.3391021518886729    0.34125012377806485    0.34487373847848285    
  0.3489131610888765    0.3523556548464416    0.3546172741497282    0.3557347234928582    0.3563409153791807    
  0.35747198743456854    0.360270343092376    0.36565223086427395    0.37401521889130895    0.38503662392471955    
  0.3975601002701513    0.4095686628379151    0.4183610618656304    0.42115802853374323    0.41619011093921815    
  0.40381698314305603    0.3868856057894365    0.36990979366651233    0.35751055516469515    0.35298653697379617    
  0.35751252163747854    0.3699134956889551    0.38689060786852836    0.40382273777429456    0.4161961248320947    
  0.42116402268948666    0.41836701561152834    0.40957472265187167    0.3975664473703651    0.38504339764865597    
  0.37402250434996515    0.3656600622859537    0.3749484415233084    0.37402326728786894    0.3755849345190943    
  0.37860626183476603    0.38164049878832357    0.3831710046690607    0.3820660871852524    0.3780316515033753    
  0.37185078458472026    0.36521413561037136    0.36014336517419254    0.3582489362926714    0.3601408198633447    
  0.36520930015987435    0.3718441333971967    0.37802378654831925    0.3820575953191358    0.38316232477812184    
  0.3816318755217347    0.37859779738685795    0.3755766690599523    0.3740152175446958    0.37494059715979045    
  0.3787366442910508    0.38503662477775064    0.39271995834751977    0.4000250405895868    0.40485045007481707    
  0.405330326170708    0.40060761304211095    0.39144394304846575    0.38021375701264776    0.3701574310015953    
  0.36425588074266163    0.3642570710901979    0.37016087220686117    0.3802190746584211    0.39145058205495803    
  0.4006149720054252    0.40533792480329006    0.4048580341053737    0.4000325609354182    0.3927274674791645    
  0.3850441897317602    0.37874432258147955    0.3749484415233084    0.3749484416137648    0.37874432222134996    
  0.38504418893960524    0.3927274663141448    0.4000325595278754    0.4048580326627395    0.4053379235404495    
  0.4006149710015274    0.39145058113975717    0.3802190734579982    0.3701608703463488    0.3642570683872036    
  0.3642558772340157    0.3701574268147787    0.3802137522196824    0.39144393762012786    0.40060760692627195    
  0.4053303194410635    0.40485044305951495    0.4000250338939609    0.39271995273711485    0.3850366209720419    
  0.37873664277261737    0.3749405980707301    0.374015220664723    0.3755766738404005    0.3785978030516561    
  0.38163188124353625    0.3831623298761024    0.38205759939057227    0.378023789482997    0.3718441352876412    
  0.36520930116664896    0.36014082011511167    0.3582489358856716    0.36014336426728244    0.36521413451629414    
  0.3718507837326747    0.3780316512592524    0.38206608766821987    0.38317100571710483    0.38164050008172307    
  0.3786062630582557    0.37558493545473015    0.37402326782244105    0.3749484416137648    0.36566006248084476    
  0.37402250413688365    0.3850433970299951    0.3975664463548369    0.4095747212637046    0.418367013899649    
  0.4211640206909638    0.41619612247468524    0.4038227347977825    0.386890603888691    0.36991349040748145    
  0.35751251502843556    0.35298652928467106    0.35751054675420846    0.36990978483044246    0.3868855966905376    
  0.4038169738643452    0.4161901016163691    0.4211580194877532    0.41836105364532056    0.40956865612314364    
  0.39756009567760536    0.38503662182507314    0.3740152193181099    0.3656522335097819    0.36027034735348684    
  0.3574719925077418    0.3563409204136295    0.35573472776434295    0.354617277186232    0.35235565646434197    
  0.34891316134476547    0.344873737571476    0.34125012195558185    0.3391021494119851    0.33910346889962034    
  0.34125395882178267    0.34487974185971265    0.3489208084903705    0.35236434925867305    0.35462647085292287    
  0.355744017389885    0.35635004703075035    0.3574807906731266    0.36027869903150694    0.36566006248084476    
  0.34790637693493603    0.3602772364514257    0.3755826295046429    0.3927250304677918    0.40957300882590125    
  0.42294764712193994    0.42912425454767583    0.42512698346864436    0.41042194400755844    0.3878766944086898    
  0.36307141027996404    0.34230466173981955    0.3305943572119677    0.3305936568512472    0.3423026505062912    
  0.36306835592612213    0.3878730056368921    0.41041805067165626    0.42512316128135846    0.42912051044197974    
  0.42294375534819667    0.40956865677535464    0.3927199542761882    0.3755766715534596    0.3602703464743023    
  0.34789860030059483    0.3386945603179393    0.3322328339201329    0.32769927609858307    0.3242074580887772    
  0.32106645659671357    0.3179245722787028    0.3147944932603412    0.31199547991213833    0.31001562438744357    
  0.3092970041771914    0.3100182123427895    0.31200043306277897    0.3148013968132968    0.3179328865110478    
  0.3210756139572887    0.32421695679368717    0.32770872608279145    0.33224194297825305    0.3387030966159071    
  0.34790637693493603    0.32320193413465054    0.3387010558837067    0.3574771732791474    0.37860161965336625    
  0.4000275949562512    0.4183626276053156    0.4291215163999629    0.4280089645267653    0.41310041238859513    
  0.3866099561138955    0.3546801393892621    0.3250998507374864    0.3045945477372279    0.29731085361748244    
  0.3045939371978833    0.32509875191018867    0.3546787895939168    0.38660864351797897    0.41309933291234285    
  0.42800807578915706    0.4291205107178089    0.41836105463317613    0.4000250358605812    0.3785978003867607    
  0.3574719913600454    0.3386945600710951    0.32319429137455385    0.3110654304156452    0.30183848750900283    
  0.2947877613037809    0.2892280316231431    0.28468964676160824    0.2809424548564063    0.27794605671659234    
  0.27579642618554495    0.274658142033375    0.2746594084194989    0.27580011950260774    0.277951875590592    
  0.2809499489183551    0.28469828680654946    0.2892372871654139    0.29479715868302314    0.3018476272826674    
  0.31107397138393417    0.32320193413465054    0.293511496385607    0.3110715152222256    0.3322373191346439    