#     DFTpy    
  CRYSTAL 
    
  PRIMVEC    
  3.754290573855251    1.570656054e-05    -3.9000000000000005e-13    
  -1.8771316846464001    3.2513189574469004    -7.7e-12    
  -6.500000000000002e-13    -1.5000000000000003e-11    6.1726370382054405    
  PRIMCOORD    
  4    1    
  Si    9.345872590000001e-06    2.1675510535877605    3.4713295333849503    
  Si    1.8771495433318606    1.0837836103930802    0.38501096870203005    
  Si    9.345874000000002e-06    2.1675510535868603    5.787626023920202    
  Si    1.8771495433379501    1.0837836104171603    2.7013075503875204    
  BEGIN_BLOCK_DATAGRID_3D    
  3d_datagrid_density    
  BEGIN_DATAGRID_3D#0    
  37    37    61    
  0.0    0.0    0.0    
  3.754290587858826    1.5706560598585773e-05    -3.9000000145470753e-13    
  -1.8771316916481373    3.251318969574382    -7.700000028721147e-12    
  -6.500000024245125e-13    -1.500000005595029e-11    6.172637061229494    
  0.04453941954696154    0.04576689406394989    0.049535783566540315    0.05611506867886481    0.0659641115268233    
  0.07970869221278043    0.0980920410291643    0.12192913772266734    0.15205414748929075    0.18919894031904172    
  0.23375336878200656    0.28543319739520523    0.3429426267747207    0.4037307390305513    0.46394727278932774    
  0.5187147750556463    0.5627757079771092    0.5914073718488193    0.601340093645763    0.5914073736842717    
  0.5627757114696454    0.5187147798537293    0.46394727840995104    0.4037307449439712    0.34294263249894597    
  0.28543320256117277    0.2337533731488162    0.18919894374537988    0.15205414989862054    0.12192913910855688    
  0.09809204150053975    0.07970869201457158    0.06596411098118082    0.05611506807827501    0.04953578310059275    
  0.04576689381854588    0.04453941954696154    0.045766893392729636    0.04576631283768792    0.048263830490582936    
  0.053436754819818806    0.06164829432301226    0.07343858029971433    0.08948889731967727    0.11057968370928487    
  0.1375476730625246    0.1711968975908584    0.21210609390319243    0.26033228376408446    0.31507743690029066    
  0.3744054759758672    0.43509886507818835    0.4927679367405873    0.5423164575054611    0.5787408610308685    
  0.5980551518473803    0.5980580901836094    0.5787494034033711    0.5423298157323472    0.49278492121673434    
  0.4351180919865752    0.3744255919591356    0.3150972718409014    0.26035092344430116    0.2121229130201341    
  0.1712115595754846    0.13756007801294856    0.11058988248158523    0.08949702188261925    0.07344481175610855    
  0.061652844069572554    0.053439832898979404    0.048265607061260776    0.045766893392729636    0.04953578225253931    
  0.04826382986089644    0.049533477545874526    0.05343509259924602    0.06023905284265249    0.0703865737369505    
  0.08446776218953507    0.10319735651716382    0.12738672514745908    0.15787019627288557    0.19533325471038646    
  0.2400419748002014    0.29153373877360067    0.3483401723363297    0.40780657711846263    0.4661062599025235    
  0.5185719542634748    0.5603661482824904    0.5873146251519644    0.5966264240896921    0.5873259693508457    
  0.5603878386646097    0.5186020893931671    0.46614230448568184    0.40784577838081343    0.3483799558134192    
  0.29157196368448457    0.24007706716726043    0.1953642577895538    0.15789671802837904    0.1274087812888413    
  0.10321518939152693    0.08448172189723124    0.0703970638658388    0.060246486482864126    0.05343983244865523    
  0.04953578225253931    0.056115066796668105    0.05343675364717915    0.053435092064467324    0.05610999281687673    
  0.06164408996590054    0.07038420055940472    0.08281844543158619    0.09956614664843141    0.12137153711185651    
  0.14904992280380525    0.1833308328848767    0.22460010260885482    0.2726019527072548    0.32616493170675537    
  0.38300727270259255    0.4397270655892662    0.49211898763189027    0.5358316535917802    0.5671294758221365    
  0.5834222996900454    0.5834305529887654    0.5671535734163458    0.5358696220479422    0.49216768909547554    
  0.43978261408627306    0.38306563573141444    0.3262224832281669    0.27265583862178044    0.22464841845271957    
  0.18337262395333442    0.14908500499837413    0.12140021134309427    0.0995889421956573    0.08283596951026771    
  0.07039706334387319    0.06165284312688953    0.056115066796668105    0.0659641092207239    0.06164829276205218    
  0.06023905193290304    0.06164408959235957    0.06595548160187135    0.07343132566953699    0.08446276306529411    
  0.0995637573664117    0.11938019075119599    0.1446569447901561    0.1760989726633422    0.2141274900903452    
  0.25858727560527944    0.3084537011852333    0.3615963759969392    0.41475909140189704    0.46397496242735337    
  0.5054153804243624    0.536261656484385    0.5550510991367956    0.5613375929464972    0.5550715659049134    
  0.5363011217632027    0.5054708473364973    0.4640420622021587    0.41483264795644786    0.36167122995749873    
  0.3085254603225268    0.2586527694404212    0.2141848914004462    0.17614763781789383    0.14469707060714349    
  0.11941243310369314    0.0995889415345157    0.08448172074399594    0.0734448102430087    0.0659641092207239    
  0.07970868970477174    0.07343857857842251    0.07038657268429692    0.07038420004441051    0.07343132552518444    
  0.07969616052376706    0.08947858349730725    0.10319001293827013    0.12136731117573103    0.14465538579227485    
  0.17368132173190093    0.2088219650352682    0.249919383050479    0.29596308828110174    0.34477589445647777    
  0.39294075556797825    0.4363522622453722    0.47144211102126754    0.49642232927060914    0.5116147832851758    
  0.5185656894013103    0.518577405670126    0.5116492697949063    0.4964774302122788    0.4715139175348105    
  0.43643526042924596    0.39302861892463137    0.34486262984410887    0.2960439873404666    0.24999144137031631    
  0.2088837947678017    0.17373277019025513    0.14469706976260552    0.12140020986249576    0.10321518747588478    
  0.08949701969778424    0.07970868970477174    0.09809203859609698    0.08948889571355405    0.08446776127312663    
  0.0828184450586476    0.08446276306200376    0.0894785836378094    0.09807580817313562    0.1105668737902171    
  0.127377926767215    0.1490450867606615    0.17609742970466474    0.2088223113672143    0.24698153111755033    
  0.28947510338223315    0.3339357453555904    0.3765409891997618    0.4126567496845592    0.4385360618045115    
  0.45317212205125107    0.45882268010452704    0.45965627758203825    0.45944623414405295    0.4596805699116022    
  0.4588702789037014    0.45324048484129353    0.43862054610212875    0.41275083693857223    0.3766374685752703    
  0.3340282466039829    0.28955913115727333    0.24705465944391938    0.20888379378165886    0.17614763600099984    
  0.1490850025870362    0.1274087785197794    0.11058987955712216    0.09809203859609698    0.12192913565246753    
  0.11057968249571258    0.10319735601632624    0.09956614670835888    0.09956375780914416    0.10319001353576662    
  0.11056687425539176    0.12191004626478502    0.13753362061255797    0.1578615980571805    0.1833274436443581    
  0.21412836662894985    0.24992272631589738    0.2894782840154517    0.330186235680293    0.36770537868526215    
  0.3965833914367819    0.41241267469141435    0.41448339522415567    0.4067247846885694    0.39592965494335447    
  0.38863175864486627    0.38864344527899874    0.3959645976037175    0.40678213544853464    0.41456046812012626    
  0.4125042012749127    0.39668204185804823    0.3678034831076936    0.33027761351294826    0.28955913017128004    
  0.24999143939774635    0.21418488861347135    0.18337262062133836    0.15789671442767353    0.13756007438305115    
  0.12192913565246753    0.15205414604235143    0.13754767248268274    0.12738672530141867    0.12137153786035522    
  0.11938019192377267    0.12136731254354337    0.12737792803515    0.13753362143436    0.15203384107419282    
  0.1711837109214997    0.19532738434145222    0.224601011485928    0.2585935745294464    0.2959724110736754    
  0.333944971604081    0.3677112688444096    0.39089507202169577    0.39799000817351643    0.38793301706631783    
  0.36579828534003234    0.3407056344509825    0.32168779454068397    0.31469399514902446    0.3217085543216093    
  0.3407474609104838    0.36586065514363236    0.38801304924809255    0.39808181630635    0.3909908411920688    
  0.3678034822638982    0.3340282447805684    0.29604398453033576    0.25865276583167524    0.22464841435190797    
  0.19536425351438727    0.17121155539874153    0.15205414604235143    0.18919893970426724    0.1711968978284752    
  0.15787019725887402    0.1490499244342068    0.14465694692255018    0.1446553882071166    0.14904508915257647    
  0.15786160005780178    0.1711837121290304    0.18917999864110965    0.21209675373321366    0.24004207257664817    
  0.2726104506730515    0.3084685261337656    0.3447939327031905    0.3765585152995482    0.3965968588040219    
  0.397996984532155    0.3785254460106404    0.343556917805888    0.3041363189718805    0.2716350958428365    
  0.25371125145912776    0.2537197867347455    0.27166118480566415    0.30418076546889455    0.3436192205039965    
  0.37860222024265583    0.39808181552834215    0.396682040300095    0.37663746610155163    0.3448626264184033    
  0.3085254561290128    0.2726558339959148    0.24007706246316027    0.212122908533892    0.18919893970426724    
  0.23375336913255462    0.212106095063578    0.1953332566244352    0.18333083550447263    0.1760989758980886    
  0.1736813253916539    0.17609743348125334    0.18332744714138316    0.1953273871191878    0.2120967553398604    
  0.23373923326823018    0.2603303997003823    0.2915433613639444    0.326184258311321    0.36162240408538643    
  0.3929694333611287    0.4126835866720163    0.41243372908711334    0.38794605229225226    0.3435621947888409    
  0.2914658026156474    0.24546494445995642    0.2151350991543483    0.20470470440088653    0.21514848719905827    
  0.2454926970913365    0.2915087358294016    0.34361921951037694    0.3880130475462261    0.41250419896100043    
  0.41275083389933026    0.3930286150711851    0.3616712254235823    0.3262224783417124    0.29157195881463294    
  0.26035091889338785    0.23375336913255462    0.2854331987337059    0.2603322858419546    0.2400419776269532    
  0.22460010620715334    0.21412749444141743    0.2088219700031133    0.20882231666097964    0.21412837182974065    
  0.22460101610707145    0.2400420761145058    0.260330401672967    0.2854278787496664    0.31508685265441766    
  0.34836272606374313    0.3830401026824786    0.4147980034973841    0.43639205439800577    0.4385713713296438    
  0.4145100288501882    0.3658146024481572    0.3041436922050518    0.24546674424453632    0.2021327211883091    
  0.179810199278812    0.1798150111743468    0.20214763505942732    0.2454926958579474    0.3041807632196589    
  0.3658606522439189    0.41456046483188463    0.43862054242016263    0.43643525623439217    0.41483264328211694    
  0.38306563082957085    0.3483799510197183    0.3150972674364124    0.2854331987337059    0.34294262898093014    
  0.3150774397491059    0.29153374235494384    0.2726019571228591    0.25858728091756616    0.24991938919686515    
  0.2469815378515569    0.24992273321821015    0.2585935810721277    0.27261045629039776    0.2915433655117337    
  0.3150868548732004    0.34295028427455604    0.37442976107872    0.4078447161146993    0.43977482418793523    
  0.46402672329356165    0.4714914426491621    0.45321300225764843    0.40675333689608134    0.3407214597566449    
  0.27164098940962106    0.2151352736520888    0.17980862424465086    0.16800039213717213    0.17981500992700625    
  0.21514848469224307    0.2716611812119595    0.3407474566428584    0.4067821309665186    0.453240480359385    
  0.47151391299639633    0.4640420575343438    0.43978260938987535    0.40784577388364873    0.3744255878791439    
  0.34294262898093014    0.403730741833272    0.374405479299765    0.34834017635820835    0.32616493660654755    
  0.3084537071028989    0.2959630952315913    0.289475111184356    0.2894782922835106    0.29597241926966456    
  0.308468533643592    0.3261842645232761    0.34836273045205984    0.3744297632986122    0.4037550488596527    
  0.43514055252746126    0.4661610493653462    0.4921810594404431    0.5054776814766048    0.49647748382873014    
  0.4588646518885252    0.39595568032457107    0.32169919564227334    0.25371220230517016    0.20469998742318257    
  0.17980862306748085    0.17981019688216898    0.2047047007528961    0.2537197819440915    0.32170854878297195    
  0.3959645919220191    0.45887027356122045    0.49647742532930683    0.505470842793691    0.4921676848050743    
  0.46614230049183053    0.43511808839144356    0.403730741833272    0.4639472757954019    0.4350988684585091    
  0.4078065811273469    0.38300727758228564    0.36159638194445665    0.3447759015473064    0.33393575347543997    
  0.33018624450861045    0.3339449806485997    0.34479394135912184    0.3616224117101652    0.38304010869202965    
  0.40784472009738276    0.4351405543664169    0.4639905203805483    0.4928276079691285    0.5186421120457514    
  0.5359049605217429    0.5363299788707168    0.5116704659482648    0.45969410278156286    0.3886506709124181    
  0.3146970655839094    0.2537122011857806    0.21513527140022734    0.2021327178032848    0.21513509460733737    
  0.25371124580354526    0.31469398871091914    0.3886434387051346    0.4596805638936048    0.5116492646819408    
  0.5363011174790265    0.5358696183426367    0.5186020860881232    0.4927849182523633    0.4639472757954019    
  0.5187147778159149    0.4927679396999998    0.46610626335779737    0.43972706980705106    0.41475909659531957    
  0.39294076183477333    0.37654099647114414    0.36770538672052416    0.36771127725894337    0.3765585235961414    
  0.3929694409683683    0.41479800984325765    0.4397748288164501    0.46616105207883524    0.4928276089717975    
  0.5187769784638857    0.5423921301357462    0.5604478271485379    0.5672087131815904    0.5551193441318089    
  0.5186158179256062    0.4594745078937482    0.38865066999259257    0.3216991936165298    0.27164098631827455    
  0.24546674015342576    0.24546493937683223    0.2716350897950191    0.3216877877718664    0.3886317517503257    
  0.4594462279009742    0.5185774006128211    0.5550715620597285    0.5671535704455423    0.5603878361890449    
  0.542329813515765    0.5187147778159149    0.5627757100743354    0.5423164596024111    0.518571956630205    
  0.49211899049472674    0.463974965953806    0.43635226650338726    0.4126567546192135    0.39658339688859284    
  0.39089507776094395    0.3965968645406225    0.412683592044944    0.43639205898887723    0.4640267267001459    
  0.4921810614140357    0.5186421126648222    0.542392129944651    0.5628541935821466    0.5788279686694187    
  0.5874017993079599    0.583500644159792    0.5613989218544534    0.5186158175626505    0.4596941015066245    
  0.39595567794496006    0.3407214563522265    0.3041436879215863    0.29146579753028506    0.30413631312271905    
  0.3407056280144946    0.3959296484134721    0.45965627170394574    0.5185656847953518    0.5613375897461265    
  0.583430550851241    0.5873259677720066    0.5787494020001893    0.5627757100743354    0.5914073729759182    
  0.5787408619571558    0.5603661491546648    0.5358316545060671    0.5054153814231731    0.4714421120872874    
  0.43853606287713676    0.4124126757074415    0.39799000909718196    0.3979969853414988    0.4124337297273708    
  0.4385713716733657    0.471491442500123    0.5054776806493574    0.5359049590070435    0.5604478252994723    
  0.5788279672554756    0.5914969097418055    0.5981470540240315    0.5967117079020477    0.5835006445208922    
  0.5551193442020222    0.511670465181701    0.45886465004618515    0.4067533340350375    0.3658145987523575    
  0.3435621904032353    0.3435569128066773    0.3657982798684481    0.40672477913572164    0.45882267511991526    
  0.5116147794862161    0.5550510967356835    0.5834222984017781    0.5966264233817095    0.5980580895922849    
  0.5914073729759182    0.601340093645763    0.5980551514911777    0.5873146243726851    0.5671294744884797    
  0.5362616544217519    0.4964223263168185    0.45317211813724156    0.41448339043256327    0.3879330116178429    
  0.3785254401850046    0.3879460463448544    0.4145100229657246    0.4532129965326572    0.49647747828640587    
  0.5363299735526555    0.5672087083163779    0.5874017954236324    0.5981470518236507    0.6014335551226921    
  0.5981470548484518    0.5874018005842996    0.5672087143395782    0.5363299793851033    0.496477483399793    
  0.45321300084910393    0.41451002659001834    0.387946049328305    0.3785254424442353    0.3879330130299301    
  0.41448339103758675    0.4531721182656285    0.4964223264599572    0.5362616549131504    0.567129475299902    
  0.5873146252024567    0.5980551520040286    0.601340093645763    0.5914073725571729    0.59805808864221    
  0.5966264218226064    0.5834222962741759    0.5550510940920809    0.5116147762256982    0.4588226709303478    
  0.4067247736817056    0.36579827306802176    0.3435569049013467    0.3435621817794605    0.36581458972788194    
  0.40675332477596443    0.45886464063502164    0.5116704558081655    0.5551193353955981    0.5835006372299044    
  0.5967117032247568    0.5981470526480708    0.591496911468409    0.5788279710022163    0.5604478295943722    
  0.5359049625983231    0.5054776828505596    0.4714914431766009    0.4385713710129747    0.4124337279896925    
  0.39799698272423356    0.397990005773691    0.4124126719783263    0.438536059259796    0.47144210917718304    
  0.505415379586802    0.5358316536807594    0.5603661489322518    0.5787408618359566    0.5914073725571729    
  0.5627757093724192    0.5787494009586196    0.5873259660631595    0.5834305481622296    0.5613375857502039    
  0.5185656791242815    0.4596562639936243    0.3959296384969627    0.34070561611831424    0.3041362998152588    
  0.291465783442133    0.30414367351429156    0.3407214419005657    0.3959556636791622    0.4596940878173064    
  0.5186158051801955    0.5613989118442645    0.5835006375910043    0.587401796699972    0.578827969588273    
  0.5628541967152396    0.5423921336147782    0.5186421154219466    0.492181062375342    0.46402672557476676    
  0.436392055912092    0.41268358736683003    0.3965968586725465    0.39089507114123473    0.39658339004916626    
  0.4126567482227774    0.4363522612111528    0.46397496216258505    0.4921189881649303    0.5185719553594152    
  0.5423164588564713    0.5627757093724192    0.5187147770934606    0.542329812801148    0.5603878350110352    
  0.5671535681913901    0.5550715579771467    0.5185773939257126    0.45944621803119196    0.38863173859642985    
  0.3216877718556718    0.27163507206088183    0.245464920746739    0.24546672121682692    0.27164096736207005    
  0.3216991748865492    0.3886506520046094    0.45947449164581206    0.5186158048172398    0.555119335465811    
  0.5672087094743654    0.5604478277453064    0.5423921334236829    0.5187769825022523    0.49282761210694886    
  0.4661610532557297    0.43977482759007014    0.4147980062395288    0.39296943531641304    0.37655851639279897    
  0.3677112691009645    0.36770537830093386    0.3765409885588438    0.39294075514018867    0.41475909155173035    
  0.43972706643507375    0.46610626133263594    0.4927679385524449    0.5187147770934606    0.463947275403877    
  0.4927849182794148    0.51860208604551    0.5358696174616114    0.5363011146693318    0.5116492587089609    
  0.45968055376974304    0.38864342414615755    0.3146939703593383    0.2537112249516902    0.2151350725569162    
  0.202132695376836    0.21513524893200095    0.2537121788728291    0.31469704393482956    0.3886506510847839    
  0.45969408654236776    0.5116704550416011    0.5363299740670419    0.5359049610836231    0.5186421160410173    
  0.4928276131096177    0.4639905247582291    0.4351405567640803    0.40784471995566535    0.3830401059467937    
  0.36162240663200346    0.3447939344346772    0.33394497251360283    0.33018623591897694    0.33393574525413133    
  0.3447758944429015    0.36159637643830944    0.38300727377911814    0.40780657881682664    0.4350988672870681    
  0.463947275403877    0.4037307421412502    0.43511808950470976    0.4661423019898857    0.4921676859202297    
  0.5054708422914621    0.4964774216305786    0.4588702651802256    0.3959645780914254    0.32170852990288196    
  0.25371975943720254    0.204704676322712    0.1798101717607408    0.17980859781736822    0.20469996228502524    
  0.25371217775343935    0.3216991728608054    0.3959556612995508    0.45886463879268075    0.49647747785746793    
  0.5054776820233116    0.49218106434893405    0.46616105596921836    0.4351405586030357    0.4037550530066723    
  0.37442976486768875    0.3483627293266203    0.3261842609296716    0.30846852802612573    0.2959724122286594    
  0.2894782845533924    0.28947510358457607    0.2959630885303827    0.30845370183522164    0.32616493297178245    
  0.34834017427050873    0.37440547853363565    0.4037307421412502    0.3429426302927364    0.3744255903029781    
  0.40784577709077535    0.43978261271236346    0.4640420597950696    0.47151391251933544    0.45324047529380046    
  0.40678211991758745    0.3407474393497612    0.2716611587706501    0.2151484589975205    0.17981498272380447    
  0.16800036447338454    0.1798085966401983    0.2151352466801392    0.27164096427072326    0.3407214384961468    
  0.4067533219149199    0.45321299512411195    0.47149144302756113    0.46402672898135056    0.4397748322185848    
  0.4078447239383487    0.3744297670875808    0.34295028772959557    0.3150868556255232    0.29154336376435935    
  0.2726104524498035    0.25859357568097185    0.24992272694545625    0.24698153146862953    0.24991938346569384    
  0.25858727641878804    0.27260195414650457    0.29153374093061    0.3150774397668314    0.3429426302927364    
  0.28543320122267174    0.31509727124015147    0.34837995588633713    0.3830656362150246    0.41483264818530813    
  0.4364352591309353    0.43862054140542067    0.4145604580532343    0.36586063859042806    0.30418074293252484    
  0.24549267049245665    0.20214760668007864    0.17981498147646402    0.17981016936409783    0.20213269199181147    
  0.24546671712571605    0.3041436692308256    0.3658145860320815    0.41451002070555376    0.4385713713566958    
  0.43639206050296286    0.4147980125854021    0.3830401119563446    0.3483627337149371    0.3150868578443059    
  0.2854278812946132    0.2603304017582587    0.24004207411807763    0.22460101251980322    0.21412836724863693    
  0.2088223117890122    0.20882196557063648    0.2141274910532039    0.22460010422481058    0.24004197717335396    
  0.26033228689686927    0.28543320122267174    0.23375337279826794    0.26035092396910764    0.29157196510175815    
  0.3262224854012274    0.36167123244931254    0.39302862081900664    0.41275083671017293    0.41250419692791573    
  0.38801303894704914    0.3436192035119456    0.29150871301998366    0.2454926692590675    0.21514845649070538    
  0.20470467267472148    0.2151350680099052    0.24546491566361459    0.29146577835676996    0.34356217739385414    
  0.38794604338090644    0.4124337286299493    0.41268359273975713    0.3929694429236524    0.36162241425678227    
  0.32618426714162674    0.2915433679121488    0.2603304037308435    0.23373923493745202    0.2120967549976284    
  0.19532738521558698    0.18332744421418382    0.1760974301662609    0.17368132237151074    0.17609897377353426    
  0.18333083467697642    0.19533325727859313    0.21210609723811513    0.23375337279826794    0.1891989443601541    
  0.2121229145952172    0.2400770697678914    0.2726558421849772    0.3085254645556671    0.34486263411316603    
  0.3766374717788681    0.3966820423629362    0.3980818121675479    0.37860220987597754    0.3436192025183259    
  0.3041807406832891    0.27166115517694533    0.2537197546465486    0.2537112192961074    0.271635066013064    
  0.3041362939660967    0.3435568999021349    0.3785254366185985    0.3979969835335765    0.3965968644091467    
  0.3765585246893917    0.3447939430906085    0.3084685355359523    0.27261045806714995    0.24004207765593538    
  0.21209675660427516    0.1891799996161692    0.17118371162211557    0.15786159856175241    0.1490450872474777    
  0.1446553865230227    0.1446569460314007    0.14904992474099207    0.1578701989733592    0.171196901017633    
  0.1891989443601541    0.15205415134555958    0.17121156201811907    0.1953642613154837    0.22464842303882285    
  0.25865277487617094    0.296043993167459    0.33402825205364445    0.3678034870111224    0.3909908419526649    
  0.3980818113895401    0.3880130372451827    0.36586063569071453    0.34074743508213545    0.3217085243642443    
  0.31469396392123267    0.32168776508685354    0.3407056096818255    0.3657982675964364    0.3879330075814544    
  0.3979900066973559    0.3908950768804823    0.36771127751549815    0.33394498155812147    0.29597242042464866    
  0.25859358222365336    0.22460101714094674    0.19532738799332264    0.1711837128296464    0.15203384161234265    
  0.13753362105612538    0.12737792727393013    0.12136731197792998    0.11938019208162928    0.12137153912032665    
  0.12738672786480287    0.13754767641784926    0.15205415134555958    0.1219291411787564    0.13756008107247622    
  0.15789672216892645    0.18337262917050887    0.2141848975319884    0.2499914480583284    0.2895591378354938    
  0.3302776193702888    0.3678034861673271    0.3966820408049832    0.4125041946140033    0.4145604547649927    
  0.40678211543557125    0.39596457240972693    0.3886434175722929    0.38863173170188875    0.39592963196707937    
  0.4067247681288569    0.41448338624599346    0.4124126729943528    0.39658339550097665    0.36770538633619576    
  0.33018624474729436    0.28947829282145143    0.24992273384776922    0.2141283724494278    0.18332744771120896    
  0.15786160056237372    0.1375336218779275    0.12191004669912767    0.11056687434509357    0.10319001380810706    
  0.09956375874173386    0.09956614863767772    0.1031973591137235    0.11057968681239556    0.1219291411787564    
  0.09809204393360682    0.11058988586618977    0.12740878571001182    0.14908501045674574    0.176147644180144    
  0.20888380173772492    0.2470546665682504    0.2895591368495006    0.33402825023023    0.37663746930514946    
  0.4127508336709309    0.43862053772345466    0.45324047081189206    0.4588702598377445    0.45968054775174505    
  0.45944621178811257    0.45965625811553085    0.4588226659457352    0.4531721143516183    0.4385360603324207    
  0.4126567531574312    0.37654099583022593    0.3339357533739808    0.2894751113866991    0.2469815382026364    
  0.20882231708277765    0.17609743394284963    0.14904508963939272    0.12737792854186522    0.11056687481026828    
  0.09807580886837905    0.08947858448069936    0.08446276447982934    0.08281844734474945    0.08446776456442757    
  0.08948890003776945    0.09809204393360682    0.07970869452258007    0.0894970252843469    0.10321519375944044    
  0.12140021667498734    0.14469707678461266    0.17373277695643902    0.20888380075158205    0.24999144608575857    
  0.29604399035732815    0.3448626306874606    0.3930286169655604    0.43643525493608154    0.47151390798092135    
  0.49647741674760665    0.511649253595995    0.5185773888684072    0.5185656745183225    0.5116147724267377    
  0.4964223235061658    0.47144211024320243    0.43635226546916756    0.3929407614069836    0.34477590153373017    
  0.29596309548087246    0.2499193896120802    0.20882197053848173    0.17368132603126385    0.14465538893786453    
  0.12136731334574236    0.10319001440560363    0.08947858462120153    0.07969616171682684    0.07343132716872133    
  0.07038420239871312    0.07038657586215231    0.07343858259019445    0.07970869452258007    0.06596411328728012    
  0.07344481489023165    0.08448172591456157    0.09958894708662044    0.11941243875512562    0.14469707594007486    
  0.17614764236325    0.21418489474501382    0.2586527712674251    0.3085254603621533    0.36167122791539624    
  0.4148326435109774    0.4640420551272546    0.505470837748656    0.5363011103851556    0.5550715541319614    
  0.5613375825498327    0.5550510916909683    0.5362616528505171    0.5054153805856124    0.46397496568903723    
  0.41475909674515293    0.36159638238582703    0.3084537077528875    0.25858728173107487    0.2141274954042764    
  0.1760989770082808    0.14465694816379496    0.1193801932542061    0.09956375918446651    0.084462764476539    
  0.07343132702436887    0.06595548324371259    0.06164409176425498    0.06023905474152972    0.0616482962145345    
  0.06596411328728012    0.056115069960471664    0.06165284671806592    0.07039706731415273    0.08283597373693807    
  0.09958894642547893    0.12140021519438894    0.14908500804540797    0.18337262583851305    0.2246484189380114    
  0.2726558375591117    0.32622248051477315    0.3830656313131812    0.4397826080159658    0.4921676816298286    
  0.5358696137563057    0.5671535652205864    0.5834305460247048    0.5834222949859083    0.5671294739662448    
  0.535831654595046    0.49211899102776674    0.4397270706528585    0.3830072786588115    0.3261649378715748    
  0.27260195856210906    0.22460010782310924    0.18333083729657246    0.14904992637139383    0.1213715398688255    
  0.09956614869760533    0.082818446971811    0.07038420188371888    0.061644091390714056    0.05610999458394929    
  0.05343509429208978    0.05343675635443929    0.056115069960471664    0.04953578441459376    0.05343983493054093    