#     DFTpy    
  CRYSTAL 
    
  PRIMVEC    
  3.9118132552757503    1.636557706e-05    -4.100000000000001e-13    
  -1.9558924546315701    3.387737934682431    -8.030000000000002e-12    
  -6.700000000000001e-13    -1.5630000000000002e-11    6.431628802046231    
  PRIMCOORD    
  4    1    
  Si    9.738007110000001e-06    2.2584972516403905    3.616979723596901    
  Si    1.9559110626325003    1.1292570485913902    0.4011652750811401    
  Si    9.738008570000001e-06    2.2584972516394606    6.030463479469302    
  Si    1.9559110626388407    1.1292570486164801    2.8146491259282507    
  BEGIN_BLOCK_DATAGRID_3D    
  3d_datagrid_density    
  BEGIN_DATAGRID_3D#0    
  41    41    61    
  0.0    0.0    0.0    
  3.911813269866889    1.6365577121043917e-05    -4.1000000152930793e-13    
  -1.9558924619270863    3.387737947318758    -8.030000029952055e-12    
  -6.700000024991128e-13    -1.5630000058300202e-11    6.43162882603633    
  0.03456541685136081    0.03537352608777296    0.037841175209393445    0.042105079046585274    0.04841155158227362    
  0.057131250634553966    0.06875892526557574    0.083888476511705    0.10316178117998048    0.1271960055719539    
  0.15649396324651657    0.19133646088006903    0.23164903205499196    0.2768344827089304    0.3255806409696168    
  0.3757029371757693    0.4241421771728777    0.46723534956574775    0.5012562723414064    0.5230533096452396    
  0.5305573009531711    0.5230533105183414    0.5012562741686968    0.4672353523865081    0.42414218086772043    
  0.37570294146078503    0.3255806454866692    0.2768344871291562    0.23164903613403298    0.1913364644554372    
  0.1564939662041958    0.12719600782373117    0.10316178268076195    0.0838884773042158    0.06875892550107222    
  0.057131250532599966    0.0484115513519386    0.04210507882641926    0.03784117505861365    0.03537352601534469    
  0.03456541685136081    0.03537352568610921    0.03537351368183147    0.03701132804082678    0.04037689081937941    
  0.04566204192915659    0.05317550092475503    0.06334872886165584    0.0767239356597692    0.0939204348082852    
  0.11557786681718135    0.14227501322082137    0.17442401409486136    0.21214125020346508    0.2550943478808262    
  0.3023257121263508    0.3520786823949578    0.4017112019613364    0.44782437383236995    0.4866763397777594    
  0.5147914399201516    0.5295452116523097    0.5295460820075589    0.5147939614890888    0.48668026193238245    
  0.4478293295102848    0.40171676225455666    0.35208441139044144    0.30233122018990244    0.25509933776610216    
  0.21214554265481764    0.1744275433142193    0.14227779818448102    0.11557997661610628    0.0939219632752184    
  0.0767249875763384    0.0633494110936178    0.05317591357046562    0.04566227073953688    0.04037700371749033    
  0.03701137486045827    0.03537352568610921    0.03784117441530769    0.03701132765689426    0.03784113236213057    
  0.04037687788299964    0.04476358314257555    0.05125624861128038    0.06022385785686623    0.07214202133664746    
  0.08757695554860302    0.1071559991405683    0.13150748787108243    0.1611558684878966    0.196378635585694    
  0.2370471007154585    0.28246598630313974    0.33121895849026917    0.38105866994977655    0.4289405013708641    
  0.4713046147138938    0.504596561584252    0.5258561442436345    0.5331634037000335    0.5258595108833539    
  0.5046029607230059    0.4713134368244614    0.4289509556957563    0.3810698910187394    0.33123011563374843    
  0.28247638748228787    0.23705626812167974    0.19638632744659612    0.1611620439608838    0.13151224157558739    
  0.10715950025739784    0.08757940860270005    0.07214364322562426    0.06022485930554693    0.05125681706800038    
  0.044763871913303194    0.040377003382020035    0.03784117441530769    0.042105077887997104    0.040376890087018766    
  0.040376877539652516    0.04210500961055027    0.0456620563631747    0.05125631226755181    0.059203562053872845    
  0.06991591274138784    0.08389143893984942    0.10170845881634576    0.12399816331876322    0.1513577944384043    
  0.18419768117004442    0.2225585762391033    0.2659425572743099    0.31317366114297146    0.3623008711270342    
  0.4106054327026656    0.4548110308999038    0.4915241913696509    0.5177746506654128    0.5314404126858014    
  0.5314428842575832    0.5177818268275041    0.49153539308899513    0.45482523709998335    0.41062141819349574    
  0.36231736749583704    0.31318952451199417    0.26595691083369044    0.22257088558283256    0.18420774216191546    
  0.1513656558079637    0.12400403204447204    0.10171262541028689    0.08389422938868736    0.06991765492644665    
  0.0592045577072368    0.05125681670559214    0.045662270064427427    0.042105077887997104    0.048411550121756915    
  0.04566204091785915    0.04476358252767543    0.045662056091539414    0.04841150015564344    0.05317564130547901    
  0.06022413761072534    0.06991618327060414    0.0826857776264908    0.09904496490218065    0.1195843359147666    
  0.14491697134841705    0.17553464264542712    0.21160645503827105    0.252781810308584    0.29803713997911    
  0.34558568648562443    0.3929028244692614    0.436954152191867    0.4746445375368362    0.5033391309898754    
  0.5212086209339157    0.5272664334193157    0.5212148085331332    0.5033509445569962    0.47466091562416857    
  0.43697365704578367    0.39292382529076697    0.3456065859503492    0.2980565976717239    0.2527988969517103    
  0.2116206925720198    0.1755459400673341    0.14492551028822984    0.1195904605648131    0.09904909976693706    
  0.08268836889880797    0.06991765449342786    0.06022485853451003    0.05317591253417605    0.048411550121756915    
  0.057131248982858415    0.05317549975110613    0.05125624784243686    0.05125631183894389    0.05317564114372831    
  0.05713131947217767    0.06334917013229009    0.07214276655699711    0.08389230500390012    0.09904563556863126    
  0.11813210624025584    0.14173379150225435    0.17036334788126775    0.2042596943753473    0.24316228719435504    
  0.2861187332262006    0.33136915731489763    0.37639055365797863    0.4182120518274311    0.4539993103194519    
  0.48167341424165205    0.5002066329861883    0.5094131027843862    0.5094167202923989    0.5002171875690927    
  0.4816900225793262    0.4540205558062737    0.4182361216100544    0.3764154808951542    0.33139312468717563    
  0.286140336889104    0.24318066814854758    0.20427451789163412    0.17037468706021536    0.14174198942827546    
  0.11813765854705457    0.09904909920609548    0.08389422841934709    0.07214364196779356    0.06334940964348586    
  0.057131248982858415    0.06875892357986221    0.06334872768561436    0.06022385709534409    0.059203561627598565    
  0.060224137441889716    0.06334917011936546    0.06875929811211731    0.07672495859498091    0.08757854454465948    
  0.10171039381641822    0.11958624137464846    0.14173511394370503    0.16864776019707964    0.20057886932228114    
  0.23730031688633207    0.2778582670679207    0.3203971451320815    0.36219084310183    0.4000684937462848    
  0.4312447000935858    0.45419282820464285    0.46900139704203336    0.476922843031911    0.4793660994383179    
  0.47693050204403303    0.46901617402727175    0.4542136012841971    0.4312697736641204    0.4000957550280776    
  0.3622180871992543    0.3204224601942468    0.27788031330650276    0.23731840407806393    0.20059286618550912    
  0.1686579363284622    0.14174198870758792    0.11959045930333498    0.10171262378611243    0.08757940676226979    
  0.07672498563952855    0.06875892357986221    0.08388847497373575    0.0767239346597663    0.07214202076244701    
  0.06991591250012769    0.0699161832785418    0.07214276671428958    0.07672495876334065    0.08388945578631536    
  0.09392245986753238    0.10715896349306246    0.12400180178908962    0.144920841537299    0.1703668120869977    
  0.20058109595328577    0.23533435594812346    0.2736317735791131    0.31344872324353507    0.35169647542829885    
  0.38473069774876534    0.4094906750835357    0.42477790668131343    0.4318148877037477    0.4336065404235788    
  0.433456955573726    0.4334607764759698    0.4336178105775312    0.431832956139999    0.424801519161105    
  0.4095179341604438    0.3847592727959309    0.3517240372760068    0.31347339964711407    0.2736524066646233    
  0.23535050143945963    0.20059286534783666    0.17037468551170906    0.1449255082306996    0.12400402968418686    
  0.10715949776899479    0.09392196080197063    0.08388847497373575    0.10316177996631785    0.0939204341495763    
  0.08757695532687809    0.0838914390569874    0.08268577799558899    0.08389230552548835    0.08757854508259627    
  0.09392246024238474    0.10316381637101127    0.11558146473716295    0.1315125077101208    0.1513639170603704    
  0.17554134948100383    0.20426625041043975    0.23730578197159016    0.2736350602441734    0.31107161449435106    
  0.34611359129322083    0.37444629636683185    0.3923805688108536    0.3986634172418532    0.39540923264302286    
  0.3873391993668695    0.37980567721128494    0.37681175801520966    0.3798126827009631    0.38735298648896077    
  0.3954291438154131    0.39868811324307596    0.3924079924679946    0.37447398880833316    0.3461392424548696    
  0.31109354451811855    0.2736524058377438    0.23731840241082192    0.20427451552256076    0.17554593722374937    
  0.15136565272720193    0.13151223846123014    0.11557997363280002    0.10316177996631785    0.12719600483395657    
  0.11557786663386409    0.10715599940205316    0.10170845943397792    0.09904496579524077    0.09904563663992845    
  0.10171039492890245    0.10715896446298097    0.11558146534451667    0.12719969075083562    0.14228088981060724    
  0.16116375252499923    0.18420718870545116    0.21161696975502922    0.2431729435285484    0.2778679770088599    
  0.31345626370216934    0.34611778204529453    0.3708286087225384    0.3829775993443789    0.3807706987491092    
  0.3667663196202064    0.3471436308617872    0.3291645026197459    0.31864525629693546    0.3186482797710961    
  0.3291735615681326    0.3471585485183245    0.36678641905708126    0.38079452432512406    0.383002969499414    
  0.37085307296000375    0.34613924177160604    0.3134733981382892    0.27788031095129123    0.24318066509587297    
  0.21162068907718293    0.18420773849499214    0.16116204035242088    0.1422777948151411    0.12719600483395657    
  0.15649396310260938    0.14227501361380826    0.1315074887115722    0.1239981645438239    0.11958433746467137    
  0.11813210802777777    0.1195862432613375    0.12400180358145509    0.1315125091737517    0.14228089068445599    
  0.1565000255262064    0.1744330007020759    0.19639030487147932    0.22257244723844943    0.2527971177223834    
  0.28613441920318    0.32041190851358764    0.35170889457800986    0.3744550752998063    0.3829819510304087    
  0.3744254158630297    0.35111848335178264    0.3202542775697215    0.2908292618283329    0.2702922079902042    
  0.2629964924625105    0.2702971182255036    0.2908391204282183    0.3202688895249363    0.3511370427420492    
  0.3744463085270337    0.3830029689214473    0.37447398759342193    0.3517240352765171    0.320422457364791    
  0.28614033337405853    0.2527988930276224    0.2225708815489808    0.19638632355424218    0.17442753975056993    
  0.15649396310260938    0.1913364614059775    0.17442401512776406    0.16115586996831818    0.1513577963413829    
  0.1449169736506409    0.14173379413971585    0.14173511678227776    0.14492084437123004    0.1513639196334852    
  0.16116375455221482    0.17443300187688726    0.19134576804512385    0.2121542965852507    0.23706354059800128    
  0.2659617429230387    0.29805807743048846    0.3313905162086934    0.362211027053717    0.38474801389766755    
  0.39239357964080335    0.38077871051205603    0.35112186121221833    0.31085859079325245    0.2704852935487457    
  0.23916181274039489    0.22239667731557428    0.22239854165925704    0.23916745057552588    0.2704947060570704    
  0.31087140909487    0.3511370420244663    0.380794523098062    0.3924079907399156    0.3847592704220401    
  0.3622180840876492    0.3313931209428322    0.29805659356536074    0.2659569066775505    0.237056264175195    
  0.21214553909899403    0.1913364614059775    0.23164903326166653    0.21214125188214816    0.19637863771460456    
  0.18419768376828427    0.17553464573673613    0.17036335143972486    0.1686477641057418    0.1703668161328136    
  0.17554135338216365    0.18420719214368567    0.19639030750840283    0.21215429807123065    0.2316625806306002    
  0.2551124534954751    0.28248811339576596    0.3131989036408879    0.3456127379823416    0.3764177302802101    
  0.4000938243627931    0.4095121584260067    0.398679536440647    0.36677661757631996    0.320259529240212    
  0.27048707108355086    0.22852514484110747    0.20144267282790798    0.19219757640273147    0.20144528320217614    
  0.22853036835006585    0.2704947050901916    0.3202688878431563    0.366786416954034    0.39868811084838646    
  0.4095179313845506    0.40009575173664985    0.37641547711235723    0.34560658189000076    0.3131895204623003    
  0.28247638368849654    0.2550993343884144    0.23164903326166653    0.2768344845154285    0.25509435012342047    
  0.2370471034173246    0.22255857946505175    0.21160645886278392    0.2042596988216872    0.20057887430700388    
  0.20058110126995543    0.20426625575652366    0.21161697477385105    0.22257245154849073    0.23706354381117936    
  0.25511245524629006    0.27685329741134823    0.3023497651679955    0.33124742870464935    0.36233251369038394    
  0.3929359516252804    0.418244558182766    0.4312742017952607    0.42480216088380335    0.39542683914697563    
  0.3471545872042251    0.29083485468526293    0.23916391145072338    0.20144303173446748    0.18201008235896543    
  0.18201084487218483    0.20144528214990928    0.2391674485275121    0.29083911762243553    0.3471585453273764    
  0.39542914053816897    0.4248015158511545    0.43126977020078333    0.4182361179211735    0.3929238214736808    
  0.3623173637569752    0.33123011216870113    0.30233121712162114    0.2768344845154285    0.3255806431887929    
  0.3023257147442341    0.2824659893931642    0.2659425609462036    0.2527818146853945    0.2431622923521662    
  0.23730032278822671    0.23533436241312317    0.23730578869267213    0.24317295011680506    0.25279712374762553    
  0.26596174794617017    0.2824881170084395    0.30234976705098865    0.3256055968022904    0.3521092725025504    
  0.3810937132594171    0.4106432890839503    0.4369927035361076    0.45403600371264013    0.45422493256463903    
  0.4318401303626258    0.3873565763050799    0.32917463366515604    0.2702968701578816    0.22239792852275292    
  0.19219715645674687    0.18201008135526126    0.19219757435594353    0.22239853859410097    0.2702971143380846    
  0.3291735572641253    0.387352982229087    0.4318329521880205    0.45421359762325775    0.4540205523017241    
  0.43697365364150426    0.41062141495161264    0.38106988803911224    0.35208440873925634    0.3255806431887929    
  0.3757029395300691    0.35207868510457396    0.3312189616783942    0.3131736649598135    0.29803714458874303    
  0.28611873875186417    0.2778582735222777    0.2736317808219803    0.2736350679883333    0.27786798485694214    
  0.286134426689491    0.29805808406366496    0.3131989089585908    0.33124743234407156    0.3521092742809233    
  0.3757345848313241    0.40174847554689197    0.4289818107688026    0.454854308488259    0.47468722988112966    
  0.48171259206064265    0.4690341891005061    0.4336309477040452    0.3798213151325413    0.3186533686845271    
  0.26299919041438535    0.22239792757386823    0.20144302981950526    0.2014426699253017    0.22239667342748312    
  0.2629964877288951    0.3186482745734441    0.3798126775957351    0.43361780603412103    0.4690161702008377    
  0.4816900193421521    0.4746609127761693    0.45482523451931944    0.4289509533428593    0.40171676011723    
  0.3757029395300691    0.42414217934990206    0.40171120443769004    0.38105867288735584    0.362300874703848    
  0.3455856908908994    0.3313691627018833    0.3203971515514326    0.31344873059882505    0.31107162254135734    
  0.31345627207517346    0.3204119167550944    0.33139052380612616    0.34561274442929396    0.3623325185727466    
  0.3810937163498006    0.40174847689366816    0.424180600670201    0.44786791872523374    0.4713512622972634    
  0.4915714653844242    0.5033841293598528    0.5002462475895219    0.4769543593165411    0.4334789061919518    
  0.37682442570774005    0.31865336782298836    0.270296868376641    0.23916390877939628    0.228525141293621    
  0.2391618083169252    0.27029220278116944    0.3186452506216582    0.3768117524403163    0.4334607716031749    
  0.4769304982036902    0.5002171847036545    0.5033509423744505    0.4915353912885248    0.47131343520532665    
  0.44782932796453484    0.42414217934990206    0.46723535130329463    0.4478243757952479    0.4289405037338549    
  0.4106054356453427    0.39290282817675093    0.3763905582821368    0.36219084870380197    0.35169648194219033    
  0.3461135985302553    0.34611778971597246    0.3517089023038073    0.3622110343776203    0.3764177367095061    
  0.3929359567185226    0.410643292561959    0.428981812622321    0.4478679192956533    0.46728003307917093    
  0.48672509487397414    0.5046469826641389    0.5178239589959857    0.5212537545686473    0.5094510433783123    
  0.479394551629987    0.4334789056252447    0.3798213137084154    0.3291746313490104    0.2908348515605488    
  0.27048706722059374    0.2704852889721528    0.2908292565993195    0.3291644969845555    0.3798056716801601    
  0.4334569507828941    0.47936609583701945    0.5094167179183631    0.5212148070699991    0.5177818258451692    
  0.5046029598736034    0.48668026100870887    0.46723535130329463    0.5012562734992604    0.48667634107000785    
  0.4713046162865849    0.4548110328917392    0.4369541547380677    0.4182120550320106    0.40006849764127145    
  0.3847307022755098    0.3744463013940436    0.3708286140723951    0.37445508074593525    0.3847480191419099    
  0.40009382903493534    0.41824456189580744    0.436992705992615    0.45485430960895995    0.4713512623318028    
  0.48672509444062334    0.5013060247769452    0.5148437184706883    0.5259082785356811    0.5314895016068711    
  0.5273094851158238    0.5094510433616294    0.47695435876256875    0.43363094631101484    0.38735657403117196    
  0.34715458416431993    0.32025952556265025    0.3108585865476012    0.3202542728141842    0.3471436257814574    
  0.3873391943856874    0.43360653613572575    0.4769228399303223    0.509413100990135    0.5272664326480136    
  0.5314428840236398    0.5258595107392986    0.5147939611448178    0.5012562734992604    0.523053310207667    
  0.5147914405216085    0.5045965622915867    0.49152419222584676    0.4746445385668649    0.4539993115206834    
  0.4312447014244434    0.40949067647310966    0.39238057019234207    0.38297760068045444    0.38298195229726967    
  0.3923935807785449    0.4095121592969504    0.4312742021878116    0.45403600340618483    0.4746872287661401    
  0.4915714636022529    0.5046469806927694    0.514843717071578    0.523106346792904    0.5295988955085041    
  0.5332149692271467    0.531489502145119    0.5212537551573504    0.5002462477428027    0.46903418849530754    
  0.4318401289065747    0.3954268369260064    0.36677661473300915    0.35112185785081557    0.35111847954458875    
  0.36676631551671846    0.39540922858771743    0.4318148842166556    0.4690013946055172    0.500206631779172    
  0.521208620738583    0.5314404130330376    0.5331634041068354    0.5295460821343084    0.523053310207667    
  0.5305573009531711    0.5295452116144974    0.5258561441142142    0.517774650338686    0.5033391303156434    
  0.48167341304472117    0.4541928263236304    0.4247779040244558    0.39866341383471765    0.38077069473681713    
  0.374425411456409    0.3807787059112216    0.39867953177812193    0.4248021562025751    0.45422492783455565    
  0.48171258724824123    0.503384124553056    0.5178239545241914    0.5259082749758601    0.5295988935107719    
  0.5306114718843065    0.5295988963633399    0.5259082799870578    0.5178239606249099    0.5033841307291116    
  0.4817125928393004    0.4542249325926805    0.42480216015987826    0.3986795350480082    0.3807787085380271    
  0.3744254133817906    0.38077069589404877    0.3986634143050849    0.42477790411639627    0.454192826464773    
  0.4816734135452949    0.5033391312019321    0.5177746513861589    0.5258561450148735    0.5295452121254655    
  0.5305573009531711    0.5230533099559143    0.5295460813728016    0.5331634028085882    0.5314404112566807    
  0.5212086185929592    0.500206629321845    0.46900139171918076    0.43181488059630996    0.39540922390658184    
  0.36676630964538576    0.3511184726251444    0.351121850181927    0.36677660659461175    0.39542682847699456    
  0.4318401201993598    0.4690341795950947    0.5002462389069285    0.5212537469754941    0.5314894955083322    
  0.533214965060554    0.5295988943656077    0.5231063485474484    0.5148437209130071    0.5046469854316167    
  0.49157146809171487    0.474687232211914    0.4540360054601419    0.43127420286092677    0.40951215878750263    
  0.3923935793110472    0.3829819500481618    0.38297759782332513    0.39238056701142937    0.40949067341466355    
  0.43124469898399753    0.4539993100194877    0.4746445379974386    0.4915241922890758    0.5045965625723537    
  0.5147914406563635    0.5230533099559143    0.5012562730108429    0.514793960278802    0.5258595093388672    
  0.5314428819455048    0.5272664297375689    0.5094130970429149    0.47692283465435553    0.4336065291962118    
  0.3873391855746059    0.34714361519254994    0.3202542608440124    0.31085857371403397    0.32025951230939237    
  0.3471545707881402    0.38735656073398955    0.43363093332305125    0.4769543464881312    0.5094510324722533    
  0.5273094764856435    0.5314894960465802    0.5259082764272367    0.514843719513897    0.501306028018331    
  0.48672509857651935    0.47135126610672345    0.4548543121080993    0.4369927067435282    0.41824456081710976    
  0.40009382631000473    0.3847480150821661    0.37445507569858894    0.3708286084121918    0.37444629557681297    
  0.3847306968542447    0.40006849315695214    0.41821205181909243    0.43695415279400823    0.45481103191525785    
  0.4713046158425753    0.486676340753551    0.5012562730108429    0.46723535064896127    0.48668026021141814    
  0.5046029587044439    0.5177818240003521    0.5212148041293665    0.5094167133540015    0.4793660890826679    
  0.4334569413835858    0.37980565950260126    0.32916448235313217    0.29082924019992684    0.2704852715634425    
  0.27048704938342183    0.29083483365083296    0.32917461362467676    0.37982129651878604    0.4334788895736647    
  0.4793945376204897    0.5094510324555702    0.5212537475641968    0.5178239561531154    0.504646983460247    
  0.48672509814316817    0.46728003736124946    0.44786792322567354    0.42898181519330314    0.4106432932077157    
  0.3929359552676409    0.3764177332855231    0.3622110292928868    0.351708895976764    0.34611778263722753    
  0.34611359126866026    0.35169647512460406    0.36219084290470477    0.37639055385616077    0.3929028251537614    
  0.4106054337705858    0.42894050261623534    0.4478243750564798    0.46723535064896127    0.42414217869069604    
  0.44782932745051307    0.47131343460388353    0.4915353902183786    0.5033509402214691    0.5002171806309051    
  0.4769304912995276    0.4334607611563854    0.37681173825051195    0.3186452331565937    0.2702921830094401    
  0.23916178728751897    0.22852511977292878    0.23916388718006515    0.27029684694637657    0.31865334693013087    
  0.37682440608515866    0.43347888900695736    0.4769543459341584    0.5002462390602087    0.5033841259223143    
  0.4915714663095431    0.47135126614126255    0.44786792379609297    0.42418060545423397    0.4017484802962589    
  0.3810937177445199    0.3623325177352669    0.3456127414352323    0.33139051893586596    0.3204119104241955    
  0.313456264800904    0.3110716149319343    0.31344872331340995    0.3203971451866728    0.33136915764035646    
  0.3455856872131403    0.36230087222865526    0.3810586713039642    0.4017112034376102    0.42414217869069604    
  0.37570293910648517    0.4017167601306336    0.4289509536065506    0.45482523465999314    0.4746609121034933    
  0.48169001681497603    0.4690161645810465    0.43361779624147795    0.37981266314722156    0.3186482558603465    
  0.26299646588471437    0.22239664981214635    0.20144264559552336    0.20144300534630846    0.2223979032342596    
  0.26299916655554817    0.3186533460685922    0.3798212950946598    0.43363093193002045    0.46903417898989563    
  0.48171258802689826    0.474687231096924    0.4548543132287998    0.4289818170468211    0.4017484816430351    
  0.3757345895432295    0.3521092769357341    0.3312474326964509    0.3131989070664803    0.29805808018326047    
  0.2861344212060671    0.2778679782581791    0.2736350608602546    0.2736317738131369    0.2778582672355497    
  0.2861187336007386    0.2980371407139087    0.31317366226394433    0.3312189599437191    0.3520786841096828    
  0.37570293910648517    0.32558064326749303    0.3520844095133777    0.3810698893860533    0.4106214165599122    
  0.4369736548562161    0.4540205520355081    0.4542135944459435    0.43183294465753047    0.3873529693998669    
  0.32917353913997444    0.2702970919358383    0.22239851347864276    0.19219754795698732    0.18201005457180536    
  0.19219712974535352    0.22239790228537493    0.27029684516513597    0.32917461130853076    0.3873565584600811    
  0.431840118743308    0.4542249278625965    0.4540360051536862    0.43699270920003525    0.410643296685724    
  0.3810937208349033    0.35210927871410697    0.32560560092753243    0.3023497688372213    0.28248811651601535    
  0.26596174542365253    0.25279711955217754    0.2431729446881873    0.23730578256182178    0.2353343561859893    
  0.23730031705547083    0.2431622875538702    0.2527818110237941    0.26594255840749625    0.28246598784961724    
  0.3023257140590346    0.32558064326749303    0.27683448532265786    0.3023312188280895    0.3312301147086603    
  0.3623173668943026    0.39292382465296716    0.41823612015014355    0.4312697700575085    0.4248015116984248    
  0.3954291309644039    0.3471585297009    0.2908390964465559    0.23916742325463503    0.20144525450903972    
  0.1820108162307639    0.18201005356810113    0.20144300343134613    0.23916388450873788    0.2908348305261183    
  0.3471545677482343    0.3954268262560246    0.42480215547864925    0.4312742032534771    0.4182445645301506    
  0.3929359603608831    0.3623325226176296    0.331247436335873    0.30234977072021446    0.27685330062249497    
  0.25511245618271705    0.23706354272119634    0.22257244876978813    0.21161697070214536    0.2042662508615796    
  0.20058109610060015    0.20057886942601816    0.20425969468482846    0.21160645572714137    0.22255857739317905    
  0.2370471023606719    0.2550943500160013    0.27683448532265786    0.23164903492735814    0.25509933709311367    
  0.2824763874043167    0.3131895250154702    0.34560658683577133    0.37641548162573046    0.40009575457359714    
  0.4095179309648996    0.3986881055143385    0.36678640544187263    0.32026886983507147    0.27049468145329314    
  0.2285303407673589    0.20144525345677275    0.19219754591019925    0.20144264269291692    0.22852511622544205    
  0.27048704552046404    0.32025950863182984    0.36677660375129995    0.39867953038548215    0.40951215965844556    
  0.4000938309821464    0.37641773971481884    0.34561274788218455    0.3131989123841831    0.2824881201286888    
  0.25511245793353193    0.23166258283666558    0.21215429828958968    0.19639030606128374    0.1842071893928432    
  0.17554134974551527    0.17036681210345184    0.16864776021021033    0.17036334813541748    0.17553464332097232    
  0.18419768236625259    0.19637863734209499    0.2121412525261604    0.23164903492735814    0.1913364639295286    
  0.21214554273456285    0.23705626891304932    0.26595691238589797    0.2980565998907184    0.3313931272286745    
  0.3622180893391574    0.3847592733164874    0.3924079896981782    0.3807945165233315    0.3511370288020944    
  0.310871389147967    0.27049468048641434    0.23916742120662124    0.22239851041348654    0.222396645924055    
  0.23916178286404907    0.2704852669868492    0.310858569468382    0.35112184682052333    0.38077870393719176    
  0.39239358044878814    0.38474802032640804    0.3622110366167898    0.3313905265332988    0.29805808681643703    
  0.26596175044678394    0.23706354593437448    0.2121542997755698    0.19134576931830657    0.17443300153785804    
  0.16116375293687898    0.15136391712161035    0.14492084141089492    0.14173511386383852    0.14173379170993744    
  0.14491697202731801    0.15135779569157745    0.16115587035329884    0.17442401656927967    0.1913364639295286    
  0.1564939663481028    0.17442754411518802    0.1963863290316877    0.22257088803277936    0.2527989002308043    
  0.28614034077316275    0.3204224641924591    0.3517240405305787    0.37447399001172205    0.38300296698747505    
  0.37444630071606483    0.35113702808451136    0.3202688681532916    0.29083909364077315    0.270297088048419    
  0.26299646115109865    0.270292177800405    0.29082923497091284    0.3202542560884743    0.3511184688179497    
  0.3744254089751691    0.3829819513150224    0.3744550811447174    0.35170890370256136    0.3204119186657024    