#     DFTpy    
  CRYSTAL 
    
  PRIMVEC    
  3.990574595986001    1.6695085330000002e-05    -4.200000000000001e-13    
  -1.9952728396241504    3.4559474233002008    -8.190000000000001e-12    
  -6.900000000000001e-13    -1.5950000000000004e-11    6.561124683966631    
  PRIMCOORD    
  4    1    
  Si    9.934074360000001e-06    2.3039703506667104    3.6898048187028807    
  Si    1.9952918222828206    1.1519937676905505    0.40924242827069013    
  Si    9.934075860000002e-06    2.3039703506657605    6.151882207243841    
  Si    1.9952918222892904    1.1519937677161403    2.8713199136986205    
  BEGIN_BLOCK_DATAGRID_3D    
  3d_datagrid_density    
  BEGIN_DATAGRID_3D#0    
  41    41    65    
  0.0    0.0    0.0    
  3.9905746108709206    1.6695085392272987e-05    -4.2000000156660806e-13    
  -1.9952728470665562    3.4559474361909506    -8.190000030548857e-12    
  -6.900000025737132e-13    -1.595000005949381e-11    6.561124708439752    
  0.030592138683726858    0.03131628957233192    0.033530862467114265    0.03736474708685373    0.04304511652714454    
  0.05091820928190895    0.0614613446345364    0.07526089570506335    0.09295122686037094    0.1151360178784328    
  0.14231211834373222    0.1747855741369202    0.21254603741227296    0.2550820463536979    0.30117032258097526    
  0.3487255335913785    0.3948200132690896    0.4359491763999375    0.46852295905125774    0.48945417073466013    
  0.4966731806159938    0.48945417122919055    0.4685229602186018    0.43594917841660535    0.39482001613177947    
  0.3487255370881712    0.3011703263919981    0.25508205017150093    0.21254604100536223    0.17478557734776043    
  0.14231212105421132    0.11513601998894876    0.09295122831294492    0.07526089653290487    0.06146134497981131    
  0.05091820934657876    0.04304511648982977    0.03736474704901614    0.03353086245530222    0.031316289574193815    
  0.030592138683726858    0.0313162892714173    0.03131626854444432    0.03278556157472089    0.03580952097310584    
  0.040566375925978664    0.047343400251710965    0.05655254805847758    0.06872529466928178    0.08447339361822465    
  0.10442334477839385    0.12914184418207997    0.1590534759513465    0.19432885841836572    0.23472180346510815    
  0.27936656125578724    0.32659408291691594    0.37386427386675253    0.4179108782950149    0.4551318930375468    
  0.48214659370185997    0.49635595099153257    0.4963571311872012    0.48215001432965576    0.4551372031252367    
  0.4179175430797154    0.3738716767708382    0.32660164171609235    0.27937379896867287    0.23472836588387888    
  0.1943345143270109    0.15905811838016534    0.12914547810463994    0.1044260542725496    0.08447530788851722    
  0.0687265687994665    0.056553348528093225    0.047343881249597417    0.040566655113255155    0.03580967382706282    
  0.032785634178420515    0.0313162892714173    0.03353086187005964    0.03278556128707846    0.03353080996864963    
  0.03580952099594901    0.03975616218204413    0.04560975083172884    0.05372417640494056    0.06456557773523171    
  0.07869198769050507    0.09671598567472174    0.11924964086668251    0.1468234207923844    0.17976691221956081    
  0.21804693738864228    0.26107601033151295    0.30752799964308036    0.35522898519478857    0.4012147279415942    
  0.4420209632085117    0.4741767060100739    0.49475943920354537    0.5018445403901284    0.49476401267392844    
  0.4741854049378878    0.4420329270372533    0.40122880995729987    0.3552439643442695    0.3075427807555469    
  0.2610897338228006    0.2180590123723619    0.17977701981362254    0.14683149238591958    0.1192557969070895    
  0.09672045622608132    0.07869505596081526    0.06456755252717458    0.05372536444165159    0.045610417445193646    
  0.0397565046781266    0.03580967352227949    0.03353086187005964    0.037364746211531456    0.03580952042258923    
  0.03580952073778518    0.03736470375219718    0.04056644721023389    0.04560985452417011    0.05280118644714591    
  0.06254917944139786    0.07534815399261846    0.09176358540226633    0.11240899366689638    0.13788295062797792    
  0.1686445084659922    0.20483696947854618    0.24609182866281396    0.2913474694812215    0.33872755295812923    
  0.38555485844755555    0.4285807852139476    0.4644304670920918    0.4901314198858508    0.5035360797148933    
  0.503539455025916    0.4901412333886776    0.4644457922475565    0.4286001638487984    0.3855765184859847    
  0.33874971452467983    0.2913686117047371    0.24611083817044996    0.20485318261011867    0.1686576822217228    
  0.1378931756126429    0.11241657066325114    0.09176891459702313    0.07535167120490414    0.06255132402561786    
  0.052802367968017676    0.0456104171228333    0.040566654509966694    0.037364746211531456    0.04304511541965286    
  0.04056637516429119    0.03975616171853786    0.04056644700399069    0.04304514324702171    0.04734364395961072    
  0.05372454749532225    0.06254951916502921    0.07425658539027874    0.08935266225746116    0.10841660173855686    
  0.1320647508343202    0.160835077868506    0.19499847192265313    0.23434658254174592    0.2780012579158157    
  0.3242833177166878    0.37071191625125677    0.4142301510978717    0.451670100120589    0.4802970599754424    
  0.49817936997409734    0.5042521472363434    0.49818793646504383    0.48031342320755965    0.45169275432387174    
  0.4142570046523069    0.3707406047202499    0.3243116006503424    0.27802734712410265    0.2343693027850779    
  0.19501726003580874    0.16084987899699166    0.13207586556646378    0.10842452874595042    0.08935797681363862    
  0.07425986935632474    0.0625513236454693    0.053725363765017936    0.04734388034177517    0.04304511541965286    
  0.05091820803090482    0.04734339937210971    0.04560975025537489    0.04560985419966725    0.04734364383538934    
  0.05091839338842771    0.05655314697884258    0.06456651876842406    0.07534924940517645    0.089353517792264    
  0.10710839502883295    0.1292107120301001    0.15622609320757208    0.18849515707762102    0.22590192448819632    
  0.26766110719688974    0.3121645667688791    0.3569713880565431    0.399075946937911    0.4354882156230014    
  0.46390275939768244    0.48306822222916684    0.49263361197140326    0.4926387256824904    0.4830831273083441    
  0.46392615359050277    0.4355179954654416    0.3991094306062894    0.3570057307820649    0.3121972484015743    
  0.2676902857123745    0.22592654311851026    0.18851485732558604    0.15624104772698094    0.12922144484426068    
  0.10711561299951859    0.08935797631482593    0.07535167035278466    0.06456755143149971    0.05655334727769654    
  0.05091820803090482    0.061461343371630416    0.056552547194914315    0.053724175849453146    0.05280118613415426    
  0.053724547370284544    0.056553146970838075    0.06146188004750341    0.06872659817337239    0.07869399174607723    
  0.0917660368051289    0.10841900168510339    0.12921235005957568    0.15470757251528322    0.18527261153255367    
  0.22082739202619048    0.26059601086317674    0.3029111883054094    0.3451798067381671    0.3842124589077288    
  0.41700542851356626    0.4416760020203257    0.4579547097273226    0.4668415788506073    0.46961936950847377    
  0.466852679546235    0.45797603497660594    0.4417057793414336    0.41704105367043215    0.3842507890216079    
  0.34521769447972517    0.30294604206000003    0.2606261133960694    0.22085191257520642    0.18529144707483272    
  0.1547211530935376    0.12922144418157858    0.10842452760774919    0.09176891315655439    0.07869505435456348    
  0.06872656713888826    0.061461343371630416    0.07526089458470003    0.06872529397323197    0.06456557735318647    
  0.06254917929362386    0.06254951919209845    0.06456651890294729    0.06872659831276491    0.07526215246619589    
  0.08447593258367582    0.09671969773282028    0.11241352742506898    0.1320695138835845    0.15623030468499322    
  0.1852753047891576    0.21913966860601236    0.2570166690630243    0.29709403172340404    0.33646022437851963    
  0.37147783719777855    0.39881798362822135    0.4167977718051797    0.4261469448216746    0.42955542460689883    
  0.430217735896786    0.4302234315240918    0.4295721530049439    0.4261735576457199    0.4168321981701225    
  0.39885726388205717    0.37151851925517765    0.336499037340969    0.29712848311553325    0.2570452902199202    
  0.21916193972398493    0.18529144627658936    0.15624104627915172    0.13207586368110158    0.11241656854325276    
  0.09672045403552627    0.08447530575978261    0.07526089458470003    0.09295122603062252    0.08447339322710407    
  0.07869198761999006    0.07534815415607532    0.07425658572494831    0.07534924984548702    0.07869399219369334    
  0.08447593289605616    0.09295373606253572    0.10442777735070441    0.11925580935582981    0.13789041305975208    
  0.16084318260378688    0.18850305797917602    0.22083399742004858    0.25702065406134506    0.2951118613297411    
  0.33181506806950967    0.36284618916923217    0.3842043291872901    0.39402068247842953    0.3937712828033217    
  0.3878102960129138    0.38145428349740707    0.37883042907040326    0.3814649712667401    0.38783119921675024    
  0.39380118650130186    0.39405734014308863    0.3842445223543126    0.3628862950177549    0.33185186592652927    
  0.29514312026074707    0.2570452894123625    0.2208519109682574    0.18851485508299798    0.16084987635893258    
  0.13789317281382546    0.11925579413909877    0.10442605168550632    0.09295122603062252    0.11513601746225348    
  0.10442334479872506    0.09671598602055002    0.09176358599437674    0.08935266303753661    0.08935351869703567    
  0.09176603773707907    0.09671969854724646    0.10442777786382146    0.11514043037167598    0.1291489395378349    
  0.14683292876658086    0.16865591919413045    0.1950110714113462    0.22591473956759794    0.2606077432648471    
  0.29710315785450336    0.33182013543486205    0.3597920868123842    0.37606508597816785    0.37809777662579735    
  0.3676386857537523    0.3504206301100489    0.33375120004768055    0.3237598630978096    0.32376458885583187    
  0.33376531646702234    0.35044373358049374    0.367669532555563    0.37813393705387177    0.3761031567485891    
  0.3598284585574202    0.3318518652638921    0.29712848164349    0.2606261111176536    0.22592654021244363    
  0.19501725677304996    0.1686576788696779    0.14683148916083322    0.12914547516842487    0.11513601746225348    
  0.1423121184342385    0.12914184469159304    0.1192496417039823    0.11240899477662374    0.10841660308040843    
  0.10710839654737922    0.10841900328152129    0.11241352894667836    0.11925581060643159    0.12914894029099142    
  0.142319231731399    0.15906416665239662    0.1797808178807218    0.20485348862931183    0.23436486136052967    
  0.2676799346455781    0.30292897440298167    0.3364752039043236    0.36285679435605456    0.37607036691467993    
  0.3723942458163708    0.35314695316219674    0.32492600627240575    0.2968017100075369    0.27671704164717337    
  0.2695099280906059    0.27672489851838245    0.2968174552994229    0.32494924548959564    0.35317627772247856    
  0.3724270152441087    0.3761031562246405    0.3628862938739999    0.3364990354194121    0.30294603934032993    
  0.26769028237501874    0.23436929912659302    0.20485317892684118    0.17977701633927573    0.1590581152787947    
  0.1423121184342385    0.1747855747906106    0.15905347699941974    0.1468234221719617    0.13788295231967324    
  0.1320647528305976    0.1292107142945739    0.12921235249520435    0.13206951632536654    0.13789041529122753    
  0.1468329305391728    0.15906416769012896    0.17479638824460886    0.1943442420548795    0.21806638122790628    
  0.2461145571483143    0.27802616430871013    0.312190100918796    0.34520402184013105    0.3714986742060586    
  0.3842200626344274    0.3781075249030284    0.35315106696776927    0.3159344541379922    0.2769353918286012    
  0.24592445379812006    0.22911088091251164    0.22911396300238474    0.24593378387133996    0.2769509867242527    
  0.3159557079122327    0.353176277085448    0.3781339359702087    0.3842445207902015    0.37151851704195227    
  0.3452176915445725    0.3121972448902694    0.27802734333370394    0.24611083441115084    0.2180590088824246    
  0.19433451125988177    0.1747855747906106    0.21254603862811872    0.194328860006788    0.17976691415209853    
  0.16864451076419115    0.16083508056773774    0.1562260963041471    0.1547075759242768    0.1562303082311754    
  0.1608431860446449    0.16865592224913312    0.17978082024416916    0.19434424339985118    0.21256170268863483    
  0.2347429974371126    0.26110199414771984    0.2913771991651417    0.32431533615285374    0.35700372572976175    
  0.3842427400323442    0.39884379448606017    0.3940401574962309    0.3676511499472827    0.3249322796812041    
  0.276937410834481    0.23532018703313548    0.2080249970094083    0.19863917118598398    0.20802956155882651    
  0.2353293739828873    0.2769509858217196    0.32494924396267283    0.36766953069405295    0.39405733803330184    
  0.3988572613907829    0.38425078601405244    0.35700572731868624    0.3243115969764961    0.29136860810963167    
  0.26108973052809586    0.23472836301842506    0.21254603862811872    0.25508204804614737    0.2347218055158238    
  0.21804693980956885    0.20483697233215606    0.19499847529029865    0.1884951609992541    0.1852726159505344    
  0.18527530952940777    0.18850306277513618    0.19501107594315964    0.2048534925491117    0.21806638417284957    
  0.2347429990544767    0.2551036789707419    0.27939448841572895    0.3075611844180248    0.3387646021191348    
  0.37075093310891005    0.39911445616790553    0.4170405602772778    0.4168267863112027    0.39379237056716704    
  0.3504336094776571    0.2968080472094525    0.24592649899027005    0.2080250739524563    0.18828767335320518    
  0.18828917501289594    0.20802956054779895    0.24593378192867665    0.29681745269856685    0.3504437307104975    
  0.3938011836297077    0.416832195291928    0.41704105063365465    0.39910942735440236    0.3707406013794211    
  0.3387497113062107    0.30754277783221445    0.27937379643044963    0.25508204804614737    0.30117032456626425    
  0.27936656358932993    0.2610760130707398    0.24609183190948367    0.23434658642082007    0.2259019290878253    
  0.2208273973298821    0.21913967445895294    0.22083400354532445    0.22591474560879599    0.23436486691884453    
  0.24611456180983918    0.26110199751937657    0.2793944901823688    0.301198812844205    0.326629318192054    
  0.35526956912932506    0.38559895597532834    0.4142753304955503    0.4355314409078569    0.4417139595726158    
  0.4261767954835891    0.38783064175198545    0.3337626174060101    0.27672165481855504    0.22911131122197456    
  0.1986377255088084    0.18828767238736094    0.19863916921816477    0.22911396007768892    0.27672489487236296    
  0.33376531254113895    0.3878311954641422    0.4261735542720778    0.44170577626857227    0.4355179925392377    
  0.414257001829141    0.38557651583363084    0.35524396194443014    0.3266016396045663    0.30117032456626425    
  0.3487255356055082    0.3265940852652026    0.30752800242825273    0.2913474728406218    0.2780012620115794    
  0.26766111216175426    0.26059601672737204    0.2570166757078139    0.25702066122289874    0.26060775057057856    
  0.2676799416537858    0.27802617054756523    0.2913772041853222    0.30756118786334385    0.3266293198792796    
  0.348761430920063    0.3739069398907509    0.4012623188475178    0.4286309268041905    0.45171979004524837    
  0.4639484845611829    0.4579929559585632    0.42958362496538305    0.38147176635598423    0.3237680106581048    
  0.26951132996399596    0.22911131031690185    0.20802507212258683    0.20802499423634954    0.2291108772144198    
  0.26950992364407017    0.3237645840885899    0.3814649667522126    0.4295721491695356    0.45797603189681807    
  0.4639261510806583    0.4516927521676796    0.428600161924102    0.4012288082133107    0.3738716751728081    
  0.3487255356055082    0.39482001502904945    0.37386427593385635    0.35522898770635053    0.33872755607628385    
  0.3242833216271949    0.31216457163455763    0.3029111941945253    0.2970940385586779    0.29511186888446633    
  0.2971031657783762    0.3029289822504053    0.31219010818369625    0.3243153423312754    0.33876460679945447    
  0.3552695720881975    0.3739069411775218    0.394863414731889    0.41796049938576463    0.4420744273047131    
  0.46448484798128326    0.48034890434735916    0.4831137947345879    0.4668775164427135    0.43024206630490336    
  0.37884330324414367    0.32376800984919935    0.2767216531370829    0.24592649646695533    0.23532018368566773    
  0.24592444963783122    0.2767170367935681    0.3237598579162926    0.37883042416012175    0.43022342746352626    
  0.4668526765851914    0.4830831253020509    0.4803134218154936    0.46444579115604273    0.44203292604060446    
  0.4179175420591511    0.39482001502904945    0.43594917769801483    0.41791087985500314    0.40121472991093216    
  0.38555486098921427    0.37071191954756705    0.3569713922703892    0.34517981194906244    0.3364602305378654    
  0.33181507500070156    0.33182014285497746    0.33647521143397807    0.34520402901192343    0.3570037320350251    
  0.3707509380948067    0.38559895936343513    0.40126232063882644    0.4179604999293821    0.4359995526187623    
  0.4551872521501424    0.4742341505469157    0.4901876184819229    0.4982306800199396    0.4926763902486618    
  0.4696506959537691    0.43024206580575974    0.3814717650553464    0.3337626152648662    0.2968080443141974    
  0.2769374072598281    0.27693538760601333    0.2968017052180302    0.33375119497612266    0.3814542786911327    
  0.43021773198466995    0.4696193668679039    0.4926387242504499    0.49818793585139504    0.4901412331357753    
  0.4741854046963103    0.45513720268908403    0.43594917769801483    0.4685229598307206    0.455131894016795    
  0.44202096450796186    0.4285807869578455    0.4142301534201682    0.39907594995310386    0.38421246266257275    
  0.3714778416441002    0.3628461941794227    0.3597920922070296    0.36285679989977765    0.3714986795789672    
  0.3842427448313813    0.3991144599754029    0.4142753330014395    0.42863092793942975    0.44207442734110886    
  0.45518725172080243    0.4685790227246178    0.4822057572236498    0.49481844147370624    0.5035914431449101    
  0.5043003164541813    0.4926763903055831    0.4668775160369074    0.42958362378604364    0.3878306397494031    
  0.3504336067651201    0.32493227638820527    0.3159344503362394    0.3249260020312373    0.3504206256435915    
  0.38781029178009446    0.42955542120479184    0.46684157671388726    0.49263361112190457    0.5042521473038142    
  0.5035394554858518    0.4947640130775335    0.48215001439697935    0.4685229598307206    0.48945417107487454    
  0.4821465941728658    0.47417670666303263    0.46443046796219556    0.4516701012330528    0.43548821697966544    
  0.41700543007379937    0.39881798531323054    0.38420433091690465    0.3760650877033893    0.3760703686011531    
  0.3842200642030667    0.39884379576511125    0.417040561014397    0.4355314408539776    0.4517197890895696    
  0.46448484628914877    0.4742341486268579    0.4822057558528465    0.4895139417622522    0.4964165077449943    
  0.5019025005174189    0.5035914437419404    0.4982306807437045    0.4831137951082068    0.4579929556547856    
  0.42617679439742145    0.39379236877160523    0.36765114757494144    0.35315106411647057    0.35314694990733486    
  0.3676386822659609    0.3937712794590174    0.42614694215120963    0.4579547081701452    0.48306822187669957    
  0.4981793705232755    0.5035360806524014    0.5018445412297924    0.4963571316032238    0.48945417107487454    
  0.4966731806159938    0.49635595106369007    0.49475943929729266    0.4901314199007442    0.4802970597643215    
  0.4639027587781211    0.4416760008058823    0.41679776986310846    0.39402067979243915    0.37809777331529937    
  0.37239424208497707    0.37810752094794575    0.3940401534357084    0.4168267821599055    0.4417139552701909    
  0.46394848005996653    0.4803488997468552    0.49018761414092094    0.49481843799563485    0.4964165057892652    
  0.4967342359370857    0.49641650864288595    0.4948184430227173    0.49018762028135926    0.48034890597594987    
  0.46394848569163744    0.44171396003249125    0.4168267860759585    0.39404015662407327    0.37810752346178833    
  0.37239424387423586    0.3780977743312914    0.3940206801541067    0.4167977699217818    0.44167600100340665    
  0.4639027593943274    0.48029706077363604    0.4901314210415006    0.4947594402525015    0.4963559515980024    
  0.4966731806159938    0.48945417088897625    0.4963571308885816    0.5018445399750466    0.5035360789268852    
  0.49817936844955235    0.48306821953700835    0.4579547054738109    0.42614693879499066    0.39377127507916276    
  0.36763867668020905    0.35314694322562024    0.3531510566373902    0.3676511395929079    0.3937923604544808    
  0.4261767857975967    0.4579929468385289    0.483113786343605    0.4982306726367972    0.5035914371921352    
  0.5019024964427812    0.4964165066871568    0.48951394359705724    0.4822057597897339    0.47423415349737014    
  0.46448485094896674    0.4517197927240657    0.4355314430841156    0.41704056182774446    0.39884379535467684    
  0.3842200628037937    0.37607036640887065    0.3760650849204945    0.3842043278672172    0.3988179824771886    
  0.41700542794551304    0.4354882158322279    0.45167010099131366    0.46443046828015744    0.47417670711618065    
  0.4821465944144061    0.48945417088897625    0.46852295943913913    0.4821500135990221    0.4947640117554535    
  0.5035394535323732    0.5042521445917543    0.49263360746273294    0.46684157181306773    0.4295554146930196    
  0.3878102833839824    0.3504206153927967    0.32492599029727404    0.31593443765644913    0.3249322632450368    
  0.3504335934878333    0.38783062655842054    0.42958361092202413    0.46687750391315    0.4926763795986058    
  0.5043003080295537    0.5035914377891654    0.4948184395446457    0.48220575841893043    0.4685790261159526    
  0.45518725603960686    0.4420744313537357    0.42863093072832437    0.4142753340710832    0.3991144592158212    
  0.38424274240769274    0.37149867580181045    0.3628567951311083    0.3597920868487841    0.36284618872257385    
  0.37147783666753814    0.38421245869705306    0.39907594727794604    0.4142301519595512    0.4285807863591306    
  0.44202096432474    0.45513189386305425    0.46852295943913913    0.435949177118528    0.4551372019188034    
  0.4741854035620826    0.4901412313961584    0.4981879331370653    0.49263872005253395    0.4696193605943462    
  0.430217723108085    0.38145426697927454    0.33375118067380705    0.29680168899151077    0.27693537025196435    
  0.2769373894188713    0.29680802639354203    0.3337625975591281    0.38147174794340755    0.43024204991661263    
  0.4696506822018232    0.49267637965552685    0.498230673360562    0.49018761594035715    0.47423415157731225    
  0.4551872556102667    0.43599955709665145    0.41796050410243485    0.40126232351948815    0.38559896038080343    
  0.37075093705765105    0.3570037290455191    0.3452040243704441    0.33647520556053484    0.3318201362550214    
  0.3318150682665206    0.33646022431240896    0.34517980679167615    0.35697138848080523    0.3707119170840467    
  0.3855548595455472    0.40121472908308925    0.4179108792821781    0.435949177118528    0.39482001437181946    
  0.41791754147860954    0.442032925367459    0.46444579009143594    0.48031341982421    0.4830831215855616    
  0.46685267020090215    0.4302234175984245    0.3788304104768383    0.323759840775462    0.2767170171387393    
  0.245924428569867    0.23532016205039455    0.2459264747436825    0.2767216316219679    0.323767988955216    
  0.3788432837525887    0.43024204941746874    0.46687750350734375    0.4831137867172236    0.4803489013754455    
  0.46448484925683187    0.44207443139013125    0.41796050464605206    0.3948634197170539    0.3739069448363575    
  0.3552695738121896    0.33876460636222167    0.324315339795489    0.31219010381505213    0.30292897645479605    
  0.29710315907248064    0.2951118618841882    0.2970940319273291    0.3029111885091581    0.31216456722546954    
  0.32428331850788633    0.3387275540158335    0.3552289863796927    0.37386427504771425    0.39482001437181946    
  0.34872553507404136    0.3738716749935901    0.40122880826413    0.42860016192381367    0.45169275152835625    
  0.4639261488303849    0.45797602678691324    0.4295721400119924    0.38146495289324217    0.3237645657670081    
  0.2695099019372783    0.22911085353224453    0.2080249697331499    0.208025047455903    0.2291112858251343    
  0.269511306048985    0.3237679881463105    0.38147174664276945    0.42958360974268417    0.4579929465347509    
  0.46394848119042065    0.45171979176838645    0.42863093186356344    0.40126232531079653    0.37390694612312836    
  0.3487614357889625    0.32662932275420914    0.30756118851775927    0.29137720267890466    0.27802616712719525    
  0.2676799366906469    0.26060774454015945    0.2570206547043634    0.2570166693415167    0.26059601109096414    
  0.26766110761795836    0.2780012586380868    0.2913474704918347    0.30752800087035304    0.32659408428986936    
  0.34872553507404136    0.301170324406709    0.326601640045911    0.35524396292796684    0.38557651714071217    
  0.4142570029185157    0.43551799242189365    0.4417057735440439    0.42617354741949154    0.3878311833587945    
  0.33376529498238267    0.2767248727547464    0.2291139349785747    0.198639142669922    0.18828764540205664    
  0.19863769862905611    0.22911128492006158    0.27672162994049554    0.33376259541798403    0.38783062455583767    
  0.42617678471142834    0.4417139557300658    0.43553144303023583    0.4142753365769721    0.3855989637689101    
  0.3552695767710619    0.32662932444143467    0.3011988170466579    0.2793944921246164    0.2611019972791278    
  0.2461145596353544    0.23436486315440547    0.22591474067634587    0.220833997959187    0.2191396688068932    
  0.22082739217123573    0.2259019248112927    0.23434658316775187    0.24609182961831394    0.26107601159548977    
  0.27936656280414934    0.301170324406709    0.25508204847905136    0.27937379766393067    0.30754277986440426    
  0.33874971398978226    0.37074060427091815    0.3991094295744479    0.4170410508312421    0.41683219180903086    
  0.39380117491340166    0.35044371590075873    0.29681743209228506    0.2459337569037312    0.20802953290129955    
  0.18828914624383672    0.1882876444362123    0.2080250456260335    0.2459264722203675    0.29680802349828656    
  0.3504335907752958    0.3937923586589183    0.4168267819246606    0.41704056256486327    0.3991144630233183    
  0.37075094204354747    0.33876461104254135    0.3075611919630784    0.27939449389125637    0.255103682172613    
  0.2347430000799594    0.21806638327887531    0.20485349006416848    0.19501107224393402    0.18850305831023892    
  0.18527530482374382    0.18527261153106905    0.1884951572687934    0.194998472445629    0.20483697038813317    
  0.2180469386974917    0.23472180517847246    0.25508204847905136    0.2125460397895163    0.2347283651204873    
  0.2610897336061643    0.29136861207337617    0.3243116014835286    0.35700573165383764    0.3842507890269083    
  0.3988572615410712    0.39405733360107564    0.36766952022676147    0.32494922688617456    0.2769509628140099    
  0.2353293466994891    0.20802953189027187    0.19863914070210267    0.208024966960091    0.23532015870292652    
  0.27693738584421784    0.32493225995203734    0.36765113722056586    0.39404015256355    0.39884379663372754    
  0.38424274720672935    0.3570037353507822    0.3243153459739106    0.2913772076990852    0.2611020006507847    
  0.23474300169732362    0.21256170481017153    0.1943442436428413    0.17978081892556155    0.16865591971241786    
  0.16084318268549092    0.15623030451723952    0.1547075723452011    0.15622609326415815    0.16083507830442595    
  0.16864450935546574    0.17976691359276908    0.19432886029078655    0.2125460397895163    0.17478557669406988    
  0.19433451418129924    0.2180590128714305    0.24611083941283765    0.27802734908532234    0.3121972508313624    
  0.3452176967726684    0.3715185203096047    0.3842445205401619    0.37813393051521066    0.35317626508971234    
  0.31595568903658766    0.2769509619114767    0.2459337549610676    0.2291139320538788    0.22911084983415236    
  0.24592442440957782    0.2769353660293759    0.3159344338546956    0.3531510537860907    0.3781075195067048    
  0.38422006437243256    0.37149868117471874    0.3452040315422362    0.31219011107995226    0.27802617336605046    
  0.2461145642968793    0.21806638622381866    0.1943442449878131    0.17479638936483177    0.15906416730083497    
  0.14683292895931663    0.13789041287867104    0.13206951350396307    0.1292123497209787    0.12921071196408518    
  0.1320647512042593    0.13788295151867014    0.14682342223684253    0.15905347795765545    0.17478557669406988    
  0.14231212096370485    0.15905811884079643    0.17977702097897472    0.20485318460545532    0.23436930563647548    
  0.26769028927345256    0.30294604593684915    0.3364990407895062    0.3628862968268386    0.3761031552591715    
  0.37242700872685724    0.3531762644526819    0.3249492253592516    0.29681742949142886    0.27672486910872657    
  0.2695098974907422    0.27671701228513357    0.2968016842020034    0.3249259860561049    0.3531469399707575    