#     DFTpy    
  CRYSTAL 
    
  PRIMVEC    
  3.2029611888835006    1.3400002700000002e-05    -3.4000000000000007e-13    
  -1.60146898969833    2.7738525371225307    -6.570000000000001e-12    
  -5.500000000000001e-13    -1.2800000000000002e-11    5.266165864762691    
  PRIMCOORD    
  4    1    
  Si    7.973401790000001e-06    1.8492393604035404    2.961553867643101    
  Si    1.6014842257796302    0.9246265766989902    0.32847089637516    
  Si    7.973402990000002e-06    1.8492393604027801    4.937694929498351    
  Si    1.6014842257848303    0.9246265767195402    2.304612035994941    
  BEGIN_BLOCK_DATAGRID_3D    
  3d_datagrid_density    
  BEGIN_DATAGRID_3D#0    
  31    31    51    
  0.0    0.0    0.0    
  3.202961200830607    1.3400002749982268e-05    -3.4000000126820653e-13    
  -1.6014689956718402    2.773852547469054    -6.570000024506227e-12    
  -5.500000020515106e-13    -1.2800000047744247e-11    5.2661658844055905    
  0.1178722175194027    0.12171678951457555    0.1334341228691285    0.1535613909884517    0.18294814968195897    
  0.22265289782876624    0.2736959589251495    0.3366278154126949    0.410970148959883    0.4946259404754801    
  0.583394218008571    0.6709032342178006    0.7493731243152102    0.8111888112120902    0.8505019189172803    
  0.8639537431777052    0.8505019238745041    0.8111888198530496    0.7493731347782093    0.6709032448155712    
  0.5833942275796108    0.49462594835321594    0.4109701548246705    0.33662781917964146    0.27369596068815494    
  0.22265289785915424    0.18294814845802437    0.15356138917245665    0.13343412117233744    0.121716788511442    
  0.1178722175194027    0.12171678767618029    0.12171845881469309    0.1294989636891094    0.14540798099840607    
  0.1701230436618978    0.2045770805986881    0.24977512698100957    0.30645165939040453    0.37458071320824643    
  0.4527960797544368    0.5378289438639904    0.624238380918903    0.704875199155898    0.7722534188491964    
  0.8202430257259958    0.8450462861359956    0.8450451713699901    0.8202395811552005    0.7722474322797095    
  0.704866530134961    0.624227100210555    0.5378153870779125    0.45278085102610266    0.37456464295564346    
  0.30643569275093285    0.24976017309127968    0.20456390061232135    0.17011222010233756    0.14539994256258887    
  0.12949401479646985    0.12171678767618029    0.13343411940506134    0.129498962083324    0.13344078318532263    
  0.14541302982015694    0.16587611147530185    0.19555328706814676    0.23527024486892878    0.28566205865899036    
  0.34676829405601634    0.4175085975151217    0.49508589619947074    0.5746334421632602    0.6496537015337253    
  0.7134754240591823    0.7610609435231206    0.7899222248576305    0.7995236875496861    0.7899175801765672    
  0.7610513201289837    0.7134604520443608    0.6496333206540389    0.5746080926532555    0.49505656049261126    
  0.41747675185162153    0.34673575071721874    0.28563069958327664    0.23524175677941395    0.19552901997109248    
  0.16585707352446366    0.14539994158737715    0.13343411940506134    0.15356138632226438    0.14540797823606424    
  0.14541302869149433    0.15357636695182592    0.17013661108562833    0.19556193916182138    0.2304214252401026    
  0.2751040804361984    0.32944785242443275    0.39226167155646496    0.4607129304930067    0.5299314777313913    
  0.5935802248105306    0.6457143439973901    0.6829909520374625    0.7055501524161886    0.715763263887063    
  0.7157597475340391    0.7055393178014395    0.6829721890454242    0.6456872596139719    0.5935451036793515    
  0.5298894694395886    0.46066600405464564    0.39221240180663114    0.32939906797247315    0.2750584733495038    
  0.23038127503850184    0.19552901877043646    0.17011221796177603    0.15356138632226438    0.18294814441025897    
  0.17012304036963813    0.16587610988240134    0.17013661066090358    0.18297482228637935    0.20460273132735438    
  0.2352912616028996    0.2751165877649894    0.323589110472467    0.3791694045736563    0.43860324078052254    
  0.4964567538623332    0.5458707082936891    0.581063829461569    0.6002754980674879    0.6067445487009466    
  0.6067288887527863    0.6059633817204358    0.6067195407091166    0.6067250713276465    0.6002449289054632    
  0.5810218526417312    0.5458182467871748    0.4963960837526054    0.43853767314270564    0.37910273582279924    
  0.3235250728016643    0.27505847195437866    0.23524175420435936    0.20456389715838927    0.18294814441025897    
  0.22265289263545407    0.20457707748277262    0.1955532857580702    0.19556193910886333    0.20460273175199334    
  0.22269461505990157    0.24981636502867585    0.285699085414407    0.32947667054944235    0.3791858667046792    
  0.4310055288856492    0.4786223889373803    0.5140679461114631    0.5309765723938211    0.5286131727573333    
  0.5131404434255821    0.4947128172617323    0.48279708407329264    0.4827916871944095    0.4946959552661947    
  0.5131105122336793    0.5285687060259003    0.5309174778279396    0.5139962276093913    0.4785419485895377    
  0.43092127161297    0.37910273438280206    0.32939906514224393    0.2856306956043751    0.24976016831515718    
  0.22265289263545407    0.27369595448086703    0.2497751247065651    0.23527024453219522    0.23042142629789855    
  0.23529126325374464    0.24981636632398896    0.27375580775943087    0.30651171550674317    0.34682471997512104    
  0.39231032094793084    0.43863969199426234    0.4786422514931118    0.5029464471811269    0.5038357650240803    
  0.48071505595277975    0.442173654697595    0.40201351749395325    0.3728349262567089    0.36230090928206016    
  0.37282314697415414    0.40198810294268217    0.44213183223984376    0.4806548507839564    0.503757740216934    
  0.5028543209270868    0.4785419472398056    0.4385376703673524    0.3922123976566339    0.3467357454648163    
  0.3064356868094412    0.27369595448086703    0.3366278122944717    0.30645165848452816    0.28566205981230264    
  0.2751040831513711    0.27511659125064786    0.2856990886952672    0.30651171758196416    0.3367084157021362    
  0.3746623483547182    0.4175872666165001    0.4607841245800337    0.4965154247811319    0.5141091284256499    
  0.5038562387335899    0.4639921787933015    0.40453467878587146    0.3428334818277482    0.294638100280591    
  0.2689466932323206    0.26894087731316296    0.294619333957897    0.34279829681367197    0.40447906492776436    
  0.4639141099999162    0.5037577388392694    0.5139962249546927    0.49639607975960803    0.46066599875898934    
  0.4174767455429899    0.3745646361092668    0.3366278122944717    0.41097014759353157    0.37458071399696213    
  0.346768296968788    0.3294478570610073    0.32358911610052477    0.3294766762047199    0.34682472461800895    
  0.3746623510345727    0.41107345997908823    0.45290127013303977    0.4951885581957433    0.5300262873074175    
  0.5459515022189755    0.5310376006091313    0.48075330310481124    0.40455143552090705    0.32275426958477055    
  0.2552145865032289    0.2129308445877791    0.19880651696755064    0.2129188592875376    0.2551875105711788    
  0.3227069246213815    0.40447906324351907    0.48065484777281936    0.5309174737105912    0.5458182415615963    
  0.5298894631184136    0.49505655334438825    0.45278084355750464    0.41097014759353157    0.49462594108848074    
  0.4527960823161394    0.417508602161148    0.3922616780334312    0.3791694122614876    0.3791858747022145    
  0.3923103282219593    0.4175872721659154    0.45290127314270784    0.4947529503569457    0.5379584100817093    
  0.5747601227182139    0.5936974412325247    0.5811640009416416    0.5286899830620818    0.44222484275354246    
  0.3428617870580872    0.255225824873587    0.19464372403561525    0.16492345375594183    0.16491753207427304    
  0.19462412967623915    0.25518750866800294    0.34279829316523824    0.44213182725860917    0.528568700131269    
  0.5810218460105396    0.5935450963549013    0.5746080848453722    0.5378153792573779    0.49462594108848074    
  0.5833942205777162    0.5378289479793309    0.4950859022030601    0.4607129383140575    0.4386032499511313    
  0.43100553861988616    0.4386397013340218    0.460784132547475    0.495188563933486    0.5379584130067717    
  0.583544579153274    0.624391187987689    0.6498024024472175    0.6458505940760685    0.6003905195369454    
  0.5132280814461171    0.4020729570564059    0.2946737228841299    0.21294936581326987    0.16493084607845243    
  0.1494694629965752    0.16491753023131098    0.21291885550439835    0.2946193283086384    0.4019880958459791    
  0.5131105043264708    0.6002449206749654    0.6456872512637942    0.6496333123481456    0.6242270923063993    
  0.5833942205777162    0.6709032383861405    0.6242383860044    0.5746334487278201    0.5299314858981592    
  0.4964567633321686    0.4786223990766038    0.47864226149436856    0.4965154338067674    0.5300262945855082    
  0.5747601276473021    0.6243911903023297    0.6710750152927192    0.7050486157053526    0.7136423461241438    
  0.6831415887379565    0.6068697115511446    0.4948073943664368    0.3728998820987582    0.2689877396331096    
  0.1988307788049387    0.16493084434747066    0.16492345020836185    0.19880651148760442    0.26894086989011823    
  0.3728231379638059    0.4946959454411749    0.6067250615166907    0.6829721797423121    0.7134604434451444    
  0.7048665224450034    0.6709032383861405    0.7493731292884652    0.7048752042119346    0.6496537074032352    
  0.5935802317890799    0.5458707162510787    0.5140679545910952    0.5029464555874277    0.5141091361773833    
  0.5459515087994884    0.5936974462008356    0.64980240551558    0.7050486169255618    0.7495627567034641    
  0.7724431136332801    0.7612412000844709    0.7057105089869292    0.6068607309561805    0.4828968606192209    
  0.3623710726413682    0.268987738025353    0.21294936250941526    0.19464371899725505    0.21293083772163532    
  0.26894668448376885    0.36230089891699596    0.48279167599921163    0.606719529750523    0.7055393078906667    
  0.7610513115850929    0.7722474251828453    0.7493731292884652    0.8111888157588157    0.7722534225449805    
  0.7134754276556747    0.6457143478980628    0.5810638337063452    0.530976576744669    0.5038357691498587    
  0.5038562423725512    0.5310376036075758    0.5811640031929336    0.6458505954744282    0.7136423466416218    
  0.7724431135255028    0.8113914016479968    0.8204437437418733    0.7901108713643047    0.7159296691946995    
  0.6061001998433271    0.4828968593657799    0.3728998792363756    0.29467371837311    0.25522581876055883    
  0.2552145787703369    0.29463809088954074    0.372834915404737    0.48279707247050807    0.6059633705018053    
  0.715759737728753    0.7899175722612833    0.8202395751556423    0.8111888157588157    0.8505019216610219    
  0.8202430267728569    0.7610609434099562    0.6829909511527267    0.6002754966209197    0.5286131708110052    
  0.48071505352195054    0.4639921759544535    0.4807533000389243    0.5286899800104468    0.6003905167059176    
  0.6831415862474092    0.7612411980496713    0.8204437424494423    0.8507120619861422    0.845252816142828    
  0.7997164894634984    0.7159296686755371    0.6068607292059351    0.49480739100281323    0.4020729520719319    
  0.34286178060708655    0.32275426177447203    0.34283347269485115    0.4020135072095151    0.49471280642349025    
  0.606728878417636    0.715763255144146    0.7995236809949002    0.8450451670432996    0.8505019216610219    
  0.8639537431777055    0.8450462838965477    0.7899222204467591    0.7055501460153858    0.6067445406389784    
  0.5131404341502865    0.44217364469513987    0.40453466851004605    0.4045514253868598    0.4422248331764385    
  0.5132280728472512    0.6068697042988456    0.70571050333852    0.7901108674839118    0.8452528141580383    
  0.8641663116872252    0.8452528162899839    0.7901108711386211    0.7057105076949701    0.6068697087361141    
  0.5132280770521899    0.4422248369874283    0.404551428611783    0.40453467087874995    0.442173645981308    
  0.5131404343965213    0.6067445402660333    0.7055501455973819    0.789922220300151    0.8450462839321682    
  0.8639537431777055    0.8505019211307631    0.8450451663100811    0.7995236796110687    0.7157632528082757    
  0.6067288748091728    0.49471280127178247    0.40201350052167323    0.34283346479827936    0.32275425310897027    
  0.3428617715316409    0.402072942859409    0.4948073819710437    0.6068607208756331    0.7159296618246942    
  0.7997164849157334    0.8452528143051938    0.8507120624831769    0.8204437442265504    0.7612411999020455    
  0.6831415873429572    0.6003905167373115    0.5286899789892292    0.480753298012927    0.46399217290256195    
  0.48071504948974214    0.528613166155056    0.60027549208763    0.6829909475839493    0.7610609412376904    
  0.8202430257616519    0.8505019211307631    0.8111888153063246    0.8202395747158816    0.7899175706755133    
  0.7157597340746752    0.6059633642164779    0.4827970634874122    0.37283490420542353    0.29463807827136174    
  0.25521456543388016    0.2552258050845193    0.29467370453363884    0.37289986551437604    0.4828968464297131    
  0.6061001888151182    0.7159296613055319    0.790110867258228    0.8204437429341194    0.8113914026518257    
  0.7724431145633097    0.7136423463729974    0.6458505932963499    0.5811639990942556    0.5310375978430644    
  0.5038562352470243    0.503835761051521    0.5309765683324016    0.5810638259694195    0.6457143418700917    
  0.7134754239128177    0.7722534208869358    0.8111888153063246    0.7493731298049544    0.7722474262160031    
  0.7610513114178726    0.7055393048878891    0.606719522816872    0.48279166497861825    0.3623008846382402    
  0.26894666827763414    0.21293082069991434    0.19464370166427    0.21294934492798426    0.2689877202940865    
  0.36237105537410186    0.4828968451762719    0.6068607191253876    0.7057105020465606    0.7612411978672458    
  0.7724431144555323    0.7495627582257876    0.7050486171720625    0.6498024033879705    0.5936974414384962    
  0.5459515016784452    0.5141091272332953    0.5029464455223559    0.5140679443404954    0.5458707069934472    
  0.5935802246899848    0.6496537031718392    0.7048752027812195    0.7493731298049544    0.6709032406472313    
  0.7048665258272406    0.7134604459664795    0.6829721791939819    0.6067250561031375    0.4946959345075753    
  0.37282312230056286    0.2689408512370767    0.19880649151787133    0.164923429802389    0.1649308236365316    
  0.198830757748716    0.26898771868633    0.37289986265199326    0.49480737860742013    0.6068697014838147    
  0.6831415848524096    0.7136423468904753    0.7050486183922717    0.6710750172969306    0.624391189963981    
  0.5747601243383691    0.5300262884341971    0.49651542540098303    0.47864225171289093    0.47862238904574683    
  0.4964567543646696    0.5299314792508137    0.574633445220198    0.624238385730076    0.6709032406472313    
  0.5833942250104656    0.6242270983712883    0.6496333180996613    0.6456872542519895    0.6002449185193924    
  0.513110495593358    0.40198808073218134    0.29461930850966284    0.2129188331900278    0.16491750692219415    
  0.14946943922753503    0.16493082190554983    0.21294934162412957    0.2946737000226186    0.4020729378749346    
  0.5132280684533236    0.6003905139062831    0.6458505946947092    0.6498024064563327    0.6243911922786216    
  0.5835445815261668    0.5379584124461243    0.49518856034836073    0.4607841264439743    0.4386396936099927    
  0.43100553046527706    0.43860324273595774    0.4607129333442448    0.4950859003789811    0.5378289495374667    
  0.5833942250104656    0.49462594774021484    0.5378153878443689    0.5746080936528235    0.5935451030493467    
  0.5810218480003578    0.5285686952936709    0.4421318148007076    0.3427982740452691    0.25518748505503625    
  0.19462410372961245    0.16491750507923203    0.16492342625480885    0.19464369662590963    0.2552257989714908    
  0.3428617650806398    0.44222482741032393    0.5286899759375934    0.5811640013455471    0.593697446406807    
  0.5747601292674571    0.5379584153711868    0.49475295301622585    0.4529012728559111    0.4175872693010083    
  0.39231032358975304    0.37918586943901916    0.3791694077053086    0.3922616754845057    0.41750860256241457    
  0.4527960860112414    0.49462594774021484    0.4109701561910216    0.4527808541772446    0.4950565645647687    
  0.5298894729416265    0.5458182475932646    0.5309174735741009    0.4806548397805768    0.4044790471234374    
  0.32270690172426275    0.25518748315186046    0.21291882940688867    0.1988064860379249    0.2129308138337705    
  0.2552145577009879    0.32275424529867125    0.4045514184777351    0.4807532949470393    0.5310376008415082    
  0.5459515082589576    0.5300262957122875    0.49518856608610345    0.4529012758655792    0.4110734630317315    
  0.37466235162145894    0.34682472341189835    0.3294766742108575    0.3235891145466352    0.32944785718075414    
  0.3467682997036256    0.37458071976185303    0.4109701561910216    0.33662782229786437    0.3745646480648992    
  0.4174767583054772    0.4606660107103171    0.4963960889257231    0.5139962291785648    0.5037577360764288    
  0.46391409888546825    0.404479045439192    0.3427982703968353    0.2946193028604041    0.26894084381403177    
  0.26894665952908203    0.29463806888031097    0.3428334556653817    0.4045346606029236    0.4639921700637132    
  0.5038562388859851    0.5141091349850282    0.4965154344266181    0.4607841344114156    0.4175872748504237    
  0.3746623543013134    0.33670841941609153    0.30651171957370876    0.2856990897990337    0.2751165925337327    
  0.2751040857315512    0.2856620645890252    0.3064516659144359    0.33662782229786437    0.2736959651324371    
  0.3064356992560116    0.346735758799203    0.3922124105840827    0.4385376813362666    0.47854195454058024    
  0.5028543227174517    0.5037577346987641    0.48065483676943954    0.4421318098194728    0.4019880736354781    
  0.3728231132902143    0.36230087427317564    0.372834893353451    0.4020134902372342    0.4421736359788519    
  0.4807150470589121    0.5038357651772984    0.5029464539286564    0.47864226171414753    0.4386397029497523    
  0.3923103308637817    0.34682472805478615    0.30651172164892976    0.27375581229886214    0.24981636990865141    
  0.23529126677274137    0.23042143073131413    0.2352702507135014    0.2497751331123466    0.2736959651324371    
  0.22265290305246638    0.24976018033339414    0.2856307085169514    0.3293990779033446    0.3791027457570978    
  0.4309212803014905    0.478541953190848    0.5139962265238662    0.5309174694567524    0.5285686893990396    
  0.5131104876861494    0.49469592468255513    0.48279165378342    0.4827970518846269    0.4947127904335395    
  0.513140425121225    0.5286131642087271    0.5309765726832488    0.5140679528201271    0.47862239918497024    
  0.43100554019951415    0.3791858774365549    0.3294766798661353    0.2856990930798942    0.24981637120396466    
  0.22269462021097464    0.204602736599612    0.19556194450428763    0.1955532924690569    0.20457708599488963    
  0.22265290305246638    0.18294815372972412    0.20456390788195594    0.23524176578303707    0.2750584835298975    
  0.3235250833507472    0.3791027443171006    0.4385376785609138    0.49639608493272613    0.5458182423676864    
  0.5810218413691663    0.6002449102888945    0.6067250462921815    0.6067195118582779    0.6059633529978468    
  0.6067288644740217    0.6067445322040644    0.6002754906410609    0.5810638302141955    0.5458707149508369    
  0.49645676383450493    0.43860325190656696    0.3791694153931404    0.3235891201746932    0.2751165960193915    
  0.2352912684235867    0.20460273702425125    0.1829748274419378    0.17013661602709879    0.16587611618061512    
  0.1701230480950788    0.18294815372972412    0.1535613938386438    0.17011222670748613    0.195529028306041    
  0.23038128463933236    0.27505848213477224    0.3293990750731155    0.3922124064340855    0.460666005414661    
  0.5298894666204516    0.5935450957248968    0.6456872459018117    0.6829721698908692    0.7055392949771155    
  0.7157597242693884    0.7157632440653577    0.7055501391965783    0.6829909466992128    0.6457143457707637    
  0.5935802316685338    0.5299314874175816    0.46071294116529576    0.3922616819614722    0.32944786181732905    
  0.2751040884467243    0.2304214317891103    0.19556194445132974    0.17013661560237403    0.15357637138430774    
  0.14541303373928405    0.14540798441091227    0.1535613938386438    0.13343412463640458    0.14539994791601632    
  0.16585708057677073    0.1955290271053851    0.23524176320798237    0.28563070453805006    0.3467357535468009    
  0.417476751996846    0.495056557416546    0.5746080858449406    0.649633309793768    0.7134604373672631    
  0.7610513028739817    0.7899175627602288    0.7995236730562822    0.789922215889279    0.7610609411245252    
  0.7134754275093098    0.649653709041349    0.5746334517847579    0.4950859063825706    0.41750860720844146    
  0.34676830261639763    0.2856620657423379    0.23527025037676833    0.19555329115898068    0.16587611458771484    
  0.14541303261062163    0.1334407863496765    0.1294989661550809    0.13343412463640458    0.12171679034983732    
  0.12949401849039163    0.1453999469408046    0.17011222456692468    0.20456390442802402    0.2497601755572719    
  0.30643569331452025    0.374564641218523    0.4527808467086469    0.5378153800238347    0.624227090467133    
  0.7048665181372831    0.7722474191191386    0.820239568716323    0.84504516198339    0.8450462816927196    
  0.8202430268085125    0.7722534245827198    0.7048752078372561    0.624238390815573    0.5378289536528075    
  0.4527960885729444    0.37458072055056907    0.3064516650085599    0.24977513083790245    0.20457708287897441    
  0.1701230448028193    0.14540798164857066    0.12949896454929552    0.12171846044004346    0.12171679034983732    
  0.1178722175194027    0.12171678951457555    0.1334341228691285    0.1535613909884517    0.18294814968195897    
  0.22265289782876624    0.2736959589251495    0.3366278154126949    0.410970148959883    0.4946259404754801    
  0.583394218008571    0.6709032342178006    0.7493731243152102    0.8111888112120902    0.8505019189172803    
  0.8639537431777052    0.8505019238745041    0.8111888198530496    0.7493731347782093    0.6709032448155712    
  0.5833942275796108    0.49462594835321594    0.4109701548246705    0.33662781917964146    0.27369596068815494    
  0.22265289785915424    0.18294814845802437    0.15356138917245665    0.13343412117233744    0.121716788511442    
  0.1178722175194027    0.11680820889221598    0.1205955779799829    0.13213971821920242    0.15196977877982318    
  0.18092109768725734    0.2200313122433056    0.2702946444615937    0.33223455045187356    0.40535295324712867    
  0.487555380025133    0.5746889770395014    0.6604963613529564    0.7373730276283168    0.7978976581902704    
  0.8363781251766603    0.8495448586748302    0.8363821635629142    0.7979051472038655    0.7373829859466033    
  0.6605076661373208    0.574700563958938    0.48756638613989123    0.40536281167118543    0.3322429992741919    
  0.27030164013604285    0.2200369160659056    0.1809254069081244    0.1519729006790369    0.13214174885423613    
  0.12059658019153374    0.11680820889221598    0.12059657944885942    0.1205977342169526    0.128307059606031    
  0.14408052132922308    0.16860893392871346    0.20283145099433578    0.24772643112549694    0.3039560923205545    
  0.3713844907564514    0.44850492933440633    0.5318856320934033    0.6159616468189392    0.6936417965486659    
  0.7578164203663925    0.8030259437504405    0.8262035207235389    0.8262044155043873    0.8030282475005402    
  0.7578191649342205    0.6936438097157024    0.6159619051074299    0.5318834908024477    0.44850025921243536    
  0.37137769825787437    0.30394796935058077    0.24771789679700065    0.20282334184127973    0.16860192564286208    
  0.14407513475608763    0.12830367314371288    0.12059657944885942    0.13214174730872078    0.128220061462046    
  0.1321473294264656    0.14408602934569523    0.16452379354678898    0.19421524406005666    0.2339827990849506    
  0.28438540323081585    0.3452976840636113    0.4153711429755378    0.4914231184337091    0.568163547318393    
  0.6389011550599769    0.6973422121941341    0.7395032338088657    0.7643074233913855    0.7724051045243236    
  0.7643066026378768    0.7395007947425695    0.6973369482913099    0.6388919582768572    0.5681497949948205    
  0.491404899756386    0.4153493341668367    0.34527380991639833    0.28436128858192167    0.23396018375840102    
  0.19419555529080026    0.16450811014819225    0.1440751339145866    0.13214174730872078    0.15197289822792065    
  0.14379563861744454    0.14380011733019618    0.1519861492258593    0.16862339741286714    0.19422433337595676    
  0.22937360246891053    0.2743964714939552    0.32894414714545833    0.3914576222700973    0.4584929858417902    
  0.5244091813923725    0.5823390496477355    0.6266237756617389    0.6552757326147239    0.6704579863993314    
  0.6764349334616733    0.6764333105195025    0.6704526338216675    0.655265452596029    0.6266072580699253    
  0.5823154936145696    0.5243787084317523    0.4584567880833421    0.39141783253650725    0.3289034443640352    
  0.2743575687183748    0.2293388485725693    0.1941955542793247    0.1686019238220245    0.15197289822792065    
  0.18092540348095282    0.16796706462739708    0.16368345223041209    0.1679793954578586    0.18094958910477493    
  0.20285842070841195    0.23400468083625756    0.27440941100044697    0.3233869303296591    0.37896215482863255    
  0.4370760171503252    0.4911786958753328    0.5335172841271373    0.5584879884828229    0.5659798282941287    
  0.5617640074594955    0.5544111800814101    0.551056119902776    0.5544055883447658    0.5617516878272779    
  0.5659590782122462    0.558457436566778    0.5334767106859791    0.4911294219577519    0.43702075126972456    
  0.378904440329849    0.32333047576745527    0.274357567559989    0.23396018160982385    0.20282333894023313    
  0.18092540348095282    0.2200369116988032    0.2016276845538195    0.19246449062002288    0.19247246407240384    
  0.2016513005073097    0.22007525061482983    0.24776939575171805    0.28442371171972924    0.32897382289948957    
  0.3789790391229116    0.4296670691849889    0.47330034295943074    0.5006565470575783    0.5054620332148994    
  0.48902305005531865    0.46058927906914476    0.4327797581650458    0.41610711907470044    0.41610368905760176    
  0.4327686435974822    0.46056835025536885    0.48898987667486427    0.5054152698831185    0.5005970100197115    
  0.47323112475854967    0.4295927147721893    0.378904439130459    0.32890344201827254    0.2843612852820234    
  0.24771789282300688    0.2200369116988032    0.27030163498735055    0.24576600876588472    0.23094230461302995    
  0.2260002519995788    0.23096181931424897    0.24580426797318675    0.27035708435809985    0.30401825006451966    
  0.34535577361908265    0.39150749780034677    0.43711318541225797    0.4733203918299122    0.48910796188431815    
  0.4766860747972918    0.43795855273971446    0.38540378599933983    0.33554909092523616    0.3013082472049911    
  0.2892934959964355    0.30130056946372885    0.3355316163206662    0.38537301253220374    0.43791123676609384    
  0.47662129174703294    0.48902825584316123    0.4732311235790895    0.43702074892137777    0.39141782907783995    
  0.345273805561568    0.3039479644276949    0.27030163498735055    0.3322429935709853    0.3011398817355591    
  0.2797960395828547    0.2690019387539411    0.26901360750986536    0.2798305739215794    0.30119586179664126    
  0.33231804813098914    0.3714685243461468    0.4154517404003436    0.4585655415297627    0.49123792987441706    
  0.5006973942761184    0.476705796870424    0.42021766556381557    0.34616323593683107    0.27542486591386717    
  0.22362265522922978    0.19720860440844637    0.19720493539271108    0.22361028727700047    0.27539999091523276    
  0.3461208323452417    0.4201540449923591    0.47662129042016127    0.500597007591249    0.4911294184762384    
  0.4584567835988331    0.4153493288960691    0.37137769256951514    0.3322429935709853    0.40536280564444366    
  0.3677867645505687    0.33919367903179665    0.3214874159872625    0.31552105378435624    0.3215143602876473    
  0.33924643294985457    0.367863073709931    0.4054593310994124    0.4486126269248316    0.4915276560108003    
  0.5245049146121084    0.5335975823767262    0.5055210373763651    0.4379940188995801    0.34617793396661395    
  0.2554205096152605    0.18596363702616117    0.1452023994779513    0.13210685795602867    0.1451948343366308    
  0.18594541218079536    0.2553859504375346    0.3461208306820484    0.4379112337910635    0.5054152659478465    
  0.5334767059397636    0.5243787029283168    0.4914048936817843    0.44850025294043316    0.40536280564444366    
  0.4875663799979937    0.44445719595553995    0.40828761483822723    0.38260885268639383    0.3693793183095384    
  0.3693947215861507    0.382654383417549    0.40836127137043465    0.44455572926912007    0.48768536968593285    
  0.5320173373717689    0.5682914390023888    0.5824558180321477    0.5585854216670961    0.4890949533148103    
  0.38544917521657224    0.2754483049737827    0.18597225256398633    0.12886220912822338    0.1025580355138351    
  0.10255436600161716    0.12884948650823583    0.1859454104012164    0.2753999873847325    0.3853730076040494    
  0.4889898708830513    0.5584574302885041    0.582315486994885    0.5681497881786729    0.5318834841079866    