#     DFTpy    
  CRYSTAL 
    
  PRIMVEC    
  4.935710684509001    2.0649184480000003e-05    -5.200000000000001e-13    
  -2.4678374595351302    4.27446128671341    -1.0130000000000001e-11    
  -8.500000000000002e-13    -1.9720000000000004e-11    8.115075267011353    
  PRIMCOORD    
  4    1    
  Si    1.228688145e-05    2.8496475389825107    4.563705959974611    
  Si    2.4678609380866403    1.4248343968804205    0.5061682665453301    
  Si    1.2286883300000004e-05    2.8496475389813307    7.60890694053844    
  Si    2.467860938094651    1.4248343969120703    3.551369366943031    
  BEGIN_BLOCK_DATAGRID_3D    
  3d_datagrid_density    
  BEGIN_DATAGRID_3D#0    
  46    46    81    
  0.0    0.0    0.0    
  4.935710702919296    2.0649184557021855e-05    -5.2000000193961e-13    
  -2.467837468740211    4.274461302657232    -1.0130000037785095e-11    
  -8.500000031705164e-13    -1.972000007355598e-11    8.115075297280738    
  0.007861637680756617    0.008026881767635342    0.008536191526561203    0.009427670270821118    0.010761513622102668    
  0.012625449845473195    0.015145024726463608    0.018487312386646443    0.02285319661767163    0.028466783415716956    
  0.035572563634545695    0.04443592163021333    0.05532515666890808    0.06845510750135195    0.0838986168740719    
  0.10149918980991106    0.12081544791785225    0.14109780200037683    0.16128482431792868    0.18003859076351514    
  0.19586815137678915    0.20735215297553772    0.2133904871218896    0.21339048576631686    0.20735214928331866    
  0.1958681462963306    0.18003858539306872    0.16128481948736842    0.14109779809244155    0.12081544495570974    
  0.10149918765718816    0.08389861538922921    0.06845510658424814    0.05532515622509872    0.0444359215317105    
  0.035572563747611176    0.0284667836762721    0.022853197057966547    0.0184873130697353    0.015145025656953262    
  0.012625450938762918    0.010761514736538857    0.009427671256363108    0.008536192257218862    0.008026882155439796    
  0.007861637680756617    0.008026882200189867    0.008026880305552615    0.008364217704346068    0.00906496376275148    
  0.01017839551663441    0.011778741014397773    0.013973709943563591    0.016911489850445355    0.020778334616656593    
  0.025790230869978125    0.0321882218407448    0.04023801838614837    0.05021921733071552    0.06238506494971856    
  0.07688861022120781    0.09369506668529437    0.11251008505679146    0.13273723155021638    0.15345791829618    
  0.17343999921375258    0.19121657008019294    0.2052705773307956    0.21429007403526282    0.21739849177044007    
  0.21429024010875372    0.20527092038733877    0.19121707757397577    0.1734406175970206    0.15345857727715784    
  0.13273787699965842    0.11251068507253914    0.09369559977838092    0.07688906156953132    0.06238543168211023    
  0.050219507606412604    0.040238242682003454    0.03218838751526943    0.02579034406267108    0.02077840399058029    
  0.01691152786827414    0.013973731065039331    0.011778756967882121    0.010178410658314384    0.009064975968174521    
  0.008364224451501968    0.008026882200189867    0.008536192382374873    0.00836421812917141    0.00853618998352774    
  0.009064967010162345    0.009988322535884385    0.011369839848146782    0.013304773896424874    0.015926337519772422    
  0.0194062698659069    0.02395196913029777    0.029806558676185195    0.03724918699980281    0.04658230119425292    
  0.05809468910461862    0.07200078449036879    0.08836645853804885    0.10703450146052779    0.12755994535989085    
  0.14916100630239387    0.1706990209566025    0.19072367015357283    0.20762453455937502    0.2198797989052211    
  0.22632083635325173    0.2263210184646171    0.2198803474402555    0.20762542763289651    0.19072482330738863    
  0.17070030515513088    0.14916230580896742    0.12756118662950386    0.10703563607664975    0.08836744562351727    
  0.07200159946634341    0.05809533505394736    0.04658279976337858    0.03724956105218067    0.029806826334487255    
  0.023952147912219873    0.0194063800769323    0.015926401551193136    0.0133048124513997    0.011369866283012354    
  0.009988340526341425    0.00906497602893881    0.008536192382374873    0.00942767152879983    0.009064964589987538    
  0.009064967410817379    0.009427675675323134    0.010178407205470344    0.011369846696405122    0.013086981764735403    
  0.015451902531757579    0.01862475484457202    0.02280436693940776    0.028234499851483588    0.035209581457885504    
  0.044062445078833175    0.055125277562437756    0.06867337504644236    0.08486374705050057    0.10366733986762779    
  0.12478948513579044    0.14758793032450485    0.1710175102363756    0.1936437609916432    0.21376603264343055    
  0.2296543616193984    0.23983771640980445    0.24334463981408241    0.2398383055245986    0.2296554973482071    
  0.21376760403335762    0.1936455959053636    0.1710194342348019    0.1475898178038805    0.12479125374194634    
  0.10366892001317282    0.08486508150899978    0.06867444322037992    0.05512610053952999    0.04406306267777724    
  0.03521003110604279    0.02823481375605698    0.022804575801498014    0.018624887087867407    0.01545198166776767    
  0.013087025359813254    0.011369866372350679    0.010178410828794865    0.00942767152879983    0.010761515245908434    
  0.010178396705139953    0.009988323290572873    0.010178407554140593    0.010761528469965993    0.011778759043889942    
  0.013304787252815125    0.01545191414810439    0.01837068066800324    0.02225256930277302    0.027341000199907418    
  0.03394285717235897    0.042419948594811414    0.053150675160866225    0.06647623199375019    0.08264747933491427    
  0.10176352083872814    0.12368131806277655    0.14790267702402385    0.1734819108302294    0.1990083799758447    
  0.2227039997347095    0.24264461906459328    0.2570604221552411    0.26462074051271184    0.2646211429841043    
  0.25706159013923174    0.2426464304587638    0.22270625834067523    0.1990108613412467    0.17348442224741895    
  0.14790507983275422    0.12368350668436996    0.10176540858115882    0.08264901744545873    0.06647742749258048    
  0.05315157437473075    0.04242060535892325    0.03394331910946867    0.027341311859374728    0.022252771886656628    
  0.01837080560952357    0.015451981791433379    0.013304812686130603    0.011778757323392208    0.010761515245908434    
  0.012625451782705346    0.01177874250433622    0.01136984088881877    0.011369847317900738    0.01177875930936727    
  0.012625470274459363    0.013973736216104513    0.01592637341066526    0.018624807176035953    0.02225261897051859    
  0.027051109385686032    0.033336679140211566    0.04149618740250225    0.05195086409076837    0.06510704278371147    
  0.0813116594238745    0.10079609480616197    0.12357429881390526    0.1492981134071764    0.1771269070350754    
  0.20568096517106432    0.23312004791822588    0.257354286423771    0.2763523512867872    0.28845788371311865    
  0.2926132578575816    0.28845882257974254    0.27635413754211635    0.25735674168117817    0.23312292991068445    
  0.2056840162965111    0.17712990437658452    0.1493008875413828    0.12357672854614753    0.1007981102208368    
  0.08131325238561388    0.06510825565980531    0.05195175671180843    0.04149681514562422    0.033337095120779654    
  0.02705136914476184    0.02225277203653924    0.01862488738553473    0.01592640200323245    0.013973731694033776    
  0.012625451782705346    0.015145026913782736    0.013973711664014489    0.013304775143815898    0.013086982571861451    
  0.013304787689211296    0.01397373637981716    0.015145057466871158    0.016911549832178085    0.01940637053052067    
  0.022804508184352194    0.027341148616186757    0.03333678185503322    0.04119852910985567    0.05138578806663237    
  0.06436450581723625    0.08057265357038468    0.10037250726009936    0.12393926357420372    0.15108227858720916    
  0.18106933839155367    0.21254477022999582    0.24359533297451116    0.2719742027060876    0.2954457647372498    
  0.3121433564193463    0.32080011747614245    0.3208006215697198    0.31214483278795924    0.29544809896137053    
  0.2719771923718595    0.2435987021228002    0.21254822113766647    0.1810726133271279    0.15108519499007925    
  0.12394172110251332    0.10037448222215417    0.08057417995531008    0.06436564242025002    0.05138659276463674    
  0.04119905728495695    0.03333709525984058    0.027341312176204023    0.022804576315561223    0.019406380808896378    
  0.01691152884598886    0.015145026913782736    0.018487314757441874    0.01691149173107732    0.01592633889921503    
  0.015451903445134745    0.015451914671067062    0.01592637364835151    0.01691154990031832    0.01848738844775714    
  0.02077847504546093    0.023952184147278684    0.028234774474194636    0.03394315176521142    0.04149645546581952    
  0.05138597121388043    0.0641303054641132    0.08024837317176454    0.10022350396543717    0.1243897173769173    
  0.15272125983874146    0.18460067181695386    0.21867846735968033    0.25291109343453233    0.284824145932128    
  0.31197261260027676    0.3324263357365908    0.3450215803857909    0.3492594400185825    0.3450225505477325    
  0.3324282342401414    0.3119753230509625    0.2848274489260689    0.2529146853303421    0.2186820283185881    
  0.18460394024031967    0.15272407346712222    0.12439201453313761    0.10022529758136192    0.08024971436235961    
  0.06413125551354659    0.05138659281412233    0.0414968153667779    0.033943319566167945    0.028234814484042234    
  0.023952148938591534    0.020778405338704158    0.018487314757441874    0.022853199099231183    0.020778336589440772    
  0.019406271313925205    0.018624755803327887    0.018370681216905934    0.018624807425355213    0.019406370601338038    
  0.02077847504423259    0.022853359802859675    0.025790498747544115    0.029806931248550196    0.035210038785619735    
  0.04242046391973921    0.05195140355424672    0.06436500073804359    0.0802487013019155    0.10019139694505587    
  0.12467572566516612    0.15384517993013097    0.18721191861909267    0.22342695570116722    0.26023966338346644    
  0.29478396681933927    0.3242420810216434    0.3466391166688835    0.3612583001031044    0.3683477708182498    
  0.36834818821810783    0.36125955367841545    0.34664118292912577    0.3242448554673661    0.2947872336292445    
  0.26024312338424926    0.22343029982713272    0.18721490485469341    0.15384767341267533    0.12467768957043632    
  0.10019285661947377    0.08024971422319492    0.06436564236555088    0.05195175689427673    0.04242060586242476    
  0.03521003197452342    0.029806827591438576    0.025790345715953098    0.022853199099231183    0.02846678590750568    
  0.02579023285007351    0.02395197057869556    0.022804367888578207    0.02225256983072071    0.02225261918817278    
  0.0228045082152366    0.023952184101247245    0.025790498700989612    0.028467077032880858    0.03218866684590538    
  0.03724978086288986    0.04406318025171702    0.05315154391456548    0.06510800953771917    0.08057362415265434    
  0.10022433442654033    0.12467624651308704    0.15424266697085068    0.18858899207539304    0.22639560397770908    
  0.2651731693464685    0.30148626233508924    0.3318314824647159    0.35394043035301614    0.3676440555443285    
  0.37452665405299446    0.3765373728795364    0.3745272351202144    0.3676452609831389    0.35394228855888116    
  0.3318339345710984    0.3014891252693874    0.26517616267832195    0.22639843365545895    0.1885914392652795    
  0.15424462273763656    0.12467768920669758    0.10022529710573132    0.08057417962595191    0.06510825565713985    
  0.053151574796181315    0.04406306356553456    0.037249562414443695    0.032188389333408673    0.02846678590750568    
  0.035572565987287974    0.03218822370356081    0.02980656002727626    0.02823450071685992    0.027341000649198016    
  0.02705110952335757    0.02734114856318346    0.028234774340968934    0.029806931113116306    0.032188666756336914    
  0.03557304995164033    0.040238725850147455    0.0465832325066539    0.05512643995720358    0.06647762260196628    
  0.0813132249352276    0.1003741339181702    0.12439126102851676    0.15384647058833803    0.18858979049270816    
  0.2274015348286487    0.2676214835711186    0.3051827046750048    0.33558009475306594    0.35576534632996    
  0.3657921817840518    0.36873962768030083    0.36878743819889787    0.3687875499314132    0.36874001697923986    
  0.3657929754171724    0.35576665479486674    0.3355819139701933    0.3051848682635535    0.2676237131558032    
  0.22740355994579275    0.18859143880315793    0.15384767259113555    0.12439201363325617    0.10037448153723828    
  0.08131325212121826    0.06647742775341096    0.05512610135620417    0.04658280111753854    0.0402382445194895    
  0.035572565987287974    0.04443592366312217    0.04023801997837306    0.03724918813004352    0.03520958214397325    
  0.03394285746967957    0.033336679138775825    0.033336781666139    0.03394315149535947    0.03521003851193809    
  0.037249780632947774    0.04023872570751655    0.044436707041915186    0.05022031600520028    0.058096106963036055    
  0.06867512640061038    0.08264955766326666    0.10079843850859542    0.12394176531780664    0.15272378524576502    
  0.1872142716242285    0.2263974824446582    0.2676225398190791    0.30634080412929937    0.336922677804321    
  0.35500562013981757    0.3601555114491062    0.35651023597997217    0.3505826403924975    0.34790311236552385    
  0.350582537115214    0.35651016373290767    0.36015567653049607    0.35500618578690546    0.33692364837743133    
  0.3063420026470194    0.2676237128745302    0.22639843289163802    0.18721490371275676    0.15272407226029364    
  0.123941720161254    0.10079810977316278    0.08264901759733635    0.06867444398315525    0.05809533637502073    
  0.050219509391587924    0.04443592366312217    0.05532515822584437    0.050219218520489356    0.046582301996328714    
  0.04406244550295095    0.04241994868032896    0.04149618721980856    0.04119852875341858    0.04149645503176269    
  0.04242046347995772    0.044063179850534005    0.04658323218573911    0.05022031582128215    0.05532637152264153    
  0.062386690525069524    0.07200283320165436    0.08486624368658546    0.10176646497029695    0.12357763911447141    
  0.15108591851648812    0.1846044528181839    0.22343060123042924    0.26517628269748256    0.30518489581345876    
  0.3369237402649111    0.35438708941763325    0.35574720306396    0.34523153716649746    0.3311553742123067    
  0.3217267496662452    0.32172656977782627    0.33115489500783896    0.3452309260636956    0.3557466737150791    
  0.3543867867853918    0.33692364844312805    0.3051848680749299    0.26517616198838184    0.2234302987144981    
  0.18460393904003183    0.15108519406810778    0.12357672814865878    0.10176540880857918    0.08486508234847175    
  0.07200160082966583    0.06238543343769355    0.05532515822584437    0.06845510849130816    0.0623850656652341    
  0.05809468952324761    0.05512527768610529    0.05315067501552119    0.05195086372817691    0.0513857875609939    
  0.05138597064433601    0.051951402980719166    0.05315154337288219    0.055126439483501787    0.05809610661338675    
  0.06238669035134008    0.06845687359621255    0.07689089443735915    0.0883692929932061    0.10367076450947918    
  0.1236853396491981    0.14930268370207553    0.18107433922351557    0.21868366400243183    0.26024466373160976    
  0.30149057434168597    0.3355832945457008    0.35500753052021944    0.3557479691289468    0.34075292778693134    
  0.3190510528976377    0.30107024828519485    0.2942235349775843    0.3010697965560745    0.31905019857905453    
  0.34075178131284484    0.35574667382655456    0.35500618608984724    0.3355819141826681    0.30148912505956593    
  0.26024312273456734    0.21868202753521732    0.18107261279000303    0.14930088750441114    0.12368350723439173    
  0.10366892111088488    0.08836744715088575    0.07688906336849903    0.06845510849130816    0.08389861725097149    
  0.07688861043205696    0.07200078450649125    0.06867337486138572    0.06647623162446664    0.06510704227026538    
  0.06436450521723017    0.06413030483679948    0.0643650001236524    0.06510800895481265    0.0664776220738293    
  0.06867512597781096    0.07200283293877743    0.07689089433972171    0.0839010731349265    0.09369817809304325    
  0.10703831497967722    0.12479403705797894    0.14790796296412245    0.17713286018774582    0.21255121820967296    
  0.25291769844502415    0.2947902184186314    0.3318368000921255    0.35576927425125443    0.36015792093187415    
  0.3452326913337858    0.3190514299587358    0.2933506515705155    0.27796243936619336    0.2779622122545503    
  0.2933499450343773    0.3190501983693877    0.34523092602718447    0.3601556769165228    0.3557666554418342    
  0.33183393508138964    0.29478723381165    0.2529146853618459    0.21254822134964607    0.17712990500447387    
  0.1479050809403351    0.12479125526453302    0.107035637878052    0.09369560169166276    0.08389861725097149    
  0.10149918951545545    0.09369506634673232    0.08836645811656155    0.08486374653078085    0.08264747872852499    
  0.08131165876786765    0.08057265291582402    0.08024837256255757    0.08024870075426536    0.08057362365721513    
  0.08131322449037016    0.08264955730418537    0.0848662434644586    0.08836929291818445    0.09369817810520302    
  0.10150253069252299    0.1125142266244023    0.127564918220184    0.14759374501345018    0.1734885469594947    
  0.2056883297740444    0.24360318100403613    0.2848320238419341    0.3242493584898346    0.35394644260378216    
  0.3657964745872851    0.35651280307809824    0.3311566503631429    0.3010707998663956    0.27796264994685477    
  0.2694370331043993    0.277962211853069    0.30106979592484057    0.3311548945655155    0.3565101639152436    
  0.3657929762995346    0.3539422897987608    0.32424485669674247    0.2848274500872714    0.2435987033957677    
  0.20568401784671678    0.17348442410235815    0.1475898198783943    0.12756118878446232    0.11251068715220766    
  0.10149918951545545    0.12081544685293692    0.1125100840796604    0.10703450051973973    0.10366733893986138    
  0.10176351993257522    0.10079609396179116    0.10037250653330677    0.10022350339648411    0.1001913965303253    
  0.10022433412210198    0.10037413368336956    0.10079843834774799    0.10176646491864015    0.1036707645739386    
  0.1070383151036225    0.11251422671673189    0.12081987239098094    0.13274255464625112    0.14916722587616    
  0.1710246223951105    0.19901636023550784    0.23312875982542822    0.27198329686301675    0.31198150595663027    
  0.34664707296761654    0.3676503782872545    0.3687439636283879    0.3505851890996224    0.3217281025849036    
  0.2942242699178382    0.27796264960016137    0.2779624386378202    0.29422353400368745    0.3217265689531187    
  0.35058253699616493    0.3687400179176606    0.36764526284067456    0.3466411852641485    0.3119753255362767    
  0.2719771949356304    0.2331229325782317    0.19901086408355773    0.1710194369529446    0.149162308376402    
  0.13273787928930378    0.12081544685293692    0.1410978000725635    0.13273722984366976    0.12755994380909286    
  0.12478948371108067    0.12368131677161583    0.12357429770198705    0.12393926270934637    0.12438971680943732    
  0.1246757253854953    0.12467624644737418    0.12439126108877986    0.12394176546023103    0.12357763933906653    
  0.12368533994332684    0.12479403735657855    0.12756491843263867    0.13274255472688753    0.14110342258299327    
  0.15346446947222403    0.17070648513587988    0.19365213813591522    0.22271323959800832    0.25736415816708047    
  0.2954557907283775    0.33243583457675163    0.36126650573246233    0.3745329488564725    0.3687916668450489    
  0.3479056725944828    0.3217281023798806    0.30107079936966324    0.2933506507745315    0.30107024728737675    
  0.32172674878674734    0.34790311217210607    0.3687875509746149    0.3745272375273891    0.361259557075379    
  0.33242823809773436    0.2954481029196682    0.2573567455671395    0.2227062620442783    0.19364559931773787    
  0.17070030817386025    0.1534585798143015    0.1410978000725635    0.16128482156426485    0.15345791588555582    
  0.14916100415364883    0.14758792840201648    0.14790267533483292    0.14929811200218154    0.15108227754806383    
  0.15272125923539898    0.15384517976506631    0.1542426671584908    0.15384647100051815    0.15272378578162998    
  0.15108591911979266    0.14930268431568725    0.1479079634924816    0.1475937453499777    0.1491672259791773    
  0.1534644694265032    0.1612916640779545    0.1734477529368975    0.19073231392560455    0.21377554640129387    
  0.2426548707621303    0.2763629906365488    0.312153826557835    0.34503119703660173    0.3683558415051604    
  0.37654344371431475    0.36879166690663445    0.35058518898144553    0.33115665003308037    0.3190514294534142    
  0.3190510522931194    0.3311553737386416    0.35058264054212024    0.36878743959044846    0.3765373758531902    
  0.3683481925543674    0.345022555642157    0.3121448380470833    0.2763541425845553    0.24264643507656644    
  0.21376760810538786    0.19072482675849575    0.17344062037942717    0.16128482156426485    0.18003858748688034    
  0.173439996377726    0.17069901846293056    0.1710175080404229    0.17348190893612667    0.17712690549572271    
  0.1810693372988543    0.18460067126135474    0.18721191862671496    0.1885889925719616    0.18858979133509382    
  0.18721427266766497    0.18460445394260125    0.1810743403022354    0.17713286106341933    0.1734885474824491    
  0.17102462250874695    0.17070648494694912    0.17344775270226304    0.18004661878497097    0.19122542586975225    
  0.2076341706703743    0.22966469953909438    0.25707123340460425    0.28846875577654435    0.32081051275259514    
  0.3492687500369816    0.3683558420551152    0.3745329494996092    0.3687439641132166    0.3565128033841599    
  0.34523269153377517    0.34075292795962003    0.3452315374733626    0.3565102368101481    0.36873962962147816    
  0.3745266575581536    0.36834777583271927    0.34925944598053055    0.32080062776805046    0.28845882847370413    
  0.2570615954262401    0.22965550188783507    0.20762543137012002    0.19121708049272437    0.18003858748688034    
  0.1958681481830135    0.19121656739765758    0.19072366787025116    0.1936437590480805    0.19900837836542    
  0.2056809639397936    0.2125447694681732    0.21867846716451791    0.2234269561141267    0.22639560494376973    
  0.22740153621908152    0.22639748411156305    0.22343060302014042    0.2186836657215527    0.21255121961614806    
  0.20568833064218875    0.19901636046571108    0.19365213783851076    0.1907323134088464    0.19122542549945576    
  0.19587723091179643    0.2052802913088317    0.21989007435697644    0.2398484191872746    0.26463159383911355    
  0.29262386634816195    0.32081051372265823    0.3450311986413997    0.3612665075438967    0.3676503799961121    
  0.3657964760916274    0.36015792226324034    0.35574797035311706    0.3557472043057656    0.3601555130224084    
  0.3657921842193592    0.36764405933720623    0.36125830533638226    0.3450215866139511    0.3208001239921994    
  0.29261326404574156    0.26462114847243456    0.23983831014674722    0.21988035114659987    0.20527092317843626    
  0.1958681481830135    0.20735215062758855    0.20527057554737813    0.20762453323100113    0.2137660316939003    
  0.22270399913444855    0.2331200476883005    0.24359533317746765    0.25291109413756274    0.26023966460118786    
  0.2651731710124102    0.26762148557461723    0.2676225420587561    0.26517628506559254    0.2602446660397073    
  0.2529177003994018    0.24360318229508274    0.2331287602814268    0.22271323930292117    0.21377554569202056    
  0.2076341699818573    0.20528029094269795    0.2073619851257946    0.2143002756537043    0.22633132739574188    
  0.24335525257508125    0.26463159489738103    0.2884687578602604    0.31215382941888276    0.3324358378337401    
  0.3466470762538989    0.3539464456739304    0.35576927699205846    0.35500753291018083    0.3543870915389522    
  0.35500562226888677    0.3557653489652463    0.35394043401431813    0.3466391215513288    0.33242634154153133    
  0.31214336253074626    0.2884578895230319    0.26462074561705984    0.24334464401936348    0.22632102171089188    
  0.21429024239671554    0.20735215062758855    0.2133904862568539    0.21429007378280618    0.219879799190374    
  0.2296543623620332    0.2426446202036261    0.2573542879291654    0.27197420456866295    0.2848241481241466    
  0.29478396924668576    0.3014862648398443    0.30518270711877354    0.30634080647806244    0.30518489810302196    
  0.30149057653436523    0.29479022030620644    0.28483202511081956    0.27198329728175097    0.2573641577615899    
  0.2426548698527717    0.2296646985888347    0.21989007371339672    0.2143002753890864    0.21340068817434818    
  0.21740879581805853    0.22633132833432884    0.23984842118229424    0.2570712364627718    0.27636299457999225    
  0.295455795233613    0.3119815106426279    0.32424936299852525    0.3318368041434109    0.33558329797412106    
  0.336923743070469    0.33692268022603855    0.33558009727366533    0.331831485625796    0.3242420851092751    
  0.31197261746018956    0.2954457698836346    0.2763523561758854    0.2570604263869019    0.23983771976977117    
  0.22632083876157857    0.21739849321564977    0.2133904862568539    0.2133904866313523    0.21739849329132196    
  0.22632083852475268    0.23983771917945293    0.25706042543877594    0.2763523549805234    0.2954457687057768    
  0.31197261663487047    0.3242420848092002    0.33183148564311    0.3355800970734353    0.3369226792788771    
  0.3369237411353409    0.33558329507412576    0.3318368003608407    0.32424935837657104    0.3119815052898456    
  0.295455789497469    0.2763629890958592    0.2570712319696872    0.23984841818168065    0.2263313268683599    
  0.21740879561313034    0.21340068903465226    0.21430027742100868    0.2198900771349024    0.22966470334606198    
  0.24265487545479344    0.2573641634635255    0.27198330240146307    0.2848320292310642    0.29479022329023497    
  0.3014905784221771    0.30518489901438445    0.3063408066312425    0.3051827069245704    0.30148626486994723    
  0.2947839699805096    0.28482414967965913    0.2719742066820858    0.25735429017205336    0.24264462221505984    
  0.2296543639494262    0.21987980031460674    0.21429007449564616    0.2133904866313523    0.2073521516312676    
  0.2142902431359623    0.2263210222518313    0.24334464437319375    0.2646207457677403    0.28845788948869283    
  0.31214336241392954    0.3324263414784901    0.34663912151438064    0.35394043362279676    0.3557653475855066    
  0.3550056194132823    0.3543870871800078    0.3550075274065778    0.3557692707738351    0.3539464390355763    
  0.346647069409625    0.3324358311205842    0.31215382341369347    0.28846875324178156    0.2646315921075875    
  0.24335525157710935    0.22633132780694687    0.21430027715639074    0.2073619877275519    0.20528029481617546    
  0.20763417508584542    0.21377555158227943    0.22271324527847247    0.23312876567140797    0.24360318665238379    
  0.2529177035389115    0.26024466798278645    0.2651762859795171    0.267622542257328    0.26762148554940285    
  0.2651731713569963    0.26023966577273655    0.2529110962297531    0.24359533591691454    0.23312005063609523    
  0.2227040019009271    0.2137660340407456    0.20762453507472342    0.20527057692162687    0.2073521516312676    
  0.19586814949010609    0.2052709242434932    0.21988035211031554    0.2398383111022767    0.26462114944345455    
  0.29261326499232004    0.3208001248310575    0.3450215871940668    0.3612583053156598    0.3676440580734915    
  0.3657921809388282    0.3601555072758536    0.3557471962923412    0.3557479607840722    0.3601579119577602    
  0.36579646569884516    0.3676503700004754    0.3612664984427705    0.34503119106489216    0.3208105083087072    
  0.2926238634156816    0.264631593165855    0.23984842017670027    0.2198900764913227    0.20528029445004173    
  0.19587723516646555    0.19122543083762877    0.1907323194467709    0.19365214394899735    0.19901636603834433    
  0.20568833526209082    0.21255122309693916    0.21868366805833744    0.22343060434913767    0.2263974847238386    
  0.22740153658617623    0.22639560563537747    0.2234269575723122    0.2186784694951679    0.21254477243459047    
  0.20568096714046327    0.1990083814272795    0.19364376172358497    0.19072367005021224    0.19121656909182877    
  0.19586814949010609    0.18003858866970346    0.19121708144429603    0.20762543228228436    0.2296555029377717    
  0.25706159671987316    0.28845882998216316    0.32080062927206204    0.3492594470280503    0.36834777569405786    
  0.37452665524434764    0.36873962415860223    0.356510227760453    0.34523152525751677    0.3407529136301792    
  0.34523267626287213    0.35651278814672865    0.3687439497070126    0.37453293672537724    0.36835583179551296    
  0.34926874305103606    0.3208105092787703    0.2884687553254974    0.2570712350278546    0.22966470239580228    
  0.2076341743973283    0.19122543046733226    0.18004662422281012    0.17344775866614068    0.17070649090730575    
  0.17102462795048998    0.17348855206718816    0.177132864650514    0.18107434289134458    0.18460445563090283    
  0.18721427367352536    0.18858979204398643    0.18858899348168318    0.1872119201483843    0.18460067352024553    
  0.18106934011091083    0.1771269085152321    0.17348191182754968    0.17101751057013367    0.1706990205167761    