#     DFTpy    
  CRYSTAL 
    
  PRIMVEC    
  3.6755292331450002    1.5377052270000003e-05    -3.9000000000000005e-13    
  -1.8377512996538201    3.18310946882913    -7.540000000000002e-12    
  -6.300000000000001e-13    -1.4690000000000003e-11    6.043141156285051    
  PRIMCOORD    
  4    1    
  Si    9.149805330000003e-06    2.1220779545614405    3.398504438278971    
  Si    1.8377687836815404    1.0610468912939302    0.37693381551248006    
  Si    9.149806710000001e-06    2.1220779545605706    5.666207296145652    
  Si    1.8377687836875    1.0610468913175002    2.6446367626171505    
  BEGIN_BLOCK_DATAGRID_3D    
  3d_datagrid_density    
  BEGIN_DATAGRID_3D#0    
  37    37    61    
  0.0    0.0    0.0    
  3.6755292468547944    1.5377052327356703e-05    -3.9000000145470753e-13    
  -1.8377513065086675    3.1831094807021896    -7.540000028124347e-12    
  -6.300000023499122e-13    -1.4690000054793985e-11    6.043141178826083    
  0.05085137615649783    0.05221068399089202    0.05638588354261884    0.06367604014508149    0.07457962320703257    
  0.0897501164863046    0.1099261935435848    0.13588344250547793    0.16840492297252682    0.20818608404125527    
  0.2555847954393677    0.31023272645255906    0.37065197915968684    0.4340561892239596    0.49643254812036197    
  0.5528899896421948    0.5982273267013904    0.627703674744588    0.6379399734398807    0.6277036770145459    
  0.5982273309244898    0.5528899952817534    0.49643255455535773    0.4340561958597553    0.3706519854931098    
  0.31023273210394914    0.25558480015940704    0.20818608769064517    0.16840492549113698    0.13588344390853901    
  0.109926193955494    0.08975011616305358    0.07457962249061222    0.06367603936336004    0.05638588292727598    
  0.05221068366191769    0.05085137615649783    0.05221068320623203    0.05220994268352218    0.05497623176770343    
  0.06070643556141775    0.06979709497065806    0.08282159400436312    0.10047469751061402    0.12351644569800657    
  0.15273500301757892    0.18888188374783293    0.23249389906328025    0.2835692364649697    0.3411782692358475    
  0.4031694643753829    0.46611314917585095    0.5255310374355555    0.576375072865014    0.6137045276501863    
  0.6335059878660078    0.6335074780710207    0.6137089324315521    0.5763821937018249    0.5255405413991899    
  0.46612457189914586    0.40318222941428467    0.34119173701277855    0.2835827805679361    0.23250698169763445    
  0.18889409541636945    0.15274605768254346    0.12352615434724622    0.10048294623919202    0.08282833057934542    
  0.06980231236068808    0.06071014827813046    0.054978454826776144    0.05221068320623203    0.05638588201034338    
  0.05497623103474728    0.056382962499255715    0.060704295639836536    0.06823091600067684    0.07942936128092251    
  0.09490999365467599    0.11538885489110955    0.14164640972109946    0.17445489744551926    0.21442524602111132    
  0.26174685316673496    0.31585130068727457    0.37509606589581096    0.4366074183828916    0.4964041091292849    
  0.5498262993086042    0.5921751431758357    0.6194167828420558    0.6288214576128865    0.619422578556131    
  0.5921865080509748    0.5498427516781224    0.49642488422993225    0.4366314789879301    0.3751221785998779    
  0.31587817750095737    0.2617733167192618    0.21445034991766743    0.17447795815476103    0.14166696796110814    
  0.1154066207145925    0.09492480859634893    0.07944116994154118    0.06823972914674972    0.06071014778937423    
  0.05638588201034338    0.0636760379574796    0.06070643420092979    0.06070429502254635    0.06366960648984438    
  0.06979154781029981    0.0794260203107967    0.09307169372713586    0.11135718808809693    0.13501784520796992    
  0.1648177175136434    0.20138934096025768    0.2449994556038334    0.29526445364331966    0.35085278646257495    
  0.40927609403656773    0.46694741760765685    0.5196271503955364    0.5631435021311512    0.5940701621789776    
  0.6100989638714691    0.6101031436946969    0.5940825873549919    0.5631637720965755    0.5196544576391425    
  0.4669804752925038    0.4093131954322792    0.35089200285354505    0.29530390360325875    0.24503753957807353    
  0.20142485526461104    0.1648498376098884    0.13504604162741435    0.1113811468045996    0.09309126370921715    
  0.07944116936643783    0.0698023113254991    0.0636760379574796    0.07457962053363254    0.06979709316252752    
  0.06823091495324861    0.06979154738467667    0.07456849042882616    0.08281155217903688    0.09490233032852957    
  0.11135297268126093    0.1328083954956835    0.15998002564551747    0.19347619820903814    0.2335658227254347    
  0.27991674873433053    0.3313116829329079    0.38540470140961247    0.4387482700851529    0.48733432569253665    
  0.5275493324163287    0.5570085183477814    0.5747296727864033    0.5806154066197121    0.5747400428166201    
  0.5570291089226714    0.52757961685155    0.4873731316414846    0.43879369355716685    0.3854542979376709    
  0.331362853968609    0.2799671417756364    0.23361358438100915    0.19352002528546441    0.1600190733242242    
  0.13284214824199672    0.11138114607830446    0.09492480732282961    0.08282832890395497    0.07457962053363254    
  0.08975011357782758    0.0828215920045582    0.07942936006487543    0.07942601972440645    0.08281155201947211    
  0.08973332605905557    0.1004593582473198    0.11537622331118125    0.13500891425517889    0.1599754444140613    
  0.19081563723774642    0.22774074674184305    0.27037023476842853    0.317441177717483    0.36651744963524596    
  0.41398409539058756    0.4557301111967781    0.48847621086853377    0.5109692030072639    0.5241212222762291    
  0.529933124347832    0.5299389704225874    0.5241388220913414    0.5109985257150876    0.4885166413403585    
  0.45578004296103025    0.4140409199536905    0.3665779780439241    0.31750225146495253    0.27042921404544584    
  0.2277957090492179    0.19086531975443188    0.16001907241808586    0.13504604001692913    0.11540661860892326    
  0.10048294381716256    0.08975011357782758    0.10992619070615349    0.10047469562328497    0.0949099925780366    
  0.09307169329450224    0.09490233032957095    0.10045935841179349    0.10990316356946106    0.12349543879275496    
  0.14162862839015755    0.16480404534612264    0.1934671367391643    0.22773637710535125    0.26711903881644533    
  0.31019849902003377    0.3542791271800011    0.39531682722185324    0.42873580167450565    0.451215872916872    
  0.4624178564820263    0.46523695051615704    0.4642535120689376    0.4634196979391175    0.4642657451710633    
  0.4652617917653388    0.46245550477823916    0.45126558724347293    0.42879544034433115    0.3953830354405896    
  0.3543480638956606    0.31026664677794263    0.2671836905460697    0.2277957080228574    0.19352002336382587    
  0.16484983501945163    0.1416669649450162    0.12352615112116998    0.10992619070615349    0.13588344005710387    
  0.12351644423103611    0.11538885426270325    0.11135718812908693    0.11135297317851382    0.11537622399064841    
  0.1234954393201375    0.13585412201561337    0.15270850993542034    0.17443233021079363    0.2013714202601643    
  0.2335528557327387    0.27036212077242944    0.3101947905463825    0.350026578551786    0.385233123402113    
  0.4104720489960158    0.4219516584646447    0.4198435227937634    0.40878439604202277    0.39585138131688374    
  0.3875367682535059    0.387542691135967    0.3958695509520887    0.40881566360027466    0.4198882920696604    
  0.42200892962206066    0.41053904381952594    0.38530579260684955    0.35010064261609697    0.31026664577267876    
  0.2704292120132979    0.23361358146609407    0.20142485172305202    0.1744779542679759    0.15274605370451408    
  0.13588344005710387    0.16840492120433537    0.15273500224400344    0.14164640981050108    0.13501784600558386    
  0.1328083967984836    0.13500891578947805    0.14162862981224633    0.1527085108533631    0.16836988432289962    
  0.1888506921701392    0.2143988252040281    0.2449782898100181    0.27990088607363944    0.3174302883699504    
  0.35427260690318835    0.3852302242711952    0.404008405402847    0.4058850014146854    0.390974919077916    
  0.36524286385490906    0.33800343729127197    0.3179667834722023    0.31068447877333905    0.31797782323475665    
  0.33802651797753386    0.36527928051912417    0.39102509000155355    0.40594746311878993    0.4040796975095574    
  0.38530579173413404    0.35434806202998853    0.3175022485772735    0.2799671380198615    0.24503753524265032    
  0.21445034532467716    0.18889409085561135    0.16840492120433537    0.2081860831891335    0.18888188387815244    
  0.17445489845511294    0.16481771928238853    0.15998002800062514    0.15997544709467992    0.16480404800017434    
  0.17443233242324732    0.18885069349776748    0.2081465592496281    0.23245941335353923    0.26171805971649764    
  0.29524150257461274    0.33129427917690135    0.3665049665342004    0.39530845510413487    0.41046697760849143    
  0.405882618282235    0.38079720044993576    0.3418158333012419    0.30025244713263677    0.26693494235489684    
  0.24881098762574178    0.24881579389556022    0.26694999644306305    0.30027931123701673    0.3418559996701038    
  0.38085077176933535    0.4059474622701976    0.4105390421641375    0.39538303286815807    0.3665779744982104    
  0.3313628495917549    0.29530389870497    0.261773311657056    0.2325069767890704    0.2081860831891335    
  0.25558479565432046    0.23249390021648816    0.21442524805802457    0.20138934381544712    0.19347620176256308    
  0.19081564126206932    0.19346714088385145    0.20137142408411793    0.21439882822466708    0.23245941508699308    
  0.25554267800814157    0.2835334356608119    0.3158220707916868    0.3508298246009042    0.3853872669939356    
  0.41397118060473137    0.4287263569514036    0.4219448630286177    0.39097037162335624    0.34181350186341203    
  0.2872585270241145    0.2405292968026974    0.2102194813841679    0.19986822440565039    0.21022793477362792    
  0.24054744124650362    0.2872882147122402    0.3418559985915777    0.3910250881318606    0.42200892710191007    
  0.42879543710333445    0.4140409158963599    0.3854542931530886    0.3508919976347917    0.31587817221767683    
  0.28358277554897776    0.25558479565432046    0.31023272776612776    0.2835692386351072    0.261746856209634    
  0.24499945952664837    0.23356582748031593    0.22774075215763856    0.22773638285339945    0.23355286135360387    
  0.24497829477550148    0.26171806348902393    0.2835334377443376    0.3101904848230833    0.3411435433656465    
  0.37506856417406653    0.40925493534027485    0.43873215999022663    0.45571759954138086    0.45120572317945123    
  0.41983507242929546    0.3652360947821971    0.30024767756381165    0.24052681550980257    0.19729418424759945    
  0.1752476160173586    0.17525117863958506    0.1973054887780352    0.24054743995533137    0.3002793088398438    
  0.3652792773652215    0.41988828845474774    0.45126558322162563    0.45578003843506953    0.43879368852953005    
  0.4093131901165789    0.3751221733273223    0.34119173209345727    0.31023272776612776    0.3706519814578726    
  0.34117827226816333    0.31585130456040356    0.29526445845043053    0.2799167545109623    0.2703702414170034    
  0.2671190460546478    0.27036212814494115    0.2799008930156834    0.29524150848877084    0.3158220751189466    
  0.34114354565696575    0.370612397027708    0.4031382832041716    0.43658366503610047    0.46692952042923835    
  0.48732036283200253    0.4884643298482943    0.46240682863734656    0.4087739651439891    0.33799411540750535    
  0.26692741897272876    0.21021420053807072    0.1752448088246952    0.1636264707237204    0.1752511773505625    
  0.2102279321699877    0.2669499926627446    0.3380265133977335    0.40881565868822073    0.4624554998082136    
  0.4885166363113221    0.4873731264842076    0.46698047008149474    0.4366314739435113    0.40318222478088706    
  0.3706519814578726    0.4340561922425981    0.4031694679644376    0.3750960702620405    0.350852791788479    
  0.3313116893365029    0.31744118517809644    0.31019850731975185    0.3101947992669897    0.3174302969446201    
  0.33129428696884505    0.35082983098962334    0.3750685686453723    0.40313828544413643    0.4340219283586332    
  0.46608760098502594    0.49638551672601894    0.5196131861407522    0.5275374816700841    0.5109574101265741    
  0.46522428794872184    0.39583820744892023    0.3179541836438138    0.24879998624351665    0.19985940017842604    
  0.17524480760500355    0.1752476135351495    0.19986822061874182    0.24881578888098937    0.317977817339612    
  0.395869544758716    0.4652617857968037    0.510998520169281    0.5275796116590548    0.5196544527174021    
  0.4964248796207147    0.4661245677245369    0.4340561922425981    0.49643255146281984    0.4661131528854398    
  0.43660742275595105    0.4092760993296515    0.3854047078046705    0.3665174571729096    0.3542791357080777    
  0.35002658772009865    0.35427261620073697    0.36650497534919046    0.3853872746908952    0.409254941356544    
  0.4365836689912856    0.4660876027957745    0.49640561715544934    0.5255123249987053    0.5498132204053141    
  0.5631330171762406    0.5569977212590338    0.5241081754087878    0.46423785441491144    0.3875195517744056    
  0.3106673115359715    0.24879998507851914    0.21021419819487921    0.19729418072253402    0.21021947664013374    
  0.24881098169049473    0.31068447192454335    0.38754268397744784    0.4642657384086753    0.5241388161552166    
  0.5570291038272304    0.5631637676400573    0.5498427476954252    0.525540537843987    0.49643255146281984    
  0.5528899928186026    0.5255310407413103    0.49640411290907177    0.4669474221509453    0.43874827559773794    
  0.4139841019403982    0.39531683470587925    0.3852331315556402    0.3852302327012954    0.3953084633230562    
  0.413971188068922    0.4387321661681162    0.46692952490564743    0.4963855193326126    0.5255123259510145    
  0.5528712306104948    0.5763630838276907    0.5921665752688088    0.5940614715678374    0.5747179008280472    
  0.5299167698546071    0.4633991006893535    0.387519550797807    0.31795418151506877    0.2669274157291722    
  0.2405268112103974    0.24052929144688298    0.2669349359504831    0.31796677622151154    0.38753676070345167    
  0.4634196908611331    0.5299389644224396    0.5747400380344623    0.5940825835403387    0.5921865048601551    
  0.5763821909084677    0.5528899928186026    0.5982273291970412    0.5763750752321365    0.5498263018616628    
  0.5196271533871364    0.48733432929207077    0.45573011545550396    0.42873580651790144    0.410472054254208    
  0.4040084108485963    0.410466982970215    0.42872636190717067    0.4557176037287622    0.4873203659050593    
  0.5196131878871135    0.5498132209073185    0.5763630836013872    0.5982160614721124    0.6136976442698886    
  0.6194103866223883    0.6100893542199538    0.580599931956098    0.5299167694133433    0.4642378530004013    
  0.3958382048815424    0.3379941117663778    0.30024767298637406    0.28725852157846726    0.30025244084226227    
  0.33800343030111935    0.3958513740779083    0.4642535053119765    0.5299331187512577    0.5806154024346731    
  0.6101031406888813    0.6194225762803105    0.613708930512871    0.5982273291970412    0.6277036761201708    
  0.6137045286517256    0.5921751439810264    0.5631435028613495    0.5275493331286768    0.4884762115537914    
  0.4512158735243866    0.42195165894560765    0.4058850017482072    0.4058826184631973    0.4219448630316762    
  0.45120572292613154    0.48846432920207045    0.5275374804935579    0.5631330154734779    0.5921665733611974    
  0.6136976428610641    0.6276976809657799    0.6335012804574711    0.6288139461981079    0.6100893545011207    
  0.5747179007325232    0.5241081744009979    0.4652242858066377    0.40877396193466053    0.3652360906897889    
  0.3418134970283832    0.3418158277902013    0.36524285778623905    0.40878438977222586    0.4652369446787771    
  0.5241212175334532    0.5747296694576031    0.610098961786429    0.6288214563049682    0.6335074770892724    
  0.6277036761201708    0.6379399734398808    0.6335059873108192    0.6194167816743792    0.5940701602871962    
  0.5570085155888581    0.5109691992641199    0.46241785173965677    0.4198435171829436    0.3909749128461621    
  0.3807971938827643    0.39097036497807713    0.4198350659068847    0.4624068223702598    0.5109574041821852    
  0.5569977157073092    0.5940614666253787    0.6194103827589709    0.6335012782962001    0.6379358780414817    
  0.6335012812171188    0.6194103877568516    0.5940614724935543    0.5569977214498543    0.5109574092974123    
  0.46240682677325917    0.4198350696761225    0.3909703681391573    0.3807971963359699    0.3909749144511393    
  0.4198435179453601    0.4624178519462217    0.510969199389709    0.5570085160015295    0.5940701610185228    
  0.6194167824589706    0.6335059878097578    0.6379399734398808    0.6277036756389633    0.6335074760789964    
  0.6288214546756119    0.6100989595731358    0.5747296666934611    0.5241212140914819    0.46523694024836093    
  0.4087843840602234    0.365242850760953    0.3418158197133054    0.3418134882755528    0.3652360815630297    
  0.40877395259986643    0.46522427636216684    0.5241081650522154    0.5747178920035245    0.6100893473046057    
  0.6288139415781091    0.6335012790558474    0.6276976825715476    0.6136976464193155    0.5921665774524607    
  0.5631330189001894    0.5275374826058665    0.48846432987426813    0.4512057223286782    0.4219448613918706    
  0.40588261594353353    0.4058849984855132    0.42195165519921013    0.45121586977804246    0.48847620840790223    
  0.5275493310079806    0.5631435017832777    0.592175143586104    0.613704528432273    0.6277036756389633    
  0.5982273284288392    0.6137089294078941    0.6194225744623758    0.6101031378183754    0.580615398176764    
  0.5299331127520936    0.4642534972566728    0.3958513638741574    0.3380034182311637    0.3002524274758587    
  0.28725850750498433    0.3002476586202397    0.33799409735264196    0.3958381906405694    0.4642378393237225    
  0.5299167570303123    0.5805999219215754    0.6100893475857727    0.6194103838934338    0.613697645010491    
  0.5982160643851974    0.5763630870380011    0.5498132234482601    0.519613188673212    0.48732036465500733    
  0.45571760057001204    0.428726357166424    0.41046697702565516    0.4040084041002984    0.4104720471960059    
  0.42873579979112375    0.45573010974261957    0.4873343250609427    0.5196271506860837    0.5498263003421524    
  0.5763750743542261    0.5982273284288392    0.5528899921053455    0.576382190219464    0.5921865036387142    
  0.5940825811118386    0.5747400336314055    0.5299389573144786    0.46341968057194527    0.3875367472505862    
  0.3179667601978803    0.2669349182864937    0.24052927299302196    0.24052679248103562    0.2669273969596349    
  0.3179541629190759    0.3875195328660533    0.4633990843967603    0.5299167565890484    0.5747178919080004    
  0.5940614675510952    0.5921665755448486    0.5763630868116975    0.5528712343727089    0.525512328839467    
  0.4963855202889731    0.46692952347670813    0.438732162366614    0.41397118220688606    0.39530845587687125    
  0.3852302242433348    0.3852331227544711    0.39531682632240106    0.41398409471672404    0.43874827004252026    
  0.4669474183726119    0.49640411063728035    0.5255310395028832    0.5528899921053455    0.4964325512128999    
  0.5255405380521614    0.5498427477593082    0.5631637666877838    0.5570291007223046    0.5241388097117465    
  0.464265727780709    0.3875426690553161    0.3106844534628676    0.2488109609737473    0.2102194548749888    
  0.19729415862660973    0.21021417603014048    0.24879996299548074    0.31066728999922155    0.3875195318894546    
  0.4642378379092121    0.5241081640444251    0.5569977158981292    0.5631330171974264    0.5498132239502643    
  0.5255123297917761    0.4964056212644726    0.466087604969258    0.436583668635661    0.4092549383769812    
  0.38538726933571993    0.3665049680932507    0.35427260767320135    0.35002657867122344    0.3542791269661162    
  0.3665174495232161    0.38540470180208763    0.4092760951626659    0.43660742026799115    0.4661131517227725    
  0.4964325512128999    0.4340561928411168    0.4661245691925611    0.4964248814102079    0.5196544539248097    
  0.5275796109590338    0.5109985159973478    0.4652617768106182    0.39586953041225675    0.3179777982155504    
  0.2488157664443196    0.19986819648044368    0.17524758879240912    0.17524478271679766    0.1998593753192869    
  0.24879996183048306    0.3179541607903306    0.39583818807319127    0.46522427422008217    0.5109574033530226    
  0.5275374814293398    0.5196131904195731    0.4963855228955666    0.46608760678000627    0.43402193231242087    
  0.40313828684522407    0.37506856732640825    0.35082982714328365    0.3312942810280921    0.3174302895154154    
  0.31019479109476855    0.31019849924059667    0.3174411779981518    0.3313116836579152    0.3508527878877618    
  0.37509606810597385    0.40316946733254005    0.4340561928411168    0.37065198319492376    0.4031822277113171    
  0.4366314776136898    0.46698047367499834    0.48737312869638516    0.4885166354239417    0.4624554940645309    
  0.4088156469155929    0.33802649558897446    0.26694997005641213    0.21022790662661764    0.17525115047184167    
  0.16362644341250965    0.17524478149710604    0.21021417368694867    0.2669273937160782    0.3379940937115139    
  0.40877394939053724    0.4624068205061716    0.4884643292280435    0.4873203677280637    0.46692952795311693    
  0.43658367259084596    0.40313828908518884    0.3706124004052038    0.341143546313059    0.31582207321265904    
  0.2952415044119326    0.27990088732166274    0.2703621215242482    0.26711903930328157    0.27037023533380466    
  0.2799167497351049    0.29526445533999995    0.31585130319460786    0.3411782725464764    0.37065198319492376    
  0.3102327307903802    0.34119173651831775    0.3751221787894412    0.40931319593141713    0.43879369355620196    
  0.45578004105808756    0.45126558154901614    0.4198882807885741    0.3652792628626127    0.30027928799452763    
  0.24054741441436572    0.19730546051636375    0.1752511491828191    0.17524758631020013    0.19729415510154433    
  0.24052678818163042    0.3002476540428016    0.3652360774706208    0.41983506315371094    0.45120572207535803    
  0.4557176047573929    0.4387321685445033    0.40925494439325044    0.37506857179771397    0.3411435486043783    
  0.31019048740862176    0.2835334378111022    0.2617180613973498    0.2449782910274624    0.23355285657184213    
  0.22773637776928837    0.227740747536593    0.23356582397716316    0.2449994575608258    0.2617468559478865    
  0.2835692400682714    0.3102327307903802    0.255584799944454    0.2835827813285353    0.31587817919416383    
  0.35089200524843256    0.38545430046955786    0.4140409215622097    0.4287954394020533    0.4220089241710925    
  0.3910250784396419    0.34185598159578034    0.28728819123586724    0.24054741312319347    0.21022790402297742    
  0.19986819269353506    0.21021945013095467    0.24052926763720725    0.28725850205933656    0.34181348344052326    
  0.3909703614938773    0.42194486139492854    0.42872636212219056    0.4139711896710764    0.38538727703267933    
  0.3508298335320029    0.3158220775399189    0.283533439894628    0.25554267982921525    0.2324594148256543    
  0.2143988263400811    0.20137142113835527    0.19346713754029085    0.19081563823540815    0.19347619969676794    
  0.20138934316103088    0.21442524903679583    0.23249390287723015    0.255584799944454    0.20818608854276674    
  0.2325069836169642    0.2617733197206771    0.29530390754615304    0.33136285845804947    0.36657798232161043    
  0.39538303827756616    0.4105390435142216    0.4059474578077969    0.38085076012256935    0.34185598051725424    
  0.3002792855973546    0.2669499662760937    0.24881576142974865    0.24881095503850006    0.2669349118820796    
  0.3002524211854836    0.3418158142022641    0.3807971897687973    0.40588261612449505    0.41046698238737817    
  0.39530846409579223    0.36650497690824074    0.3312942888200357    0.2952415103260908    0.2617180651698761    
  0.23245941655910832    0.20814656049852753    0.1888506932090894    0.1744323311086173    0.16480404626174616    
  0.15997544558913548    0.15998002733740957    0.164817719909958    0.17445490061621513    0.1888818876488601    
  0.20818608854276674    0.16840492725932818    0.1888940982880204    0.214450353939014    0.24503754466260813    
  0.2799671476323967    0.3175022575408397    0.3543480693122744    0.3853057960892427    0.40407969742235933    
  0.4059474569592045    0.39102507656994895    0.36527925970870995    0.3380264910091739    0.31797779232040563    
  0.3106844466140715    0.317966752947189    0.3380034112410106    0.36524284469228224    0.3909749082193844    
  0.40588499881903434    0.4040084095460473    0.38523023267343487    0.3542726169707498    0.3174302980900853    
  0.2799008942637069    0.24497829599294588    0.21439882936072024    0.1888506945367177    0.16836988527241867    
  0.15270851085000545    0.14162862940257925    0.13500891557060649    0.13280839732981692    0.13501784770646869    
  0.14164641291536395    0.15273500683256436    0.16840492725932818    0.13588344635691293    0.15274606122807383    
  0.17447796285567638    0.20142486106539811    0.23361359105486298    0.2704292211627313    0.3102666536919297    
  0.3501006484228663    0.3853057952165272    0.41053904185883316    0.42200892165094184    0.41988827717366156    
  0.40881564200353904    0.39586952421888366    0.3875426618967964    0.3875367397005313    0.39585135663518123    
  0.4087843777904256    0.4198435123345393    0.42195165568017245    0.41047205245419766    0.3852331309079981    
  0.35002658783953605    0.31019479981537584    0.2703621288967601    0.23355286219270754    0.20137142496230917    
  0.174432333321071    0.15270851176794828    0.13585412298037422    0.12349543990666631    0.11537622473556641    
  0.11135297458461593    0.11135719057208288    0.1153888579506388    0.12351644923282579    0.13588344635691293    
  0.10992619679292508    0.12352615824590871    0.14166697297874464    0.16484984370583844    0.19352003227370215    
  0.2277957165761916    0.2671836980997109    0.31026665268666576    0.3543480674466026    0.3953830357051348    
  0.4287954361610566    0.4512655775271688    0.46245548909450523    0.4652617708420828    0.46426572101832053    
  0.4634196734939604    0.464253490499711    0.4652369344109801    0.4624178472038514    0.45121587038555666    
  0.42873580463451905    0.39531683380642707    0.3542791354941928    0.31019850754031486    0.26711904654148433    
  0.22773638351733655    0.19346714168497822    0.16480404891579792    0.14162863082466814    0.12349544043404875    
  0.10990316484161519    0.10045935978872716    0.09490233225824182    0.09307169610638004    0.09490999645117001    
  0.1004747006114796    0.10992619679292508    0.08975011907153041    0.10048295015462362    0.11540662568710681    
  0.1350460476202702    0.16001908017513028    0.1908653271590085    0.2277957155498311    0.27042921913058343    
  0.31750225465316073    0.3665779787758969    0.41404091750487937    0.45578003653212684    0.4885166303949054    
  0.5109985104515411    0.5241388037756215    0.5299389513143302    0.5299331071555187    0.5241212093487053    
  0.5109691956465642    0.4884762090931593    0.45573011400134517    0.41398410126653457    0.3665174570608796    
  0.3174411854587654    0.27037024198237963    0.2277407529523886    0.19081564225973113    0.15997544826975416    
  0.13500891710490573    0.11537622541503356    0.10045935995320084    0.08973332777604877    0.0828115541450335    
  0.07942602255617491    0.07942936376004649    0.0828215966068249    0.08975011907153041    0.07457962516401216    
  0.08282833419731442    0.09492481319648985    0.11138115234737557    0.13284215457615656    0.16001907926899195    
  0.19352003035206375    0.23361358813994795    0.2799671438766221    0.33136285408119553    0.3854542956849758    
  0.43879368852856515    0.4873731235391082    0.5275796057665386    0.5570290956268632    0.5747400288492474    
  0.5806153939917246    0.5747296633646604    0.5570085132426053    0.5275493317203284    0.48733432866047655    
  0.4387482755551054    0.38540470819714584    0.3313116900615104    0.2799167555117368    0.23356582873204448    
  0.19347620325029297    0.15998002969251737    0.13280839863261718    0.11135297508186885    0.0949023322592833    
  0.08281155398546879    0.0745684924690172    0.06979154993847164    0.0682309181731893    0.06979709709322818    
  0.07457962516401216    0.06367604155096192    0.06980231543242368    0.07944117391798668    0.09309126854301426    
  0.11138115162108056    0.13504604600978504    0.16484984111540177    0.20142485752383912    0.24503754032718522    
  0.2953039026478643    0.3508920000296794    0.4093131906157169    0.46698046846398955    0.5196544490030695    
  0.5631637622312654    0.5940825772971853    0.6101031348125594    0.610098957488095    0.5940701591267407    
  0.5631435025134756    0.5196271536776835    0.4669474229159001    0.40927610045574964    0.3508527932136658    
  0.295264460147111    0.2449994614836409    0.20138934601622052    0.1648177216787032    0.13501784850408274    
  0.11135719061307298    0.09307169567374653    0.07942602196978474    0.06979154951284859    0.06366960851378313    
  0.060704297531766864    0.06070643725303967    0.06367604155096192    0.05638588445955142    0.060710150644846875    