#     DFTpy    
  CRYSTAL 
    
  PRIMVEC    
  3.596767892434751    1.5047544010000001e-05    -3.800000000000001e-13    
  -1.7983709146612405    3.1148999802113604    -7.380000000000001e-12    
  -6.200000000000001e-13    -1.4370000000000001e-11    5.913645274364661    
  PRIMCOORD    
  4    1    
  Si    8.953738080000001e-06    2.076604855535131    3.3256793431729905    
  Si    1.7983880240312207    1.03831017219477    0.36885666232293013    
  Si    8.953739430000003e-06    2.0766048555342707    5.544788568371102    
  Si    1.7983880240370604    1.0383101722178403    2.5879659748467803    
  BEGIN_BLOCK_DATAGRID_3D    
  3d_datagrid_density    
  BEGIN_DATAGRID_3D#0    
  37    37    61    
  0.0    0.0    0.0    
  3.5967679058507636    1.5047544066127628e-05    -3.800000014174073e-13    
  -1.7983709213691983    3.114899991829997    -7.380000027527543e-12    
  -6.20000002312612e-13    -1.4370000053600376e-11    5.913645296422671    
  0.05824775087843193    0.059757046547399835    0.0643930552457511    0.07247947599255232    0.08453755478795842    
  0.10123221900055099    0.12330217307305791    0.15151207603124178    0.18661527263242464    0.22924237622738747    
  0.27963408412216934    0.3372485771415744    0.40040516142395194    0.4661464770894297    0.5303815272410837    
  0.5882398869929842    0.6345769636634756    0.6646720489322201    0.6751210332448347    0.6646720516095472    
  0.6345769685849458    0.5882398934574699    0.5303815344907302    0.4661464844515198    0.4004051683633063    
  0.33724858326786405    0.27963408918373517    0.22924238009106188    0.1866152752540671    0.15151207744589482    
  0.12330217342030485    0.10123221854800245    0.08453755389686622    0.07247947502494802    0.06439305447567903    
  0.05975704613112526    0.05824775087843193    0.05975704564460395    0.05975715807380464    0.06282964938500828    
  0.06918866842878933    0.07925314220496578    0.09361229659104758    0.11296681549583525    0.13807194938213946    
  0.16969354686221738    0.2085303700735893    0.25502260907041097    0.3090197436991228    0.3693994127680165    
  0.4338129656418974    0.49869501387145304    0.5595407826043672    0.6113673874465905    0.6493186060526694    
  0.6694261177792216    0.6694252230438132    0.6493160396112415    0.6113634618957409    0.5595359083515337    
  0.49868960658559863    0.43380740358098785    0.36939402634648494    0.309014791656075    0.25501824535224443    
  0.20852664707394936    0.1696904603228724    0.13806947600382136    0.1129649141692575    0.09361089951578898    
  0.07925216578417381    0.06918803463473583    0.06282929690884424    0.05975704564460395    0.06439305348760517    
  0.06282964854529025    0.06439350267919901    0.06918898410750125    0.07752013712080469    0.0898659175655356    
  0.10684524424692254    0.1291759947697814    0.1576217743265419    0.19290294383651108    0.2355354402907912    
  0.2855708645303657    0.3422616349684312    0.4037580694306642    0.4670002819345573    0.5279185171425419    
  0.5819103077420732    0.6244506863724434    0.6517073923620706    0.6610968208332043    0.6517039177651158    
  0.6244441651016384    0.5819014658955922    0.5279081908693124    0.46698927712022814    0.40374710851963375    
  0.34225132443864253    0.28556163060462203    0.23552748837254006    0.19289630611320627    0.1576164004470868    
  0.12917179707715196    0.10684209362820389    0.08986365085807893    0.07751859355752176    0.06918803410644533    
  0.06439305348760517    0.07247947349177522    0.0691886668758561    0.06918898340629763    0.07248045819154901    
  0.07925391388597446    0.08986631253698955    0.1048181628380621    0.12474052881417792    0.1503575535243765    
  0.18238416413212855    0.2213529276348319    0.26738528115904237    0.31991334607493976    0.3773850898616753    
  0.4370876873903564    0.495292434298446    0.5477992186634145    0.5906822391070979    0.6208836485242668    
  0.6364436196868225    0.6364410338708694    0.6208761983503198    0.5906707682173582    0.5477848977715866    
  0.4952765161061768    0.437071343476423    0.3773693364444742    0.31989896961995073    0.2673727541027275    
  0.22134240788803256    0.18237560163967068    0.15035080155081582    0.12473538527666479    0.1048143833459886    
  0.08986365022972985    0.07925216465506406    0.07247947349177522    0.08453755174170748    0.07925314014661929    
  0.07752013593560099    0.07925391340972318    0.08453918256295526    0.09361353823391315    0.10684596068082096    
  0.12474077107591812    0.14792916272692033    0.17707592072369543    0.21268831459876839    0.2548786902932896    
  0.30310846693260624    0.35590701532266494    0.410661961968268    0.46374811186960374    0.5111994517704769    
  0.5497173064489435    0.5774181801784746    0.5938339419606926    0.5992350550451608    0.5938274175395808    
  0.5774058419686523    0.5497004459518433    0.5111796835575391    0.4637270845250789    0.41064115793914474    
  0.3558876329388946    0.3030913199448466    0.25486416044138005    0.21267642746129217    0.17706649549182332    
  0.1479219212900368    0.12473538448748396    0.10684209223656727    0.09361089767868967    0.08453755174170748    
  0.10123221568938127    0.09361229431335674    0.08986591618994588    0.08986631188515215    0.09361353806420569    
  0.10123446115034004    0.11296838773020242    0.12917680848094262    0.15035773461591306    0.17707577287914014    
  0.2097666762595014    0.24847722502799988    0.29259675051337425    0.3405642702348471    0.38962352899214664    
  0.4359543221667181    0.47552391118658843    0.5054678112161387    0.5251494567094898    0.53607682596693    
  0.540670150779082    0.5406663096383058    0.5360656763321122    0.5251320998166947    0.5054459492205251    
  0.47549955687829754    0.4359294499519523    0.38959980983919884    0.3405429129679669    0.292578430064992    
  0.2484621274079207    0.2097546510354661    0.17706649452793458    0.15035079981682853    0.12917179478802174    
  0.11296491151491549    0.10123221568938127    0.12330216983179734    0.11296681333223098    0.10684524301944295    
  0.10481816235830124    0.10684596069901404    0.1129683879272304    0.12330484395349203    0.13807356817028554    
  0.1576223177791456    0.18238381758567335    0.21268743820002642    0.24847638627515276    0.28900766931461463    
  0.3325227641366489    0.3759446556161567    0.41499316860295554    0.44523120789326776    0.4639029383524219    
  0.471428797374725    0.4713315050700236    0.46852738869578703    0.4670751017533708    0.46851933272043217    
  0.4713160494524726    0.471407312890796    0.46387742752752237    0.44520397629590985    0.4149663872872919    
  0.37592001661271085    0.3325013172172329    0.28898983922459665    0.24846212634430226    0.21267642544176518    
  0.1823755988798693    0.15761639719439194    0.13806947248508594    0.12330216983179734    0.15151207320572643    
  0.13807194766899053    0.12917599402760035    0.12474052885490566    0.1247407716480804    0.12917680925990602    
  0.13807356876973348    0.15151483294327955    0.16969476818215315    0.1929026632422295    0.22135137169187058    
  0.25487628899775266    0.29259419740061404    0.3325209881491809    0.3711841154424056    0.4036707059998553    
  0.42482849166995446    0.431616566685344    0.4251736193847888    0.410820420628602    0.3958254967107991    
  0.38655241215411734    0.38654849685784315    0.39581395716155804    0.4108019969922943    0.42514978455336105    
  0.43158948805814856    0.4248006359729705    0.4036442859138726    0.3711606811039825    0.3325013161935055    
  0.2925784279770315    0.25486415740604645    0.2213424041472399    0.1928963019515715    0.16969045600670138    
  0.15151207320572643    0.18661527054121244    0.16969354589964517    0.15762177436473793    0.15035755439150572    
  0.1479291641836852    0.150357736338979    0.1576223193713443    0.16969476920321117    0.1866175811540314    
  0.2085305391728989    0.23553355628977474    0.26738163733642817    0.30310362432258003    0.3405590949999143    
  0.3759402098461451    0.4036680461809428    0.41762378447782406    0.41400269094702025    0.3941614852944896    
  0.3649037921280858    0.3356349816856482    0.31466653170998804    0.307123680593118    0.3146596979582296    
  0.3356214911945403    0.3648843094528543    0.394137483950166    0.41397641041419037    0.41759772133613704    
  0.40364428501133887    0.3759200147044303    0.3405429100056168    0.3030913160488624    0.26737274954197127    
  0.2355274834713948    0.20852664213730135    0.18661527054121244    0.22924237513101642    0.2085303700938051    
  0.19290294487602114    0.18238416605449656    0.17707592332170943    0.17707577584522782    0.18238382051620938    
  0.1929026656730087    0.20853054062090864    0.22924347702409806    0.2550208613105656    0.2855664472845793    
  0.3199066928731644    0.35589887964030614    0.3896149569815287    0.41498534361419437    0.42482255158419446    
  0.413999535357608    0.38328551589628873    0.34041995350276466    0.2968507612136698    0.2627970323204564    
  0.24450098447973156    0.2444982545479349    0.2627887924216759    0.29683705361999113    0.34040136582677505    
  0.3832635352836907    0.41397640949621406    0.42480063421872555    0.4149663846134508    0.38959980617412343    
  0.3558876283845963    0.31989896445816557    0.2855616251929985    0.2550182400275425    0.22924237513101642    
  0.2796340841906678    0.2550226102048854    0.23553544244607097    0.22135293073055926    0.21268831848181005    
  0.2097666806586318    0.21268744271740317    0.22135137583982237    0.23553355954509353    0.2550208631631032    
  0.27963304179731135    0.30901512590410224    0.3422537882914554    0.3773746508603788    0.4106498852297516    
  0.43594181787419173    0.4452196189134513    0.4316072053463759    0.39415532764457833    0.3404172232096629    
  0.28358008083087105    0.23619694108594627    0.20591196622736996    0.19563158233323752    0.20590796384211268    
  0.23618877377466882    0.2835677471672759    0.3404013646678664    0.3941374819183241    0.4315894853321945    
  0.44520397284808855    0.43592944568724196    0.4106411529074062    0.37736933090235725    0.3422513187512476    
  0.3090147861750626    0.2796340841906678    0.33724857842035005    0.30901974594584275    0.28557086777644713    
  0.2673852854007811    0.2548786954512458    0.24847723088884266    0.24847639246649028    0.254876295018494    
  0.26738164262082653    0.28556645126817487    0.3090151280840323    0.33724442168029495    0.36939106323620385    
  0.40374609589045646    0.4370729422314022    0.4637317411253205    0.4755073333054553    0.4638877735609978    
  0.4251614339061307    0.3648955744427563    0.2968464547355881    0.2361955152941184    0.1930597175595428    
  0.17125771381578905    0.1712564301601777    0.19305577680195773    0.2361887724281194    0.2968370510825699    
  0.36488430605544353    0.42514978061676245    0.4638774231604619    0.47549955201251437    0.4637270791419731    
  0.43707133775301577    0.40374710277709    0.3693940209182911    0.33724857842035005    0.4004051638099014    
  0.36939941597087367    0.3422616391180772    0.3199133512609296    0.3031084731621561    0.2925967576466868    
  0.289007677026672    0.2925942051994138    0.30310363161298454    0.3199066990361411    0.3422537927621814    
  0.3693910655811218    0.4003970411572128    0.43380024491358804    0.4669837719624413    0.4952732098115453    
  0.5111788992619755    0.5054476691669625    0.47141103990760014    0.41080677273501265    0.3356262108158739    
  0.26279262652086355    0.20591053894603206    0.17125769587312495    0.15980319126762263    0.17125642882977188    
  0.2059079611438663    0.2627887884624542    0.33562148631605915    0.410801991661156    0.4714073074313362    
  0.5054459436894461    0.511179677901057    0.4952765103793447    0.4669892715326187    0.43380739839723126    
  0.4004051638099014    0.46614648032361594    0.4338129694873383    0.40375807412620873    0.3773850955951557    
  0.35590702218895254    0.3405642781709639    0.3325227728806796    0.33252099724963646    0.34055910386964794    
  0.3558988876337482    0.3773746573607615    0.40374610040165965    0.43380024715303045    0.4661337661648962    
  0.4986775871891421    0.5278974482147473    0.5477758588591614    0.5496933723557625    0.5251270560556546    
  0.47131285164011905    0.39581219215402336    0.3146588644337073    0.24449792740024082    0.19563148288084262    
  0.17125769461196752    0.17125771124911043    0.1956315784096383    0.24449824931645353    0.3146596917212348    
  0.3958139504735497    0.47131604286492546    0.5251320935998126    0.5497004400947543    0.5477848922077393    
  0.5279081856398696    0.49868960182826627    0.46614648032361594    0.5303815309137871    0.4986950178976878    
  0.4670002866503979    0.4370876930662085    0.4106619687695979    0.38962353691963375    0.375944664473359    
  0.3711841248485339    0.3759402192802314    0.3896149658407676    0.41064989290154214    0.437072948183649    
  0.46698377584705647    0.49867758895242337    0.530363923911568    0.5595187331583154    0.5818852004202957    
  0.5906557654378707    0.5773923992529086    0.5360540913881775    0.46850987582696196    0.3865413074790785    
  0.30711868553111094    0.24449792619325042    0.20591053651598268    0.19305971389862575    0.20591196129097772    
  0.24450097827323763    0.30712367335002044    0.38654848913729356    0.46851932523070966    0.5360656695727741    
  0.5774058360468278    0.5906707629910743    0.5819014612208901    0.5595359041956238    0.5303815309137871    
  0.5882398905645201    0.5595407862290666    0.5279185212082171    0.4952924391150538    0.4637481176351064    
  0.4359543289174264    0.4149931761980773    0.4036707141498629    0.4036680544915596    0.4149853516214495    
  0.43594182507796264    0.46373174704478026    0.4952732140748638    0.5278974506795538    0.559518734045858    
  0.5882175456182062    0.6113413542299788    0.6244227005546119    0.6208557184034227    0.5938083394041922    
  0.5406492336299776    0.46706073468504566    0.38654130645239193    0.3146588622122704    0.2627926231358393    
  0.2361955107962757    0.23619693546699735    0.26279702557148854    0.31466652399630674    0.3865524039748376    
  0.46707509386461027    0.540666302702903    0.5938274118073339    0.6208761936680138    0.6244441611736155    
  0.6113634585116007    0.5882398905645201    0.6345769665253403    0.6113673900417738    0.5819103104244596    
  0.5477992217102108    0.5111994553556714    0.47552391534827704    0.4452312125381649    0.424828496617559    
  0.41762378950703    0.4248225564512006    0.4452196233464988    0.4755073370057826    0.5111789019421912    
  0.5477758603412166    0.5818852007863479    0.6113413539626591    0.6345506132354075    0.6492898309500281    
  0.6516782292191392    0.6364162524340662    0.5992117628570458    0.5406492331152484    0.4685098742854434    
  0.39581218941611407    0.3356262069556151    0.2968464498798203    0.2835800750387251    0.29685075449624676    
  0.3356349741602896    0.3958254887870825    0.46852738108310243    0.5406701441998094    0.5992350498606642    
  0.6364410299671306    0.6517039147634243    0.6493160371603343    0.6345769665253403    0.6646720505311877    
  0.6493186070895971    0.6244506870524167    0.5906822395770915    0.5497173067880354    0.5054678114328959    
  0.46390293841162783    0.43161656655242725    0.41400269061519646    0.4139995348414602    0.43160720465504393    
  0.4638877726682471    0.5054476679957953    0.5496933708146123    0.5906557635416705    0.6244226985903933    
  0.6492898295509669    0.6646430010316382    0.6693963178020771    0.6610684465241005    0.6364162526320903    
  0.5938083391441448    0.536054090149188    0.47131284921523864    0.4108067691959902    0.3648955699697407    
  0.340417217937217    0.3404199474892779    0.3649037854725465    0.41082041365511224    0.471331498391424    
  0.5360768202784779    0.593833937681102    0.6364436167668733    0.6610968188885387    0.6694252216507859    
  0.6646720505311877    0.675121033244835    0.6694261170087048    0.6517073907715767    0.6208836460241625    
  0.577418176667638    0.5251494521299848    0.47142879177386676    0.4251736129400009    0.3941614782742572    
  0.3832855085887092    0.39415532030934425    0.425161426761339    0.4714110331204099    0.52512704973474    
  0.5773923934937383    0.6208557134084384    0.6516782253971782    0.66939631569208    0.6750910326076182    
  0.6693963184887195    0.6516782301990793    0.6208557190860378    0.577392399116296    0.5251270548298944    
  0.47141103759504194    0.4251614306652665    0.39415532364050865    0.3832855112303491    0.3941614800711378    
  0.42517361386941077    0.4714287920820779    0.5251494522680848    0.5774181770233657    0.6208836466797918    
  0.6517073915025033    0.6694261174847591    0.675121033244835    0.6646720500105798    0.6694252206138707    
  0.6610968172262437    0.636443614497487    0.5938339348127346    0.5360768166663286    0.47133149374175975    
  0.4108204077241627    0.36490377827302856    0.3404199392932279    0.3404172091041479    0.36489556078563373    
  0.4108067598290456    0.47131283978340066    0.5360540808760227    0.5938083305458198    0.6364162455764653    
  0.661068441989534    0.6693963163787224    0.6646430024999899    0.6492898328941087    0.624422702452548    
  0.5906557667876652    0.5496933728357237    0.5054476686766035    0.4638877721607475    0.4316072031514146    
  0.4139995324652595    0.4140026874642627    0.4316165628451059    0.46390293459777815    0.5054678081115874    
  0.5497173044314209    0.5906822382765873    0.6244506865018782    0.6493186067868678    0.6646720500105798    
  0.6345769657230812    0.6493160360351256    0.6517039128879046    0.6364410269674108    0.5992350453883789    
  0.5406701379201286    0.46852737274187517    0.39582547837139864    0.33563496200054    0.2968507411522844    
  0.28358006105253114    0.29684643561852136    0.3356261926384122    0.3958121752599785    0.4685098606883319    
  0.5406492208035948    0.5992117528625034    0.6364162457744894    0.6516782263771181    0.6492898314950474    
  0.6345506159007903    0.6113413571407185    0.5818852030968813    0.5477758609546255    0.5111789005916864    
  0.4755073338130774    0.44521961861211984    0.4248225505128677    0.41762378271804546    0.42482848942747814    
  0.445231205562872    0.47552390928643806    0.5111994507404038    0.547799218676243    0.5819103086829539    
  0.6113673890570019    0.6345769657230812    0.5882398898859339    0.6113634578814156    0.6244441599509097    
  0.6208761911149243    0.5938274071394575    0.5406662952382395    0.4670750832347686    0.38655239031669114    
  0.3146665079640852    0.2627970080699354    0.23619691726948944    0.23619549234233828    0.2627926046133504    
  0.31465884381101555    0.38654128864762294    0.46706071843083347    0.5406492202888654    0.5938083302857722    
  0.6208557140910531    0.6244227004883293    0.6113413568733989    0.5882175490701561    0.5595187366647092    
  0.5278974514090284    0.49527321246034645    0.4637317430915328    0.4359418190802905    0.41498534402660836    
  0.40366804583451565    0.40367070506318603    0.41499316742744374    0.43595432123253086    0.46374811161812035    
  0.4952924349641405    0.5279185187136191    0.5595407849213019    0.5882398898859339    0.5303815308180267    
  0.5595359045975521    0.5819014614071989    0.5906707619910182    0.5774058326825265    0.536065662712764    
  0.46851931417527926    0.38654847394808967    0.30712365488037663    0.24450095778573533    0.20591193989154766    
  0.1930596922008945    0.20591051471331084    0.2444979043970258    0.3071186641733649    0.38654128762093615    
  0.468509859146813    0.5360540796370324    0.5773923933571252    0.5906557648914645    0.581885203462933    
  0.5595187375522516    0.5303639277127393    0.49867759087935815    0.4669837752776263    0.43707294499932337    
  0.4106498873300841    0.389614958337544    0.3759402104535755    0.3711841154290543    0.37594465528580956    
  0.3896235287828092    0.4106619623122751    0.43708768856379226    0.46700028400460325    0.4986950167585696    
  0.5303815308180267    0.46614648121733343    0.4986896036461438    0.5279081877090694    0.5477848934952656    
  0.5497004391943193    0.5251320889739153    0.4713160333251675    0.39581393569483003    0.3146596724530305    
  0.2444982270459774    0.19563155464543291    0.1712576869540916    0.17125767014553686    0.19563145835756524    
  0.2444979031900356    0.31465884158957846    0.39581217252206896    0.47131283735851975    0.5251270485089793    
  0.5496933712945732    0.5477758624366805    0.5278974538738348    0.4986775926426395    0.4661337698849264    
  0.43380024836875186    0.40374609890000085    0.37737465330271724    0.35589888143461224    0.34055909612792407    
  0.3325209887083711    0.3325227643842167    0.34056427056093086    0.3559070161362535    0.37738509145646887    
  0.40375807192289703    0.4338129690034485    0.46614648121733343    0.40040516597735665    0.43380740182263017    
  0.46698927563775294    0.49527651420389407    0.5111796800224849    0.5054459423635659    0.4714073010157527    
  0.4108019792175391    0.3356214680810025    0.2627887657909508    0.20590793584173142    0.17125640235100015    
  0.1598031643744035    0.17125766888437938    0.2059105122832614    0.26279260122832593    0.335626188778153    
  0.41080675629002256    0.4714110308078511    0.5054476675054358    0.5111789032719016    0.49527321672366476    
  0.4669837791622414    0.4338002506081942    0.4003970444258686    0.3693910661377733    0.3422537907217132    
  0.31990669476961087    0.30310362567300575    0.29259419828678007    0.28900766995542226    0.29259675125130197    
  0.3031084681424361    0.3199133480457324    0.34226163783645536    0.36939941652799285    0.40040516597735665    
  0.33724858198908814    0.3693940259550679    0.403747108804344    0.4370713439463225    0.46372708422514025    
  0.47549955429172414    0.46387742078142086    0.42514977206467136    0.3648842907642738    0.29683702977661425    
  0.23618874681364063    0.19305574874683107    0.1712564010205943    0.17125768438741287    0.19305968853997746    
  0.23619548784449546    0.29684643076275324    0.36489555631261755    0.4251614235204738    0.46388777126799613    
  0.47550733751340424    0.46373174901099246    0.43707295095157    0.40374610341120404    0.3693910684826911    
  0.3372444242952401    0.3090151281471316    0.2855664491149992    0.26738163875409576    0.254876290077206    
  0.24847638720594656    0.24847722610943332    0.2548786918601304    0.26738528347784485    0.285570867732515    
  0.3090197477785176    0.33724858198908814    0.2796340891152365    0.30901479265383336    0.34225132639257594    
  0.37736933902258096    0.41064116044248294    0.4359294511785009    0.44520397454063476    0.4315894814440172    
  0.39413747113987646    0.34040134674749073    0.2835677231304207    0.23618874546709112    0.20590793314348493    
  0.1956315507218337    0.20591193495515542    0.2361969116505402    0.28358005526038466    0.34041720383170143    
  0.3941553163052738    0.4316072024600819    0.4452196230451669    0.435941826284061    0.41064989500187465    
  0.37737465980309964    0.3422537951924392    0.30901513032706174    0.2796330437811549    0.25502086300980664    
  0.23553355771243054    0.2213513729058925    0.21268743937002638    0.20976667764535528    0.2126883164921012    
  0.22135293026652514    0.2355354437680007    0.2550226133692473    0.2796340891152365    0.22924238118743287    
  0.25501824761853376    0.2855616339969965    0.3198989739124465    0.355887637625901    0.3895998140325579    
  0.4149663896393725    0.4248006347464693    0.4139764038713054    0.3832635223724117    0.3404013455885822    
  0.2968370272391931    0.26278876183172917    0.24449822181449607    0.24450095157924134    0.2627970013209672    
  0.29685073443486076    0.3404199332797406    0.38328550392276883    0.41399953194911093    0.42482255537987323    
  0.41498535203386344    0.3896149671967829    0.35589888942805425    0.3199067009325877    0.2855664530985949    
  0.25502086486234427    0.2292434785730703    0.20853054058023085    0.19290266456485344    0.18238381896204148    
  0.17707577452958037    0.17707592289377733    0.18238416700856763    0.19290294749008255    0.20853037445339986    
  0.22924238118743287    0.18661527734527913    0.20852665037665394    0.23552749288307465    0.2673727596627516    
  0.303091326175034    0.3405429192132274    0.37592002188340196    0.4036442888439276    0.4175977202862388    
  0.413976402953329    0.39413746910803465    0.3648842873668629    0.3356214632025212    0.3146596662160354    
  0.3071236476372787    0.3146665002504033    0.3356349544751807    0.36490377161748844    0.39416147305090454    
  0.41400268713243826    0.41762378774725095    0.4036680541451322    0.37594021988766185    0.34055910499765774    
  0.30310363296341025    0.2673816440384941    0.23553356096774952    0.2085305420282405    0.1866175825474216    
  0.1696947696005313    0.157622319329209    0.15035773647430087    0.14792916508977258    0.15035755653061061    
  0.15762177800697375    0.16969355113831233    0.18661527734527913    0.15151208027140992    0.16969046435578788    
  0.1928963113710076    0.2213424142555002    0.2548641676198484    0.29257843754755    0.3325013242731425    
  0.3711606867393356    0.40364428794139406    0.42480063299222437    0.43158947871806314    0.4251497681280728    
  0.41080197388640055    0.39581392900682133    0.38654846622753963    0.38655238213741083    0.39582547044768124    
  0.41082040075067194    0.42517360742462185    0.4316165627121884    0.42482849437508224    0.4036707132131933    
  0.37118412483518254    0.33252099780882677    0.29259420608557996    0.2548762960979475    0.2213513770538443    
  0.19290266699563266    0.16969477062158936    0.15151483447031286    0.13807356987321498    0.1291768104869203    
  0.12474077352920077    0.12474053180733592    0.12917599829845228    0.1380719533475227    0.15151208027140992    
  0.12330217666156527    0.13806948041833667    0.15761640606022997    0.1823756083621423    0.21267643504763672    
  0.2484621354433246    0.2889898471365052    0.3325013232494151    0.3759200199751215    0.41496638696553134    
  0.4452039710928135    0.46387741641436026    0.4714072955562927    0.47131602673762013    0.46851930668555636    
  0.4670750753460074    0.46852736512918985    0.47133148706315925    0.47142878648121883    0.4639029346569832    
  0.4452312102077685    0.4149931750225654    0.3759446641430118    0.3325227731282474    0.2890076776674797    
  0.24847639339728422    0.2126874438874033    0.18238382189257762    0.1576223209214078    0.13807357047266305    
  0.12330484582999646    0.11296838985403912    0.10684596314545954    0.10481816569645293    0.10684524747066362    
  0.1129668189786102    0.12330217666156527    0.10123222185917209    0.11296491860190033    0.12917180265587022    
  0.1503508081993557    0.1770665029987238    0.2097546590456278    0.24846213437970635    0.2925784354595895    
  0.34054291625087746    0.3895998103674825    0.43592944691379065    0.47549954942594114    0.5054459368324868    
  0.5251320827570332    0.5360656559534257    0.5406662883028364    0.5406701313408554    0.536076810977876    
  0.5251494476885792    0.5054678083283441    0.47552391344812645    0.43595432798323897    0.38962353671029637    
  0.3405642784970479    0.29259675838461474    0.24847723197027635    0.20976668204448592    0.17707577749566816    
  0.15035773819736697    0.12917681126588393    0.11296839005106721    0.10123446341325754    0.09361354068523957    
  0.08986631520174132    0.08986592040587557    0.09361229950745992    0.10123222185917209    0.08453755694311715    
  0.09361090362389862    0.1068420988157512    0.12473539147127069    0.14792192829934078    0.17706650203483515    
  0.21267643302810976    0.254864164584515    0.30309132227904995    0.3558876330716027    0.41064115541074475    
  0.4637270788420345    0.5111796743660033    0.5497004333372303    0.577405826760702    0.5938274014072102    
  0.5992350402038816    0.5938339305331433    0.5774181735125284    0.5497173047705124    0.511199454325598    
  0.4637481173836229    0.41066196911360514    0.355907023002541    0.3031084743719862    0.25487869701808674    
  0.21268832037514296    0.17707592549179135    0.14792916654653757    0.12474077410136314    0.10684596316365268    
  0.0936135405155321    0.08453918501811862    0.07925391635704918    0.07752013957558693    0.07925314456321723    
  0.08453755694311715    0.07247947752572499    0.07925216928828283    0.08986365537057196    0.1048143887914963    
  0.12473539068208983    0.15035080646536844    0.1823756056023411    0.22134241051470768    0.2673727551019955    
  0.3198989687506615    0.3773693334804643    0.4370713382229153    0.49527650847706217    0.5477848879314186    
  0.5906707567647344    0.620876186432618    0.6364410230636716    0.6364436115775374    0.6208836441796869    
  0.5906822387465807    0.5477992217230393    0.49529243978074833    0.43708769423964444    0.3773850971899495    
  0.3199133532317224    0.26738528771958386    0.22135293336225273    0.1823841689309357    0.15035755739773995    
  0.1247405318480638    0.10481816521669216    0.08986631454990396    0.079253915880798    0.0724804604834447    
  0.06918898620647755    0.06918867028249273    0.07247947752572499    0.06439305623382507    0.06918803734692804    