#     DFTpy    
  CRYSTAL 
    
  PRIMVEC    
  3.281722529593751    1.372951096e-05    -3.4000000000000007e-13    
  -1.6408493746909103    2.8420620257403004    -6.730000000000001e-12    
  -5.700000000000001e-13    -1.3110000000000004e-11    5.395661746683081    
  PRIMCOORD    
  4    1    
  Si    8.169469050000001e-06    1.8947124594298606    3.0343789627490803    
  Si    1.6408649854299504    0.9473632957981502    0.33654804956471    
  Si    8.169470280000002e-06    1.8947124594290805    5.059113657272901    
  Si    1.6408649854352706    0.9473632958192002    2.3612828237653103    
  BEGIN_BLOCK_DATAGRID_3D    
  3d_datagrid_density    
  BEGIN_DATAGRID_3D#0    
  33    33    55    
  0.0    0.0    0.0    
  3.2817225418346383    1.3729511011211338e-05    -3.4000000126820653e-13    
  -1.6408493808113098    2.842062036341246    -6.730000025103029e-12    
  -5.700000021261109e-13    -1.3110000048900553e-11    5.395661766809003    
  0.10192420819965699    0.10493672151871589    0.11413520957986847    0.12998153457491132    0.15319907087610535    
  0.184723522139723    0.2255747066425302    0.27658256513421065    0.33800609780187224    0.409125682061365    
  0.48782037517275556    0.5701846138172797    0.6504914836114197    0.7218973916507235    0.777819638874919    
  0.8132637127641916    0.8253741149513407    0.813263717179345    0.7778196466951597    0.7218974013558997    
  0.6504914937531314    0.570184623323592    0.48782038336563943    0.40912568856386416    0.3380061024531856    
  0.2765825679333567    0.22557470772485713    0.18472352179391863    0.15319906956368842    0.1299815328809057    
  0.11413520808321245    0.10493672065733978    0.10192420819965699    0.10493671992160349    0.10493935315857014    
  0.11104552429454576    0.12355675363356346    0.1430528801387495    0.17035482328633986    0.206433272711808    
  0.25219552618045865    0.30815118997299235    0.3740257997204004    0.4483515975871799    0.5280487344308223    
  0.6082070396416693    0.6824866515528271    0.7443010010840775    0.7882547643557902    0.8109645309201846    
  0.8109553243835325    0.7882279902471343    0.7442591022406256    0.6824333494189009    0.6081467768742341    
  0.5279860089571803    0.44829038586078507    0.37396918225004566    0.308101191026405    0.25215315204891847    
  0.20639871807145163    0.1703277655304801    0.14303275400558202    0.12354294410181187    0.11103749004589436    
  0.10493671992160349    0.11413520654021507    0.11104552287202558    0.11414545706054591    0.12356394481289609    
  0.13969335669578387    0.16318536655515137    0.19487849443328709    0.2356071608455726    0.28590543571199256    
  0.34566147315775836    0.4137358547026282    0.4875434636114779    0.5627866850528387    0.63376481276496    
  0.6945019841753106    0.7402314527485198    0.7682557286008965    0.7776336738487982    0.7682208047833337    
  0.7401645767015336    0.6944089202345463    0.6336534886732992    0.562666024228718    0.4874220151990737    
  0.4136206949836461    0.3455576220478155    0.2858157729643379    0.235532727798262    0.19481903409302886    
  0.16313991289704965    0.13966070352925444    0.12354294325617066    0.11413520654021507    0.12998153040807756    
  0.1235567511250713    0.12356394375031939    0.13000347161179165    0.14307045684433745    0.1631948722845309    
  0.19101669347303735    0.22721217159341667    0.27220169344988204    0.3258183039361933    0.38694133475131137    
  0.4530810500229742    0.520125857931323    0.5827312343858565    0.635615647296066    0.6752231094490597    
  0.700588385890061    0.7126699836585633    0.712645547520911    0.7005168286265281    0.6751098506697693    
  0.6354698238715276    0.5825648426362163    0.5199518577896434    0.45291118777118705    0.38678459966819484    
  0.3256803809853834    0.2720852270261527    0.22711749498966877    0.19094272302092105    0.16313991185776755    
  0.14303275215489328    0.12998153040807756    0.15319906604397332    0.14305287702809671    0.13969335508178873    
  0.14307045632230975    0.15323510749190883    0.1703838700921665    0.19489730696652638    0.22722024271585126    
  0.26757678585084244    0.3156199561036883    0.37003577728854253    0.42808752950190754    0.48537177688555216    
  0.5363917141819134    0.5762438127091147    0.6026645445488719    0.616950651104249    0.6228901934365034    
  0.6243224743392816    0.6228332503319023    0.6168399312009175    0.6025073508450913    0.5760521508840427    
  0.5361810923645743    0.4851583364249143    0.42788500281936886    0.3698537135950491    0.31546352159403684    
  0.26744758045702804    0.22711749375006443    0.19481903183804483    0.1703277625254288    0.15319906604397332    
  0.1847235171985907    0.17035482014704043    0.16318536499171016    0.16319487187707415    0.17038387024458637    
  0.1847735972292129    0.20647204442254996    0.23563199233240276    0.2722131453025129    0.31562201754232977    
  0.3642596302131279    0.41496269333265845    0.4626869690562581    0.5012593217795359    0.5256238040579891    
  0.5345191964962623    0.5315293889756909    0.5234941193656524    0.5173561098605615    0.5173264086416998    
  0.5234057956318635    0.5313858831232292    0.534328850639951    0.5254008548006367    0.5010219800892449    
  0.46245334108921127    0.4147470240723343    0.364070683193007    0.31546352025553803    0.27208522445815136    
  0.23553272425268898    0.2063987138570936    0.1847235171985907    0.22557470216901834    0.2064332701208678    
  0.1948784935171281    0.19101669381104977    0.1948973079465889    0.20647204530016153    0.2256355485237842    
  0.2522388830416266    0.2859295666066231    0.32582509997662296    0.3700307569069259    0.41495466094941974    
  0.45479885765175143    0.4823358988879287    0.4917469836786187    0.4822283043225544    0.45939660322807957    
  0.4329998917487243    0.4127614905853132    0.4052495444593085    0.4127061075215113    0.43288915280902013    
  0.45923332226820796    0.48202145156357573    0.49151254326474547    0.4820937261184402    0.45456740671837176    
  0.4147470227852099    0.36985371097391384    0.3256803771501404    0.28581576820058097    0.25215314671651223    
  0.22557470216901834    0.2765825616569863    0.2521955246371984    0.23560716107346102    0.2272121731970184    
  0.2272202450886459    0.23563199471271076    0.2522388846116796    0.2766471473769381    0.3081903351162305    
  0.34567480607345896    0.3869325154917057    0.42806406019657145    0.46265960511242504    0.4823169504501101    
  0.4798421502268939    0.45403058842464367    0.41199613852006867    0.36629916614539554    0.3292210182141489    
  0.3088862871037334    0.30886296123185675    0.32914999443732124    0.36617902115250733    0.4118292394447351    
  0.45382680169944556    0.4796186890675627    0.4820937249079317    0.46245333862877036    0.42788499905927596    
  0.3867845947307854    0.34555761625233167    0.3081011847886409    0.2765825616569863    0.3380060957477759    
  0.30815118983944695    0.28590543741260344    0.2722016966503746    0.2675767899842947    0.2722131496170084    
  0.2859295702587772    0.3081903372861378    0.33806348298868993    0.3740485484508008    0.41372564961695873    
  0.45304404214981675    0.4853183050987159    0.501202955639758    0.49170179942318537    0.45400673628595284    
  0.3955657117936013    0.3315182284902915    0.27713015137872904    0.2420505824525344    0.23009141317725404    
  0.24201440004430258    0.27705521661760923    0.33140250019221296    0.3954123169081981    0.45382680034429934    
  0.49151254077423284    0.5010219764783513    0.4851583316374984    0.4529111819087966    0.41362068837957927    
  0.3739691753676185    0.3380060957477759    0.40912568171030084    0.37402580117838236    0.345661476448921    
  0.3258183088274693    0.3156199621082845    0.3156220239545157    0.3258251059559656    0.3456748107577709    
  0.37404855107215873    0.40916155952285643    0.4483434849159153    0.4874960654213024    0.5200489095877369    
  0.5362995975425033    0.5255337793060058    0.48215622597913305    0.4119510515167137    0.3314996444866193    
  0.2596524297784314    0.2088297065309258    0.1833205922493534    0.18330823964836432    0.20879125124240566    
  0.2595850166143255    0.33140249854118914    0.4118292364430762    0.4820214475402654    0.5254008498924211    
  0.5361810865479095    0.5199518511272246    0.48742200799413643    0.44829037858880294    0.40912568171030084    
  0.48782037661896155    0.44835160060379514    0.4137358594591921    0.3869413411517942    0.3700357849625893    
  0.36425963853850546    0.3700307650853061    0.3869325226548922    0.41372565494222213    0.44834348774962246    
  0.4878186211554106    0.5279951958187652    0.5626903139010345    0.5826066697855068    0.5761105238704807    
  0.534398161323915    0.4593041890229491    0.3662415646351818    0.277102783569525    0.20882180972809297    
  0.16810515877245957    0.15483536314223506    0.1680905803763647    0.2087912494968407    0.2770552131653253    
  0.3661790162806756    0.45923331643344084    0.5343288441935602    0.5760521439381712    0.5825648352422462    
  0.5626660166118569    0.5279860015396595    0.48782037661896155    0.5701846169291107    0.5280487387232408    
  0.48754346942685023    0.4530810574244727    0.4280875382570543    0.41496270293008036    0.41495467067601344    
  0.42806406923834595    0.4530440496916263    0.4874960707588599    0.5279951984998373    0.5701300076282667    
  0.6080965809983252    0.6336129673463304    0.6354429517320169    0.6024955495350474    0.5313872208777324    
  0.4328988754686182    0.32916245045296394    0.24202517951929498    0.18331509562445703    0.15483766522610282    
  0.15483536148374336    0.1833082362381607    0.24201439485975781    0.3291499877098623    0.43288914507842197    
  0.5313858749941585    0.6025073426839493    0.6354698158057409    0.6336534808368287    0.6081467695621062    
  0.5701846169291107    0.6504914879718404    0.6082070446329342    0.5627866911896219    0.5201258654341548    
  0.4853717856609792    0.46268697871591224    0.454798867604836    0.4626596146739311    0.48531831356623145    
  0.5200489163098121    0.5626903183841074    0.60809658306825    0.6503732796263912    0.6823143942796854    
  0.6942964451353196    0.6750105962752393    0.6167591002865188    0.5233458123828656    0.4126659284399735    
  0.30883875815312745    0.230078456377495    0.18331509405307886    0.16810515557564276    0.18332058734387735    
  0.2300914064971216    0.3088629529284587    0.4127060981360767    0.5234057859638227    0.6168399219172744    
  0.67510984207424    0.6944089124104372    0.682433342490477    0.6504914879718404    0.7218973964943006    
  0.6824866563455717    0.6337648181369043    0.5827312406793062    0.536391721426802    0.5012593297159955    
  0.48233590707678725    0.4823169584009262    0.5012029628766614    0.5362996036153194    0.582606674298533    
  0.6336129700648717    0.6823143953147235    0.7217129008041061    0.7440714946584589    0.7399836941390772    
  0.7003527167300841    0.622694815349713    0.5172192151917575    0.4051741447075334    0.3088387567114876    
  0.24202517653409936    0.2088218051942808    0.20882970040546148    0.2420505746659101    0.3088862777421907    
  0.4052495340027669    0.517326397965381    0.6228332403384227    0.7005168198369297    0.7401645692174632    
  0.7442590960288611    0.7218973964943006    0.7778196431199706    0.7443010045470275    0.6945019874699268    
  0.6356156508093548    0.576243816570328    0.5256238081555281    0.49174698776503856    0.47984215405139885    
  0.4917018028006146    0.5255337820987727    0.5761105259387562    0.6354429529404824    0.694296445474665    
  0.7440714944435274    0.7775765954883844    0.787982880454515    0.7679860109971224    0.7124337641561818    
  0.6241448018460163    0.5172192141451908    0.4126659259476221    0.32916244644409054    0.2771027781128705    
  0.2596524229105597    0.2771301430736738    0.32922100853087244    0.412761479920257    0.5173560990507321    
  0.624322464387161    0.7126455391187309    0.768220798102242    0.7882279851576836    0.7778196431199706    
  0.8132637152661804    0.7882547654268771    0.7402314527954112    0.6752231087803809    0.6026645433574609    
  0.5345191948627571    0.4822283022674814    0.454030585984764    0.4540067335644212    0.48215622314031126    
  0.5343981585355568    0.6024955469031611    0.6750105938558728    0.7399836920691307    0.7879828791086668    
  0.8129803133347105    0.8106737742207568    0.7773679236732632    0.712433763827317    0.6226948140092777    
  0.5233458096050452    0.43289887118442977    0.36624155898437893    0.33149963761314466    0.3315182204543386    
  0.3662991570211711    0.43299988185888777    0.5234941094400776    0.6228901844448566    0.7126699763673423    
  0.7776336685090034    0.8109553208448365    0.8132637152661804    0.825374114951341    0.8109645290725925    
  0.7682557249145533    0.7005883804322285    0.6169506440561529    0.5315293806458766    0.4593965940087486    
  0.41199612881661307    0.3955657019817911    0.41195104195177296    0.4593041800597842    0.5313872128483941    
  0.6167590934526965    0.7003527112874889    0.7679860071469292    0.8106737722029542    0.8250763090040842    
  0.8106737744856647    0.7679860110647619    0.7003527159547809    0.6167590981884883    0.5313872173226678    
  0.4593041841533788    0.41195104555351886    0.39556570489288684    0.41199613080376274    0.45939659497435564    
  0.531529380793475    0.6169506438541534    0.7005883803258635    0.7682557250360612    0.8109645292425122    
  0.825374114951341    0.8132637146773568    0.8109553199660765    0.7776336670197823    0.7126699740736281    
  0.622890181115441    0.5234941047969831    0.4329998757620041    0.366299149617157    0.33151821210272764    
  0.3314996286928443    0.36624154978417195    0.43289886193336685    0.5233458005902565    0.6226948057215944    
  0.712433757020163    0.7773679191689817    0.8106737724678623    0.8129803140316736    0.7879828812570095    
  0.7399836944538705    0.675010595571798    0.6024955475641798    0.5343981581312041    0.48215622176331924    
  0.4540067312443289    0.4540305827235202    0.4822282982249908    0.53451919051765    0.6026645394315423    
  0.6752231058936147    0.7402314511108146    0.7882547645929937    0.8132637146773568    0.7778196424501082    
  0.7882279844001553    0.7682207963727381    0.7126455356810404    0.6243224587110322    0.5173560909116304    
  0.41276146951288745    0.3292209964284058    0.27713012996213676    0.2596524093017475    0.27710276427531005    
  0.3291624325596314    0.41266591235203454    0.5172192015251325    0.6241447912539617    0.712433756691298    
  0.7679860072145686    0.7879828799111614    0.7775765968337607    0.7440714960124739    0.6942964459384624    
  0.6354429516252061    0.5761105227520903    0.5255337772563319    0.4917017965877239    0.47984214676754383    
  0.49174697984657456    0.52562380030939    0.5762438096969791    0.6356156456682521    0.6945019843176161    
  0.7443010030285833    0.7778196424501082    0.7218973965123228    0.7442590964134224    0.7401645686443248    
  0.700516816980113    0.6228332341622164    0.5173263880547391    0.4052495207400295    0.3088862621272042    
  0.2420505578100986    0.20882968305527141    0.2088217876236524    0.24202515879786143    0.3088387390377017    
  0.405174127837758    0.5172192004785657    0.622694804381159    0.7003527105121854    0.7399836923839243    
  0.7440714957975425    0.7217129027139849    0.682314396160923    0.6336129687571455    0.5826066704969499    
  0.5362995974955603    0.5012029548723517    0.48231694906488265    0.48233589710051467    0.5012593199984697    
  0.5363917129964159    0.5827312344012282    0.6337648143840077    0.6824866548670782    0.7218973965123228    
  0.6504914893927105    0.6824333448377851    0.6944089141432156    0.6751098414034968    0.6168399172144684    
  0.5234057763322975    0.41270608381310137    0.30886293515829555    0.23009138685568056    0.18332056698758514    
  0.16810513495619955    0.18331507317932397    0.2300784353332014    0.3088387375960617    0.4126659098596828    
  0.5233457978124361    0.6167590913546657    0.6750105931524311    0.6942964462778077    0.6823143971959607    
  0.650373281966096    0.6080965832823376    0.5626903158137991    0.5200489109735393    0.4853183059026028    
  0.4626596053641597    0.45479885751102894    0.4626869688753752    0.4853717771923219    0.5201258592844732    
  0.562786687848669    0.6082070439996929    0.6504914893927105    0.5701846202117608    0.6081467742757629    
  0.6336534854493605    0.6354698183253881    0.6025073410169273    0.5313858676061298    0.4328891316535629    
  0.3291499693170862    0.24201437336598333    0.18330821333286468    0.1548353380586029    0.1548376414734974    
  0.1833150716079458    0.24202515581266593    0.32916242855075784    0.43289885764917824    0.531387209293329    
  0.6024955449322931    0.6354429528336715    0.6336129714756866    0.6080965853522625    0.5701300102018938    
  0.5279951983045602    0.4874960676156801    0.45304404395296044    0.42806406159088956    0.4149546620409825    
  0.4149626944087131    0.42808753101715963    0.45308105247153274    0.4875434673516069    0.5280487395721718    
  0.5701846202117608    0.48782038191943305    0.5279860086114899    0.5626660240785049    0.5825648411807668    
  0.5760521460929725    0.5343288405171219    0.4592333058232294    0.36617899910531626    0.2770551910972895    
  0.20879122461661656    0.16809055421603653    0.15483533640011116    0.16810513175938271    0.20882178308984004    
  0.2771027588186554    0.36624154413336873    0.4593041751902136    0.5343981553428454    0.5761105248203655    
  0.5826066750099755    0.5626903202968722    0.527995200985632    0.4878186237917793    0.4483434874784245    
  0.4137256519963869    0.38693251765214776    0.3700307589139099    0.36425963228707986    0.37003577979948143    
  0.3869413381095809    0.4137358592011677    0.44835160329536256    0.48782038191943305    0.40912568891492807    
  0.44829038771376906    0.4874220178693623    0.5199518600689629    0.536181092454278    0.5254008505583541    
  0.48202144121558743    0.41182922249748455    0.3314024778198905    0.25958499104434213    0.2087912228710516    
  0.183308209922661    0.1833205620821091    0.20882967692980692    0.2596524024338755    0.3314996218193694    
  0.4119510359885776    0.48215621892449695    0.5255337800490985    0.536299603568376    0.5200489176956147    
  0.4874960729532377    0.4483434903121318    0.40916156222138683    0.3740485511780999    0.3456748087857199    
  0.325825102704103    0.31562202043692283    0.3156199594429128    0.32581830803470646    0.34566147822931503    
  0.3740258057813388    0.40912568891492807    0.3380061045072817    0.37396918603969503    0.41362069999302703    
  0.4529111930630719    0.48515834056129203    0.5010219811719641    0.49151253927444505    0.45382679120363983    
  0.39541229979994413    0.33140247616886676    0.2770551876450056    0.24201436818143848    0.23009138017554814    
  0.24205055002347414    0.2771301216570811    0.33151820406677424    0.39556569508107575    0.45400672852279667    
  0.49170179996515256    0.5012029621092549    0.4853183143701184    0.4530440514947701    0.4137256573216503    
  0.3740485537994578    0.33806348595640745    0.30819033826667763    0.28592956992835294    0.272213148872854    
  0.26757678984962874    0.2722016980926585    0.28590544113366784    0.3081511961422848    0.3380061045072817    
  0.27658257141058074    0.3081011963446128    0.34555762881643903    0.38678460715438834    0.4278850099153104    
  0.4624533462999659    0.48209372764363306    0.4796186851378809    0.4538267898484938    0.41182921949582574    
  0.36617899423348454    0.32914996258962737    0.30886292685489747    0.3088862527656611    0.329220986745129    
  0.36629914049293194    0.4119961211003065    0.4540305802836399    0.4798421505920485    0.48231695701569843    
  0.46265961492566554    0.42806407063266416    0.3869325248153344    0.345674813470032    0.30819034043658505    
  0.2766471508818665    0.25223888683666873    0.2356319964136257    0.22722024716470962    0.22721217653159786    
  0.2356071663403059    0.25219553216957324    0.27658257141058074    0.22557471219836875    0.2521531583807888    
  0.2858157808635754    0.3256803898682051    0.36985372259233423    0.41474703204722285    0.45456741226806774    
  0.48209372643312454    0.4915125367839325    0.48202143719227697    0.45923329998846224    0.43288912392296475    
  0.41270607442766666    0.4052495102834876    0.4127614588478309    0.43299986587216716    0.45939658575502407    
  0.4822282961699174    0.49174698393299404    0.4823359052893728    0.4547988674641136    0.41495467176757633    
  0.3700307670922903    0.3258251086834457    0.28592957358050725    0.2522388884067218    0.22563555266626414    
  0.20647204882583886    0.19489731162106333    0.19101669842133007    0.19487849969373722    0.20643327821179167    
  0.22557471219836875    0.18472352673505066    0.20639872483563435    0.23553273617381473    0.27208523654462496    
  0.3154635315484817    0.3640706926882792    0.41474703076009833    0.46245334383952497    0.5010219775610706    
  0.5254008456501383    0.5343288340707313    0.5313858594770592    0.5234057666642565    0.5173263773784199    
  0.5173560801018007    0.5234940948714077    0.53152937246366    0.5345191888841443    0.5256238044069289    
  0.5012593279349294    0.4626869785350294    0.41496270400613516    0.36425964061245786    0.3156220268491091    
  0.2722131531873498    0.23563199879393373    0.20647204970345048    0.18477360179269595    0.17038387473200506    
  0.16319487698694934    0.16318537131321792    0.17035482803641802    0.18472352673505066    0.15319907439582026    
  0.17032777212711703    0.1948190422968717    0.22711750442017492    0.2674475905224946    0.3154635302099828    
  0.3698537199711989    0.4278850061552175    0.48515833577387624    0.5361810866376137    0.5760521391471011    
  0.6025073328557853    0.616839907930825    0.6228332241687364    0.624322448758911    0.6228901721237933    
  0.6169506368060569    0.6026645382401307    0.576243813558192    0.5363917202413042    0.48537178596774894    
  0.4280875397723067    0.37003578747352844    0.31561996544750925    0.26757679398308115    0.22722024953750442    
  0.19489731260112597    0.17038387488442489    0.15323511198309847    0.143070461143885    0.1396933607954125    
  0.1430528839998569    0.15319907439582026    0.1299815370477393    0.14303275987618191    0.16313992034084351    
  0.19094273171371587    0.22711750318057064    0.2720852339766237    0.32568038603296195    0.386784602216979    
  0.45291118720068185    0.5199518534065445    0.5825648337867969    0.6354698102596016    0.6751098328079677    
  0.7005168081905144    0.71264552727886    0.7126699667824066    0.7005883748680304    0.6752231052249353    
  0.6356156491815406    0.5827312406946776    0.5201258667873053    0.4530810598730312    0.386941344510064    
  0.32581831292598273    0.27220170129315135    0.22721217813519973    0.19101669875934255    0.16319487657949258    
  0.14307046062185733    0.13000347546221935    0.12356394822466814    0.12355675660427509    0.1299815370477393    
  0.11413521112286575    0.12354294879402528    0.13966070974727263    0.16313991930156146    0.19481904004188783    
  0.23553273262824184    0.28581577609981845    0.3455576230209554    0.41362069338896024    0.48742201066442536    
  0.562666016461644    0.63365347761289    0.6944089063191066    0.740164561160254    0.7682207896916459    
  0.7776336616799869    0.7682557213497172    0.7402314511577057    0.6945019876122319    0.6337648197559518    
  0.5627866939854523    0.4875434731669793    0.41373586395773193    0.34566148152047804    0.2859054428342791    
  0.23560716656819458    0.1948784987775784    0.16318536974977674    0.13969335918141754    0.12356394716209154    
  0.11414545982694047    0.11104552645503238    0.11413521112286575    0.10493672225445203    0.11103749325914607    
  0.1235429479483839    0.14303275802549323    0.17032776912206601    0.20639872062127648    0.2521531530483826    
  0.3081011901068489    0.3739691791572681    0.44829038044178743    0.5279860011939692    0.6081467669636353    
  0.6824333379093613    0.7442590902016577    0.7882279793107043    0.8109553164273803    0.8109645273949198    
  0.7882547656640804    0.7443010064915331    0.6824866596598227    0.608207048990958    0.5280487438645902    
  0.44835160631197807    0.37402580723932105    0.3081511960087397    0.25219553062631317    0.2064332756208514    
  0.17035482489711878    0.14305288088920434    0.12355675409578304    0.11104552503251205    0.10493935459102882    
  0.10493672225445203    0.10192420819965699    0.10493672151871589    0.11413520957986847    0.12998153457491132    
  0.15319907087610535    0.184723522139723    0.2255747066425302    0.27658256513421065    0.33800609780187224    
  0.409125682061365    0.48782037517275556    0.5701846138172797    0.6504914836114197    0.7218973916507235    
  0.777819638874919    0.8132637127641916    0.8253741149513407    0.813263717179345    0.7778196466951597    
  0.7218974013558997    0.6504914937531314    0.570184623323592    0.48782038336563943    0.40912568856386416    
  0.3380061024531856    0.2765825679333567    0.22557470772485713    0.18472352179391863    0.15319906956368842    
  0.1299815328809057    0.11413520808321245    0.10493672065733978    0.10192420819965699    0.10108732844181711    
  0.1040620557535529    0.11314639120149082    0.12879610541840925    0.15172325894426214    0.18284495460179626    
  0.22315470530963652    0.27345267481476904    0.3339735163575492    0.4039903427724446    0.4814055904129112    
  0.562380817580853    0.6413029023531834    0.7114694094888143    0.7664277692186648    0.8012697277831208    
  0.8131780398044538    0.8012742206211692    0.7664361532200086    0.7114806537358378    0.641315791121313    
  0.5623941908804501    0.48141854072513107    0.40400229927559184    0.3339841830232229    0.2734619102813752    
  0.22316245846434213    0.18285125439917968    0.15172818663606324    0.1287997411243133    0.11314878654338786    
  0.10406324324576063    0.10108732844181711    0.1040632425863155    0.10406526407212342    0.11013843065053072    
  0.12258160533334775    0.14197470837669335    0.1691394177041066    0.2050340453220512    0.2505285472522797    
  0.30607275250000965    0.37131842657215597    0.4447103356492652    0.5230731697709468    0.6014408215179823    
  0.6735495674072496    0.7330925836906041    0.7751236207747043    0.7967257687399705    0.7967189699218994    
  0.7751037353023075    0.733061151393416    0.6735090783159449    0.6013944325915948    0.5230242814924723    
  0.44466216303890804    0.3712736197908932    0.3060331220288974    0.25049500374401884    0.20500677816108576    
  0.1691181729062666    0.14195901273585423    0.12257091335836208    0.1101322451851179    0.1040632425863155    
  0.11314878517780276    0.11005378581687597    0.11315776741554753    0.12258935204917355    0.1387448677459223    
  0.16228681509248846    0.19405649428275068    0.23486005374929278    0.2851614009788469    0.34473247943842633    
  0.4122511045202658    0.4848655381088236    0.5579939249405037    0.6258297537849098    0.6826943104563821    
  0.7245706301056185    0.7497359131800372    0.7580587098547263    0.7497060032583125    0.7245130217305873    
  0.6826134955026221    0.6257322373483242    0.5578873837558959    0.4847576404232903    0.4121484203580215    
  0.34463977273236507    0.28508141911410634    0.23479378562890085    0.1940037076822558    0.1622466121243374    
  0.1387161022369236    0.12257091261805673    0.11314878517780276    0.128799738963496    0.1223243312243461    
  0.12233087120117007    0.1288197080296248    0.14199340043841077    0.16229690214469789    0.1903788926219543    
  0.2268930106613011    0.2721876396027936    0.32595594185423177    0.38681814392365826    0.45184683270537945    
  0.5163778664808228    0.5746959491930761    0.6217376210271206    0.6549325146738143    0.6747989650227064    
  0.6837129476050027    0.683691348868656    0.6747353997822353    0.6548310357948082    0.6216056367940036    
  0.5745439023639481    0.5162176763752105    0.45168973782244665    0.38667294782625633    0.3258282432286727    
  0.27208001365711554    0.22680576177397696    0.1903109567068022    0.16224661123220935    0.14195901113375323    
  0.128799738963496    0.1517281835985585    0.14143993980562852    0.1380357154183469    0.1414561659141089    
  0.15176150324337764    0.16917018961376565    0.19407655472573027    0.22690177350856602    0.26778866597968914    
  0.31622770617925494    0.3705848578454871    0.4275354777684823    0.4818578378195853    0.5273903448026814    
  0.5593233486723479    0.5765672170035198    0.582335052373497    0.5823148429207802    0.5816193728716803    
  0.5822643587313898    0.582235927989869    0.5764245984234623    0.5591470413010003    0.5271943203713839    
  0.4816575998229753    0.42734473709466736    0.3704133049181858    0.31608055744695474    0.2676674882988332    
  0.22680576072588596    0.19400370576401924    0.169118170332651    0.1517281835985585    0.18285125047825218    
  0.16819141759394046    0.16089106522192465    0.1608998705298863    0.16821835838648636    0.18289782207496585    
  0.2050752475831063    0.23488692130997607    0.2722006048619656    0.31623059291299443    0.3649995321795813    