#     DFTpy    
  CRYSTAL 
    
  PRIMVEC    
  4.226858618116751    1.7683610120000003e-05    -4.4000000000000004e-13    
  -2.1134139946019004    3.6605758891535007    -8.670000000000001e-12    
  -7.300000000000002e-13    -1.6890000000000003e-11    6.949612329727811    
  PRIMCOORD    
  4    1    
  Si    1.0522276130000003e-05    2.4403896477456604    3.908280104020811    
  Si    2.1134341012337705    1.2202039249880205    0.43347388783935004    
  Si    1.0522277720000002e-05    2.4403896477446505    6.516138390567491    
  Si    2.1134341012406304    1.2202039250151302    3.041332277009721    
  BEGIN_BLOCK_DATAGRID_3D    
  3d_datagrid_density    
  BEGIN_DATAGRID_3D#0    
  41    41    73    
  0.0    0.0    0.0    
  4.226858633883014    1.7683610185960207e-05    -4.4000000164120847e-13    
  -2.113414002484975    3.6605759028075187    -8.670000032339265e-12    
  -7.300000027229141e-13    -1.6890000063000023e-11    6.949612355649998    
  0.02140844889638364    0.02192726558953507    0.023524720529206542    0.026320673088610424    0.030509900876865434    
  0.03636761245082836    0.04426560543445799    0.0546836492649024    0.0681936638043518    0.08540589440320288    
  0.10688203485467357    0.1330191749606957    0.16389770876006532    0.19909950477099037    0.23754690072137993    
  0.277438994496064    0.3163247830124841    0.3512942688354297    0.3792702176512174    0.3974271916399998    
  0.4037289386673129    0.3974271909971287    0.37927021685309775    0.3512942684875566    0.3163247834600034    
  0.27743899572584413    0.23754690250543004    0.19909950684833821    0.16389771092951674    0.13301917708046018    
  0.10688203680246418    0.08540589605788201    0.06819366508196915    0.05468365017585121    0.04426560608756619    
  0.036367612982726394    0.03050990136915532    0.026320673539874977    0.023524720884359435    0.02192726578603969    
  0.02140844889638364    0.021927265564387604    0.02192724409304735    0.022985380807821813    0.02518212648158691    
  0.028674725879849844    0.033698964429879595    0.04058142265189682    0.04975276668217349    0.06174327515627807    
  0.07714823159676273    0.09656334414551755    0.12049052702004098    0.14920331570565287    0.18256663926253955    
  0.21984551407664074    0.2595798277361576    0.2995924617831697    0.3371367705265193    0.3691521305948759    
  0.3926254413682776    0.40507391202316095    0.4050737360760325    0.39262492037345553    0.36915130243341615    
  0.3371357245341291    0.29959131964085983    0.2595786999886162    0.2198444790918035    0.18256575244957854    
  0.14920261679820873    0.12049003057578836    0.09656303342915984    0.07714807158300291    0.061743231333071906    
  0.04975281045003211    0.040581525028206625    0.03369909299619548    0.028674850482919702    0.02518222597234574    
  0.022985443801731894    0.021927265564387604    0.02352472047370654    0.02298538078500651    0.023524628098044172    
  0.025182050982902694    0.028075459017873616    0.03240333856921196    0.038456012856482674    0.04662674001291948    
  0.05740675208558707    0.07135940390931912    0.08907953119818858    0.1111330573247192    0.13795038514784352    
  0.16965163133627872    0.2058272985833313    0.24535211290361686    0.2863209173078052    0.326147978004222    
  0.36180942937530475    0.39019135025482554    0.40852484601778516    0.4148696463071477    0.40852409724823424    
  0.3901899064316987    0.3618074348505528    0.32614566315000665    0.28631852755676773    0.24534984233628712    
  0.20582528385106225    0.16964997223006098    0.13794913950363769    0.11113222150546703    0.0890790482576284    
  0.07135919932210451    0.057406759166311654    0.046626897792953564    0.03845625680172701    0.03240360474900679    
  0.028075696268848257    0.025182225758967128    0.02352472047370654    0.02632067299806841    0.025182126435671505    
  0.025182050962608688    0.026320457447940333    0.028674523233764092    0.03240320933397005    0.037760237634468286    
  0.04510662386110331    0.05490454810887715    0.06769010226727405    0.08404189551620078    0.10454789486945049    
  0.1297346470728992    0.1599160285202559    0.19496690109695736    0.23409041141442855    0.27567564779298726    
  0.31732308185266084    0.3560630614989027    0.3887290833130861    0.4124035048473524    0.4248482059322647    
  0.42484758176711734    0.4124016889897261    0.38872626524886333    0.35605956860993604    0.317319304953137    
  0.2756719328596578    0.23408701248407038    0.19496399948945306    0.15991374496370064    0.12973301978774665    
  0.10454687155768413    0.08404137016508952    0.06768996232454938    0.05490469029126832    0.04510694612446431    
  0.03776063919906093    0.03240360454187514    0.028674850088504    0.02632067299806841    0.030509900758330405    
  0.028674725818821373    0.028075458982709908    0.028674523215073595    0.030509526422872288    0.033698596828264864    
  0.03845570673858331    0.04510643737340799    0.05408513030746371    0.06590809045721267    0.08114241598679232    
  0.10038220666779307    0.12420065161484115    0.15302667303314343    0.1869351104454713    0.22539952360312734    
  0.267089448712622    0.30980769909525785    0.35065886003988106    0.3864644699591661    0.4142944190151053    
  0.4318995451174063    0.4379171141203774    0.4318977114318738    0.41429097177073354    0.3864598373097011    
  0.35065359599063034    0.30980234092074466    0.2670844143049734    0.22539510478386213    0.18693150249864474    
  0.15302397077730162    0.12419883242080719    0.10038115450108968    0.08114197829560697    0.06590811560378035    
  0.05408547002770376    0.045106945895492044    0.038456256394624945    0.03369909245625504    0.030509900758330405    
  0.036367612335518974    0.0336989643838619    0.0324033385430224    0.03240320931170395    0.03369859681525909    
  0.036367057433062996    0.04058085235492636    0.04662620548344912    0.05490411955786612    0.06590784779153283    
  0.08019528739052167    0.09836797321980727    0.12102842534302423    0.14866811588424345    0.1814738299762912    
  0.21908676952289027    0.260367311914707    0.3032546009295678    0.344877710106406    0.38203311301021253    
  0.41188931499234693    0.43252593498685277    0.4429963060475284    0.442995010476198    0.4325222235108617    
  0.4118836898402269    0.3820263062733161    0.3448705035932315    0.30324765001605686    0.26036107676919495    
  0.21908154228330198    0.18146976490904126    0.14866522845411007    0.12102660695446699    0.09836704556966178    
  0.08019505530814999    0.06590811528872093    0.054904689779436265    0.04662689716343807    0.040581524349755094    
  0.036367612335518974    0.04426560538077337    0.040581422678387165    0.03845601289104486    0.03776023765141491    
  0.03845570674501994    0.04058085236363368    0.04426484195447864    0.04975195219737226    0.057405952056289615    
  0.06768940764150005    0.08114191397355405    0.09836771589303898    0.11999644017350153    0.1465667886528466    
  0.17832910561445664    0.21500248367663316    0.25551408442408874    0.2977889992258372    0.33880845226307726    
  0.3751877276802798    0.4041702795817111    0.42443155882942357    0.4360750994218291    0.43982776107586036    
  0.4360717754145055    0.42442537427719773    0.4041620820352931    0.3751785585457521    0.3387992925144851    
  0.29778058717530975    0.2555068823614463    0.2149967285077246    0.17832485149277527    0.14656393760957775    
  0.1199947957159707    0.09836704509115551    0.08114197753420044    0.06768996143057365    0.05740675824547551    
  0.049752809590457636    0.04426560538077337    0.054683649343269185    0.04975276685141664    0.046626740178015734    
  0.045106623984158024    0.04510643746119149    0.04662620555653256    0.04975195225484031    0.05468265845030075    
  0.061742210441616124    0.07135835521093531    0.08404096267762273    0.10038146971452913    0.12102793288328938    
  0.14656655922788991    0.1773048073450208    0.21300382192196707    0.2525753046842565    0.29378363528657564    
  0.33322780443463657    0.3670369279938486    0.39227946181156725    0.4082405949556288    0.41650750837582323    
  0.4196951309729583    0.4196930770032373    0.4165016139177189    0.40823163894294806    0.3922686160314334    
  0.36702549709963833    0.33321691952207055    0.2937740715837451    0.2525674747649298    0.21299785258630385    
  0.17730061803510963    0.1465639369473099    0.12102660583751106    0.10038115315801835    0.08404136877835269    
  0.07135919802163516    0.061743230220118746    0.054683649343269185    0.06819366407233982    0.061743275523988145    
  0.0574067524431245    0.054904548407910904    0.054085130552388457    0.054904119774197443    0.057405952250885545    
  0.06174221057819502    0.06819248662674271    0.07714698313815663    0.08907830917896319    0.10454678902354887    
  0.12419973941416333    0.14866746484071255    0.17832875256704603    0.21300372302727902    0.2515900356809345    
  0.29164694539475494    0.3292338783430667    0.3596614428803486    0.37938259224889415    0.38797281572052944    
  0.3885268142983477    0.3859842376827007    0.3845901596629406    0.3859797063157795    0.38851825867705864    
  0.38796125744352533    0.37936944514159776    0.3596481999541783    0.32922175816827737    0.2916367043149235    
  0.25158198590812164    0.2129978518450093    0.178324850095266    0.14866522663405715    0.12419883044178161    
  0.10454686963408942    0.08907904654014254    0.07714807017819819    0.06819366407233982    0.08540589489351913    
  0.07714823218973767    0.0713594044959704    0.06769010279782627    0.06590809093436527    0.06590784824167419    
  0.06768940807434312    0.07135835559196582    0.07714698338727187    0.08540464680930568    0.09656203084669956    
  0.11113176732947078    0.12973347150793021    0.15302571995967135    0.181473205522114    0.21500222924874396    
  0.2525753380791345    0.2916470727569884    0.3277771640202704    0.355270533807982    0.3694709226985974    
  0.36963741652413684    0.35997271921951396    0.34767122218180974    0.339556260308702    0.33955390109243105    
  0.3476643291050099    0.35996191614681383    0.3696238561153359    0.36945616945019355    0.3552561916759086    
  0.3277644695539319    0.2916367036995041    0.2525674733988963    0.21499672648099646    0.18146976248455765    
  0.15302396825632494    0.12973301741496115    0.1111322194464405    0.0965630317868541    0.08540589489351913    
  0.10688203558303648    0.09656334497198807    0.08907953203232409    0.0840418963219978    0.08114241677170238    
  0.08019528817939707    0.08114191477205263    0.08404096344584011    0.08907830982993258    0.0965620312556606    
  0.1068808671080587    0.12048928769260564    0.13794917483118416    0.15991497830123566    0.18693437843205293    
  0.21908647772653464    0.25551423123658257    0.2937840648531788    0.32923435110550314    0.35527083914426083    
  0.36576119647305666    0.3588417943805039    0.33903395529959285    0.31536149823127324    0.29705140656894846    
  0.29025941797422167    0.2970469419230851    0.31535277921606353    0.3390216085364824    0.3588270311560684    
  0.365745670079432    0.35525619128863234    0.3292217571931823    0.29377406986006954    0.25550687996614496    
  0.21908153950205417    0.1869314996692146    0.15991374235605937    0.1379491372886175    0.12049002884254088    
  0.10688203558303648    0.1330191759312513    0.12049052808266154    0.11113305841998657    0.10454789599052955    
  0.10038220783889461    0.0983679744675986    0.09836771721411187    0.10038147105446349    0.10454679027944597    
  0.11113176836211454    0.12048928832400384    0.1330182556821971    0.1492023402055236    0.16965074903433514    
  0.19496629561495504    0.22539937346385067    0.26036770192940895    0.29778984335719316    0.3332288629859529    
  0.35966244391909175    0.3694716827258203    0.35884222274108807    0.33139954303263375    0.29719557744762176    
  0.2676355490970089    0.25094698748514027    0.25094498364774553    0.2676295316985535    0.2971856802074687    
  0.3313863684974409    0.3588270307533505    0.36945616875998194    0.35964819881305965    0.33321691771880013    
  0.29778058472696395    0.2603610739487105    0.225395101948011    0.19496399692139568    0.169649970092398    
  0.1492026151552263    0.1330191759312513    0.16389770994721653    0.14920331698984013    0.13795038650482983    
  0.12973464853359432    0.12420065323287358    0.12102842715726682    0.11999644217394675    0.12102793499511012    
  0.12419974150803974    0.12973347341923316    0.13794917636187448    0.14920234111222563    0.16389727243049676    
  0.18256621947280033    0.20582709610123368    0.2340906305270192    0.26709024420821426    0.3032559894090568    
  0.33881025490013555    0.36703883232987045    0.37938431565586117    0.3696388221553364    0.3390350072388508    
  0.2971962031078018    0.25724803628305476    0.22968797798247984    0.2199973926277394    0.22968452152666938    
  0.25724101276617756    0.2971856795051178    0.33902160747801807    0.3696238549544184    0.3793694438177815    
  0.3670254953680896    0.3387992902792697    0.30324764746509286    0.2670844117643389    0.23408701022334563    
  0.20582528200783368    0.182565751053418    0.16389770994721653    0.19909950608632657    0.1825666407026775    
  0.16965163290916485    0.15991603029346568    0.1530266750969937    0.14866811830349588    0.14656679142327145    
  0.14656656225836798    0.1486674679698854    0.15302572298552014    0.15991498099177173    0.16965075112058517    
  0.18256622065689834    0.19909987296873058    0.21984600987311181    0.24535295948224933    0.27567704397782106    
  0.30980976544911154    0.34488039147291205    0.37519075198478563    0.3922824571073453    0.38797551669626645    
  0.3599750574712549    0.31536349120792306    0.267637133152608    0.22968894208177265    0.20926309618946345    
  0.20926165962910073    0.2296845206474546    0.26762953008863954    0.3153527772504806    0.35996191424284746    
  0.38796125574605844    0.39226861435825655    0.3751785566859237    0.3448705015692994    0.30980233894497233    
  0.2756719311392614    0.2453498409629367    0.21984447805429783    0.19909950608632657    0.2375469019930275    
  0.21984551552717976    0.20582730024554063    0.19496690306642525    0.18693511284843675    0.18147383291421676    
  0.1783291091071404    0.17730481130164397    0.17832875680096488    0.18147320978829562    0.18693438244964428    
  0.1949662990706723    0.2058270986651961    0.21984601124877556    0.2375484105139671    0.25958157010494837    
  0.28632312848731184    0.3173259634002672    0.350662498405201    0.3820373660360907    0.4041747815433832    
  0.40824495080316836    0.3885308226249756    0.34767489587431377    0.29705479104059873    0.2509499972634597    
  0.21999979149198515    0.20926309534565965    0.21999739091325504    0.2509449811700621    0.29704693903602863    
  0.34766432634459127    0.3885182564424506    0.4082316372420243    0.40416208062050435    0.3820263049680935    
  0.35065359480653346    0.31731930396892377    0.28631852679182695    0.2595786993891604    0.2375469019930275    
  0.2774389954885177    0.2595798289798731    0.24535211444682944    0.23409041336827055    0.22539952612168015    
  0.21908677274713081    0.21500248766546465    0.21300382660766523    0.21300372821934677    0.21500223466964943    
  0.21908648304145548    0.22539937829689366    0.2340906344923211    0.24535296224776407    0.25958157147587624    
  0.27744190882611547    0.2995956984605406    0.3261518004291639    0.3560676718317886    0.3864698927339485    
  0.41189531172426186    0.42443771916679995    0.41651349368791546    0.3859899518975736    0.3395617736028272    
  0.290264751783919    0.2509499965010433    0.22968894052573718    0.22968797562369134    0.2509469843914792    
  0.2902594144346829    0.33955389766863636    0.38597970360614436    0.4165016121820011    0.4244253733437594    
  0.41188368937566217    0.3864598370820335    0.35605956851042175    0.32614566309742443    0.2995913195388998    
  0.2774389954885177    0.3163247835104324    0.2995924626051731    0.28632091850729646    0.2756756494824995    
  0.26708945105917176    0.2603673150891992    0.25551408852563057    0.2525753096831482    0.25159004141045344    
  0.25257534426101436    0.2555142375040637    0.2603677078459793    0.26709024931446096    0.27567704787922165    
  0.2863231309576011    0.2995956995287806    0.3163292525412146    0.33714164038739924    0.3618149801256418    
  0.3887354821482029    0.4143016172398209    0.4325336593054837    0.43608300198285593    0.4197030013648451    
  0.38459799776151343    0.3395617729733905    0.2970547896873288    0.2676371311045936    0.2572480335700314    
  0.2676355457668196    0.2970514028324928    0.3395562566699554    0.3845901568004001    0.4196930753840946    
  0.43607177501271105    0.4325222239279572    0.414290972560508    0.388726266095515    0.36180743555333483    
  0.3371357249536915    0.3163247835104324    0.351294268781525    0.3371367708494313    0.32614797875091184    
  0.31732308312031704    0.3098077010400652    0.3032546037252301    0.29778900298872196    0.2937836400161421    
  0.2916469509637958    0.2916470789305108    0.2937840712927505    0.2977898496176106    0.3032559949799574    
  0.3098097698633529    0.3173259663707299    0.32615180195993243    0.3371416408243937    0.35130029140392216    
  0.3691585857542992    0.39019849967614423    0.412411471125242    0.43190827050662883    0.44300559383542226    
  0.4398374063324839    0.4197030011069602    0.38598995102508277    0.3476748943148671    0.3153634890484097    
  0.29719620043753725    0.29719557432428123    0.31536149480207415    0.3476712188516974    0.385984235099198    
  0.41969512970486883    0.43982776123988426    0.4429950116978574    0.43189771313790165    0.4124016906929976    
  0.3901899078155222    0.369151303314858    0.351294268781525    0.37927021724745674    0.3691521305891028    
  0.36180942979361735    0.35606306240063623    0.3506588615342557    0.34487771232133    0.3388084552802265    
  0.3332278082419642    0.32923388284150373    0.32777716905254184    0.3292343564449668    0.33322886829010695    
  0.33881025970719775    0.34488039529576    0.35066250089325957    0.356067672925685    0.36181498013828334    
  0.3691585853383887    0.3792775699971877    0.3926331766077151    0.4085331991485066    0.4248573086918095    
  0.43792698884136727    0.443005594146637    0.4360830020954239    0.4165134932435761    0.3885308215231348    
  0.359975055803639    0.33903500513604995    0.33139954058012666    0.3390339526113775    0.35997271660623015    
  0.38852681232001135    0.41650750760823474    0.4360751000801642    0.44299630783699434    0.4379171164448892    
  0.4248475840455386    0.40852409907791315    0.392624921530776    0.37927021724745674    0.3974271912776852    
  0.39262544139894734    0.39019135066806754    0.38872908410125945    0.3864644711349781    0.3820331145869101    
  0.3751877296288622    0.3670369302270612    0.3596614452947463    0.3552705363376567    0.35527084174504037    
  0.35966244647880224    0.36703883459519654    0.3751907535910323    0.3820373666458583    0.3864698922215166    
  0.38873548073800607    0.3901984979518945    0.39263317536405506    0.3974354265689532    0.40508241699905395    
  0.4148786642217901    0.4248573094627656    0.4319082716648558    0.43253366041016433    0.4244377198609245    
  0.40824495091475443    0.38797551623446347    0.36963882121189806    0.3588422213990298    0.3588417927391011    
  0.3696374148330218    0.3879728144556386    0.4082405946580463    0.42443155977275526    0.43252593697978886    
  0.43189954762589    0.4248482083681141    0.414869648228987    0.4050737372294354    0.3974271912776852    
  0.4037289386673128    0.40507391240200746    0.40852484671853584    0.4124035057682347    0.4142944200179042    
  0.4118893158959731    0.40417028015930145    0.39227946183361545    0.3793825915809446    0.3694709213802178    
  0.3657611946876408    0.3694716806697721    0.3793843134095635    0.3922824545945413    0.4041747785990683    
  0.41189530824701137    0.41430161336254623    0.4124114672949525    0.40853319603116434    0.40508241524417055    
  0.40373747972015717    0.4050824179893444    0.4085332009469127    0.4124114734173244    0.4143016196611055    
  0.41189531394496215    0.40417478332992324    0.39228245834209846    0.37938431630737113    0.369471682803947    
  0.3657611960424313    0.36947092197176257    0.37938259164795907    0.3922794618456435    0.40417028056489873    
  0.4118893168407752    0.4142944213055273    0.4124035070525405    0.4085248477065151    0.4050739129278884    
  0.4037289386673128    0.39742719135944315    0.40507373680615716    0.41486964730590403    0.4248482069974934    
  0.43189954592540325    0.432525935094021    0.42443155772713903    0.408240592210012    0.3879728111578886    
  0.3696374103309493    0.35884178701758945    0.3588422147362437    0.36963881393342857    0.38797550852355256    
  0.4082449428156017    0.42443771144949044    0.4325336520123552    0.43190826396122    0.42485730336676614    
  0.4148786605707    0.4050824162344608    0.3974354285661307    0.3926331794511931    0.39019850309472615    
  0.3887354858359468    0.38646989640193913    0.3820373694315792    0.3751907548968538    0.36703883459542497    
  0.3596624454344827    0.3552708399046792    0.355270533983109    0.35966144285312407    0.3670369282503644    
  0.37518772856562976    0.3820331145371299    0.3864644718278089    0.3887290850932303    0.39019135156305645    
  0.3926254419466166    0.39742719135944315    0.3792702172568584    0.39262492113402225    0.4085240982454477    
  0.4248475827291064    0.4379171145566529    0.4429963052332605    0.43607509650613685    0.4165075026506146    
  0.38852680552414154    0.3599727077708578    0.3390339419850399    0.3313995287365965    0.33903499267262244    
  0.3599750431469983    0.38853080894454217    0.41651348101514213    0.43608299067202216    0.44300558423820796    
  0.43792698127887264    0.4248573041377218    0.40853319782957004    0.39263317820753285    0.3792775737175041    
  0.36915859008427176    0.361814984778952    0.35606767654473426    0.35066250293425927    0.344880395578639    
  0.3388102583522832    0.3332288655998268    0.32923435280696384    0.3277771649245164    0.3292338787851537    
  0.33322780486866344    0.33880845304659785    0.34487771132393363    0.35065886150025954    0.3560630628749898    
  0.3618094303522722    0.36915213094651594    0.3792702172568584    0.35129426854146134    0.3691513028215118    
  0.3901899070441134    0.4124016895476327    0.43189771136435223    0.4429950088462939    0.4398277566908851    
  0.4196951227692822    0.3859842252469944    0.3476712060257346    0.3153614795442489    0.29719555752558746    
  0.29719618293476424    0.31536347142491794    0.34767487698809424    0.38598993446943963    0.4197029860358249    
  0.4398373936917641    0.4430055845494225    0.43190826511944663    0.41241146958703456    0.3901985013704761    
  0.369158589668361    0.3513002963391975    0.33714164562074833    0.3261518056948259    0.31732596846823274    
  0.30980977009754973    0.3032559934140432    0.29778984652146673    0.2937840670726182    0.29164707410149276    
  0.29164694614302283    0.29378363584351364    0.29778899993631885    0.3032546019184773    0.3098077002520317    
  0.3173230829401444    0.3261479787812895    0.3371367708151072    0.35129426854146134    0.3163247829620553    
  0.33713572433101313    0.36180743487212347    0.3887262652772665    0.41429097127970677    0.4325222215096069    
  0.43607177047429885    0.41969306766088815    0.3845901451316402    0.3395562410077924    0.29705138395704717    
  0.26763552491215403    0.25724801185588    0.2676371092589224    0.2970547681873406    0.33956175238780245    
  0.38459797902821213    0.4197029857779399    0.43608299078458995    0.43253365311703534    0.41430161578383035    
  0.38873548442574957    0.36181498479159324    0.3371416460577427    0.3163292579958451    0.29959570385024814    
  0.28632313359327294    0.27567704861623826    0.2670902482039686    0.26036770512343466    0.255514233535931    
  0.2525753395309188    0.2515900365130668    0.2525753052456561    0.2555140850299753    0.26036731270536423    
  0.2670894496313551    0.2756756486734458    0.2863209179774785    0.2995924621199918    0.3163247829620553    
  0.2774389947333904    0.29959131889555274    0.3261456626402546    0.356059568223055    0.38645983666902867    
  0.41188368808864895    0.4244253699631689    0.4165016052625252    0.3859796919775765    0.3395538810113895    
  0.2902593935359619    0.2509469607655988    0.2296879507607631    0.22968891541763192    0.25094997173206673    
  0.29026472795846125    0.33956175175836567    0.3859899335969484    0.41651348057080234    0.4244377121436142    
  0.411895310467711    0.3864698958895067    0.35606767763863034    0.32615180722559434    0.299595704918488    
  0.27744191402747254    0.25958157491185124    0.24535296375528529    0.2340906341521597    0.2253993763375116    
  0.21908647978524842    0.21500223053288883    0.21300372372626933    0.21300382233516107    0.21500248408739311    
  0.21908677007571753    0.2253995242786509    0.23409041210124673    0.24535211348850192    0.25957982815247205    
  0.2774389947333904    0.2375469012337824    0.25957869892428315    0.2863185267527748    0.31731930441174067    
  0.3506535955255679    0.3820263052885504    0.40416207929743814    0.4082316326078841    0.38851824687034103    
  0.3476643109380251    0.29704691816968326    0.25094495636152525    0.21999736402229197    0.2092630678125726    
  0.21999976420730563    0.2509499709696502    0.2970547668340703    0.3476748754286472    0.3885308078427008    
  0.408244942927187    0.4041747803856076    0.3820373700413462    0.35066250542231747    0.3173259714386953    
  0.2863231360635621    0.25958157628277917    0.2375484148303558    0.21984601360137776    0.20582709918247644    
  0.19496629799595488    0.1869343800777235    0.18147320647071216    0.17832875297958445    0.17730480748302752    
  0.1783291057368796    0.1814738302317732    0.18693511084554826    0.19496690157542887    0.20582729907619923    
  0.21984551456504997    0.2375469012337824    0.19909950553300196    0.2198444779650355    0.24534984151084044    
  0.27567193243642185    0.3098023408813225    0.34487050362037924    0.37517855777293646    0.39226861286469217    
  0.3879612497866776    0.35996190225732283    0.3153527587725759    0.26762950611420944    0.2296844931311268    
  0.20926163053397628    0.20926306696876873    0.22968891386159637    0.2676371072109077    0.3153634692654043    
  0.35997504147938175    0.38797550806174885    0.3922824558292939    0.37519075650309985    0.3448803994014868    
  0.3098097745117909    0.2756770525176389    0.24535296652080005    0.21984601497704165    0.19909987608506463    
  0.1825662219568053    0.1696507508678634    0.15991497946858385    0.15302572049618007    0.14866746488598662    
  0.14656655901701246    0.14656678843036502    0.148668115807427    0.15302667314318855    0.1599160287903789    
  0.1696516317417319    0.18256663981925786    0.19909950553300196    0.16389770974236553    0.1825657514568072    
  0.20582528321171048    0.23408701236889828    0.2670844148101498    0.3032476510353899    0.3387992935452831    
  0.36702549699977954    0.3793694420354129    0.36962384781743285    0.33902159357943235    0.2971856587828409    
  0.25724098666131995    0.2296844922519119    0.2199973623078073    0.22968794840197432    0.2572480091428562    
  0.29719618026449934    0.3390349905698207    0.3696388129899894    0.37938431406107276    0.3670388368607506    
  0.3388102631593451    0.30325599898494376    0.26709025331021535    0.23409063811746153    0.20582710174643892    
  0.18256622314090326    0.16389727431430834    0.1492023414878147    0.13794917550527291    0.12973347160470108    
  0.12419973905742082    0.12102793229127208    0.11999643958540591    0.1210284249293816    0.12420065144590053    
  0.12973464715610725    0.1379503854872823    0.14920331633596193    0.16389770974236553    0.1330191761099046    
  0.14920261604551127    0.16964997188201783    0.19496399975446443    0.225395105819261    0.26036107858937885    
  0.297780589533371    0.3332169217247496    0.3596482006391178    0.3694561665871729    0.35882702264137506    
  0.33138635322642274    0.29718565808049    0.26762950450429546    0.25094495388384164    0.25094695767193737    
  0.26763552158196424    0.2971955544022463    0.3313995262840886    0.35884221339418476    0.3694716807478981    
  0.3596624479941927    0.33322887090398084    0.2977898527818843    0.26036771104000517    0.2253993811705547    
  0.19496630145167226    0.16965075295411364    0.1492023423945168    0.1330182564131833    0.12048928786593785    
  0.11113176697052037    0.1045467882449162    0.10038146872499075    0.0983677149332354    0.09836797247644664    
  0.10038220623784926    0.10454789478762797    0.11113305761240783    0.12049052771397352    0.1330191761099046    
  0.10688203607410132    0.12049003009271742    0.13794913946239795    0.15991374558038718    0.18693150395019517    
  0.21908154463592067    0.2555068855032681    0.29377407513069903    0.3292217612827423    0.35525619287120097    
  0.36574566733779235    0.358827022238657    0.3390215925209679    0.31535275680699293    0.2970469152826265    
  0.2902593899964227    0.29705138022059085    0.3153614761150493    0.33903393929682374    0.3588417853761857    