#     DFTpy    
  CRYSTAL 
    
  PRIMVEC    
  3.0454385074630004    1.2740986170000001e-05    -3.2000000000000005e-13    
  -1.5227082197131703    2.6374335598870005    -6.250000000000002e-12    
  -5.300000000000001e-13    -1.217e-11    5.007174100921901    
  PRIMCOORD    
  4    1    
  Si    7.5812672800000005e-06    1.7582931623509104    2.8159036774311503    
  Si    1.5227227064789906    0.8791531385006801    0.3123165899960501    
  Si    7.581268420000002e-06    1.7582931623501805    4.694857473949251    
  Si    1.5227227064839302    0.8791531385202203    2.1912704604542106    
  BEGIN_BLOCK_DATAGRID_3D    
  3d_datagrid_density    
  BEGIN_DATAGRID_3D#0    
  31    31    49    
  0.0    0.0    0.0    
  3.0454385188225443    1.2740986217524123e-05    -3.2000000119360617e-13    
  -1.522708225392901    2.637433569724678    -6.2500000233126205e-12    
  -5.300000019769101e-13    -1.2170000045394333e-11    5.007174119598756    
  0.1597128225356399    0.16456946758196286    0.17920423392891813    0.20386315785456904    0.23905391570997156    
  0.2854974938748065    0.3438306554702931    0.4140424644825323    0.49476494393087    0.5827173169302666    
  0.6726934591557754    0.758253399446789    0.8328106773126023    0.8905785920942857    0.9271166244594067    
  0.9396180596722858    0.9271166297756225    0.8905786013929524    0.8328106886029428    0.7582534108802267    
  0.6726934694465082    0.5827173253576806    0.49476495017242234    0.4140424684722587    0.3438306573294517    
  0.2854974939014348    0.23905391439896603    0.20386315588505657    0.17920423205751287    0.1645694664597958    
  0.1597128225356399    0.1645694655078264    0.16456276292622052    0.17430069857685823    0.19393129284835012    
  0.22381368034961488    0.2645262040151807    0.3166883720393397    0.3805343523207792    0.455269951312828    
  0.5384054388795527    0.6254589929023769    0.7104025841632939    0.7867791899212111    0.8489008654548729    
  0.892534156244523    0.9149971901457967    0.9150061665286155    0.8925609754132137    0.8489449572437362    
  0.7868389855418206    0.7104751050924261    0.6255399368941897    0.5384897979266444    0.45535284281394595    
  0.3806116646097953    0.31675703486250056    0.26458414379467    0.22385961404837285    0.19396448320589144    
  0.17432074492826746    0.1645694655078264    0.17920423004640892    0.17430069678277882    0.17917813212784842    
  0.19391248240671102    0.2187414203419243    0.2540451001526318    0.3002088970735089    0.3573122264578896    
  0.42461620143216794    0.49991124629329736    0.5790541741158052    0.6562476169820275    0.7253016038914444    
  0.781294092346286    0.8215655173354193    0.8454851494040586    0.8533865393483275    0.8455189400042595    
  0.8216328876655469    0.7813936439885648    0.7254294912952268    0.6563969759345563    0.5792157952166846    
  0.5000751789573293    0.42477339068569914    0.357455476290779    0.30033307276180743    0.2541468701373839    
  0.2188188249097222    0.1939644821089886    0.17920423004640892    0.20386315266460833    0.19393128978803875    
  0.1939124811704111    0.20380684407531663    0.22376624025491612    0.2540174759669462    0.29468573081366123    
  0.34551175217939994    0.4054374887163595    0.4720310909042885    0.5409759082864453    0.6062720707655438    
  0.6617000301062513    0.7030691965272292    0.7297406324347712    0.7442360808243365    0.7502281553148046    
  0.7502508986095054    0.7443046839131245    0.7298552998014258    0.7032277705662956    0.6618959655094243    
  0.6064941082941389    0.5412098673194984    0.4722626733507307    0.4056545031540719    0.3457050241667101    
  0.2948490017870041    0.25414686883167725    0.2238596116728763    0.20386315266460833    0.23905390987862465    
  0.2238136767240279    0.21874141861684868    0.22376623981496307    0.23895945774204083    0.26444370536162554    
  0.3001487507728763    0.34548069240113255    0.39892259830511134    0.45750349643676363    0.5162796423948083    
  0.5685350483501511    0.607527163970187    0.6294247762262886    0.6354702583619453    0.6315029870275245    
  0.6250935105761708    0.6222312004781618    0.6251453437443104    0.6316086093912611    0.6356310795917874    
  0.6296379609803903    0.6077830774338231    0.5688178014821567    0.5165705025848412    0.45778486765818727    
  0.39918044107994644    0.3457050227120013    0.3003330700142102    0.26458414002289615    0.23905390987862465    
  0.28549748813417336    0.26452620058163395    0.2540450987465608    0.2540174759566967    0.26444370585658533    
  0.2853612803345379    0.31656926905278815    0.3572198675090472    0.4053771997152631    0.4574755956821947    
  0.507746914684793    0.5483789502098708    0.5715547483802482    0.5732236675199363    0.5560963362508377    
  0.5290722646361335    0.5033204097746522    0.48801834022589685    0.48804411917566837    0.5033998827919176    
  0.5292101789065425    0.5562956408489694    0.573480453457524    0.5718558187298033    0.5487039912374043    
  0.5080737366902743    0.4577848661962015    0.4056545002403915    0.35745547210489936    0.31675702971683817    
  0.28549748813417336    0.34383065052269474    0.31668836949423024    0.30020889671303597    0.29468573201689113    
  0.30014875261870316    0.3165692704818081    0.3436549502744997    0.38038307187366893    0.4244976300059819    
  0.47194860980761094    0.516231634860424    0.5483594836960453    0.5589958884977275    0.5430941003420104    
  0.5041229079283202    0.453701539686579    0.40632989820586396    0.3736494933668439    0.36212990255430366    
  0.373696992843266    0.4064305068036351    0.45386299066733815    0.5043489621846119    0.5433788203702623    
  0.5593223257149657    0.5487039898388519    0.5165704997491823    0.47226266908772435    0.42477338519350455    
  0.3806116582543233    0.34383065052269474    0.41404246093062697    0.3805343512148296    0.35731222768083665    
  0.3455117551617274    0.3454806962242763    0.35721987107481395    0.3803830741009058    0.4138361050878532    
  0.4550969261725644    0.4997777033509351    0.5408827076361218    0.5684782482940518    0.5715266365439552    
  0.5430847894032647    0.48615701284573243    0.41442728714640953    0.34586721965943995    0.2946576389013221    
  0.2679728993780663    0.26799245347067097    0.2947198359092417    0.34598104177626304    0.41460221417780635    
  0.4863959416855747    0.5433788188633359    0.5718558158953084    0.5688177973178679    0.541209861829244    
  0.5000751723445542    0.4553528354930635    0.41404246093062697    0.4947649422291072    0.45526995199416226    
  0.4246162045176617    0.4054374937328331    0.398922604384477    0.40537720576188374    0.4244976348983891    
  0.4550969289464129    0.4945429763037257    0.5382263025388583    0.5789209877113384    0.6061824279964101    
  0.6074741182859698    0.5731972479554223    0.5041124285929862    0.4144242354980243    0.3255742447252354    
  0.2554355979468464    0.2125382257806071    0.19835622484893753    0.21256999928015635    0.2555059172320351    
  0.3256939022093677    0.4146022123524279    0.5043489588733224    0.5734804489527456    0.6077830718299727    
  0.6064941016123512    0.5792157876455226    0.5384897898984892    0.4947649422291072    0.5827173173382326    
  0.538405441438631    0.49991125119946317    0.4720310978202479    0.45750350459519284    0.4574756040486549    
  0.4719486172784614    0.49977770893283996    0.5382263054950149    0.5824997064801942    0.6252927323997055    
  0.6561316622156232    0.6616277139499931    0.6293854741887238    0.5560778924052419    0.45369335510934156    
  0.34586275317228765    0.2554327854232355    0.19457145971935233    0.16506340671355701    0.1650751020183917    
  0.19460967069184804    0.255505915240293    0.3459810378901186    0.4538629852415353    0.5562956343392951    
  0.6296379536880934    0.6618959575603788    0.6563969675100632    0.6255399283986323    0.5827173173382326    
  0.6726934616687604    0.6254589970993116    0.5790541804007933    0.5409759164880998    0.5162796518863878    
  0.5077469245542574    0.5162316441058197    0.5408827153281432    0.5789209931111098    0.6252927350759271    
  0.6725021366137915    0.7102677650170965    0.7252168937539377    0.7030229636330675    0.6354484019483363    
  0.5290617715714903    0.40632207542129456    0.29464916177871536    0.21252968377827197    0.16505729224759605    
  0.1498640309720464    0.16507510010873172    0.21256999534455578    0.2947198299614023    0.4064304991683653    
  0.5292101701916679    0.6356310703932697    0.7032277612469716    0.7254294820945437    0.7104750963588059    
  0.6726934616687604    0.7582534036863746    0.7104025893438161    0.656247623725282    0.6062720790860983    
  0.5685350577894897    0.5483789600277623    0.5483594930777135    0.5684782564970285    0.6061824344185217    
  0.6561316664446553    0.7102677669400055    0.7581071912225864    0.786688708559508    0.7812470178359315    
  0.7297207529256533    0.631494332151431    0.5033114783941597    0.37363543731834714    0.26795434378812455    
  0.19833627196891226    0.16505729046102882    0.16506340303706465    0.19835621915045218    0.2679924456891889    
  0.3736969832264737    0.5033998720183188    0.6316085983391927    0.7298552891636534    0.7813936341640335    
  0.7868389768412196    0.7582534036863746    0.8328106824183735    0.7867791949819688    0.7253016096967462    
  0.6617000368623802    0.607527171415297    0.5715547559879841    0.5589958957024855    0.5715266428882813    
  0.6074741234479506    0.6616277177082742    0.7252168959952866    0.7866887094012353    0.8327197588390615    
  0.8488574936599397    0.8215519999325009    0.7442333640640464    0.6250864012402096    0.48799930079798154    
  0.36209909331983275    0.2679543421387941    0.21252968037004663    0.1945714544873429    0.21253821861498126    
  0.2679728901869861    0.3621298915042111    0.48804410692445543    0.6251453313422164    0.7443046723642246    
  0.8216328775966086    0.848944948981914    0.8328106824183735    0.8905785967593617    0.8489008689856807    
  0.7812940955605374    0.703069199797132    0.6294247795282418    0.5732236706015412    0.5430941029315353    
  0.5430847913579342    0.573197249285686    0.6293854749812834    0.7030229639613206    0.7812470177608877    
  0.8488574933678555    0.8905409300139356    0.8925286689388064    0.8454905134365631    0.7502252108276366    
  0.6222083154190512    0.4879992994672387    0.37363543433848884    0.29464915708207995    0.2554327790178067    
  0.25543558979353054    0.2946576289361979    0.37364948171049417    0.4880183274634771    0.6222311876908322    
  0.7502508869901374    0.8455189303901725    0.8925609681952126    0.8905785967593617    0.9271166272656713    
  0.8925341569518883    0.8215655165650295    0.7297406306357369    0.6354702557854661    0.5560963330104886    
  0.5041229041088496    0.48615700860277977    0.5041124241949125    0.5560778881978266    0.6354483982590425    
  0.7297207499696285    0.8215519978073121    0.892528667743673    0.9271175331938052    0.915009481819007    
  0.8533879818196041    0.7502252101255673    0.6250863992210988    0.5033114747216    0.40632207006504567    
  0.345862746240684    0.3255742362977649    0.34586720975635205    0.40632988694996425    0.5033203976686668    
  0.6250934986228005    0.750228144739036    0.8533865311058519    0.9150061610792845    0.9271166272656713    
  0.9396180596722861    0.9149971874499017    0.8454851441823521    0.7442360734231258    0.6315029779429927    
  0.529072254434123    0.4537015289048558    0.41442727624493175    0.41442422488491265    0.45369334520138505    
  0.5290617628142771    0.631494324956919    0.7442333586999382    0.8454905099614849    0.9150094801359484    
  0.9396330719663127    0.915009481710066    0.8454905127561562    0.7442333622004912    0.6314943287033898    
  0.5290617664853267    0.4536933485622863    0.4144242276976913    0.41442727823249637    0.4537015298269759    
  0.5290722542693266    0.6315029770253058    0.7442360723225281    0.845485143365424    0.9149971870644774    
  0.9396180596722861    0.9271166269693585    0.9150061609607009    0.8533865305481974    0.7502281432695055    
  0.6250934958593941    0.5033203933966675    0.4063298812494114    0.3458672029575559    0.32557422878287295    
  0.3458627383091793    0.4063220619692421    0.5033114667964992    0.625086391984068    0.7502252042421087    
  0.8533879778819944    0.9150094800270072    0.9271175331770536    0.8925286687028972    0.8215519988838218    
  0.7297207505653784    0.6354483981090064    0.55607788722707    0.5041124223406881    0.4861570057581573    
  0.504122900236843    0.5560963283598739    0.6354702510129863    0.7297406266192871    0.8215655139432149    
  0.8925341557562647    0.9271166269693585    0.8905785967278768    0.8925609684667019    0.8455189296334875    
  0.7502508841922474    0.6222311823465929    0.48801831964159714    0.3736494719621404    0.29465761799533796    
  0.25543557822789936    0.2554327670959536    0.2946491449232481    0.37363542219484264    0.4879992879499656    
  0.6222083055060946    0.7502252035400392    0.8454905092810777    0.8925286675077637    0.8905409301054559    
  0.848857493550401    0.7812470169459048    0.7030229616328664    0.6293854710710405    0.5731972439179864    
  0.5430847846977286    0.5430940952347574    0.5732236623986451    0.6294247717296886    0.7030691935012715    
  0.7812940915726816    0.848900867363495    0.8905785967278768    0.8328106834971717    0.8489449507390137    
  0.8216328781082247    0.744304669959174    0.6251453251119727    0.4880440969747546    0.36212987878397085    
  0.2679728759244027    0.21253820371035095    0.1945714392758027    0.21252966483202268    0.267954326326435    
  0.36209907775027755    0.48799928661922287    0.6250863899649569    0.7442333568363825    0.8215519967586327    
  0.8488574932583166    0.8327197592639036    0.7866887089081894    0.7252168935512141    0.6616277130021494    
  0.6074741166356294    0.5715266343579006    0.5589958860126651    0.5715547459524457    0.6075271621547672    
  0.6617000296204371    0.7253016054003026    0.7867791937814357    0.8328106834971717    0.7582534066406408    
  0.7868389809453452    0.7813936371658132    0.7298552888064316    0.6316085930954815    0.5033998616499464    
  0.3736969687871668    0.26799242886190067    0.19835620134132614    0.1650633848736179    0.16505727193945788    
  0.19833625298220367    0.2679543246771048    0.37363541921498417    0.503311463123939    0.6314943215088773    
  0.7297207476093533    0.7812470168708614    0.7866887097499164    0.7581071922221895    0.710267766094708    
  0.6561316630212164    0.6061824284118114    0.5684782483589202    0.5483594835635847    0.5483789501700337    
  0.5685350488685039    0.6062720724362228    0.656247620348217    0.7104025894942739    0.7582534066406408    
  0.6726934669335229    0.7104751031844438    0.7254294882069333    0.7032277640698188    0.6356310677845819    
  0.529210161231563    0.40643048452538144    0.2947198114583663    0.21256997492306803    0.16507507895347345    
  0.14986400938266892    0.1650572701528907    0.21252966142379714    0.2946491402266124    0.40632205661299303    
  0.5290617577281128    0.6354483944197121    0.7030229619611194    0.7252168957925624    0.7102677680176167    
  0.6725021383536957    0.6252927343488227    0.5789209896352598    0.5408827094650694    0.5162316366503921    
  0.507746916631849    0.5162796448549837    0.5409759117221092    0.5790541789397178    0.6254589992874026    
  0.6726934669335229    0.5827173249497142    0.6255399378241858    0.6563969766906358    0.6618959639442026    
  0.6296379547824932    0.5562956284777607    0.4538629722471574    0.3459810191350737    0.25550589287766023    
  0.1946096465560304    0.16507507704381358    0.16506338119712563    0.19457143404379335    0.2554327606905247    
  0.3458627313775755    0.4536933386543292    0.5560778830196543    0.6293854718635998    0.6616277167604302    
  0.6561316672502484    0.6252927370250447    0.5824997090689179    0.5382263054644366    0.4997777064696456    
  0.4719486130897588    0.4574755992192742    0.4575035004585228    0.4720310957315956    0.49991125220501265    
  0.5384054459531891    0.5827173249497142    0.4947649518741846    0.5384898014376631    0.5792157993480035    
  0.6064941112179522    0.6077830768787233    0.5734804473147778    0.5043489494159246    0.41460219542968796    
  0.32569387950354634    0.2555058908859183    0.21256997098746752    0.1983561956428408    0.21253819654472497    
  0.2554355700745834    0.32557422035540184    0.4144242170845789    0.5041124179426137    0.5731972452482497    
  0.6074741217976096    0.6061824348339228    0.5789209950350311    0.5382263084205932    0.4945429798945959    
  0.4550969302337575    0.4244976344321458    0.40537720449063525    0.3989226035260967    0.4054374945623426    
  0.4246162080580855    0.45526995871665216    0.4947649518741846    0.41404247202416333    0.4553528484304638    
  0.5000751857331387    0.541209873808413    0.5688178057525803    0.5718558186389057    0.5433788141683764    
  0.48639592876668114    0.41460219360430933    0.345981015248929    0.2947198055105268    0.26799242108041854    
  0.2679728667333222    0.2946576080302134    0.3458671930544675    0.41442726733101753    0.4861570015152041    
  0.5430847866523975    0.5715266407022265    0.5684782565618965    0.5408827171570906    0.49977771205155025    
  0.45509693300760573    0.4138361098528743    0.3803830771619418    0.35721987319664933    0.34548069845401086    
  0.3455117586481468    0.3573122333973102    0.3805343596777176    0.41404247202416333    0.34383066227704967    
  0.3806116717302258    0.42477339929627367    0.47226268233300955    0.5165705104205102    0.5487039961017273    
  0.5593223257416942    0.5433788126614505    0.5043489461046351    0.4538629668213544    0.40643047689011164    
  0.37369695917037443    0.36212986773387784    0.37364946030579027    0.40632986999351106    0.4537015190452521    
  0.5041228964173717    0.5430940978242818    0.558995893217423    0.5483594929452528    0.5162316458957877    
  0.4719486205606092    0.4244976393245531    0.3803830793891789    0.34365495616736375    0.31656927532267054    
  0.3001487572695532    0.2946857374834727    0.30020890390359223    0.31668837895865787    0.34383066227704967    
  0.2854974996420674    0.31675704279615785    0.3574554859066267    0.40565451357870624    0.45778487771414433    
  0.5080737449505897    0.5487039947031748    0.5718558158044112    0.5734804428099993    0.5562956219680864    
  0.529210152516688    0.5033998508763473    0.48804408472354144    0.4880183068791768    0.5033203812906814    
  0.5290722440673149    0.5560963251195241    0.5732236654802495    0.5715547535601809    0.548378959987925    
  0.5077469265013131    0.4574756075857343    0.405377210537256    0.35721987676241623    0.3165692767516904    
  0.28536128687093376    0.2644437119249652    0.25401748243312733    0.2540451064760509    0.26452621013672767    
  0.2854974996420674    0.23905392023031263    0.2645841517948387    0.30033308254828733    0.3457050350425435    
  0.3991804521033624    0.45778487625215875    0.5165705075848512    0.5688178015882918    0.6077830712748729    
  0.6296379474901961    0.6356310585860642    0.6316085820434129    0.6251453127098785    0.6222311695592626    
  0.6250934839060232    0.631502967940773    0.6354702484365065    0.6294247750316414    0.6075271695998766    
  0.5685350583078426    0.5162796543465632    0.4575035086169524    0.3989226096054626    0.3454807022771551    
  0.3001487591153802    0.2644437124199252    0.23895946407920238    0.2237662462091793    0.218741425866836    
  0.2238136854193068    0.23905392023031263    0.2038631610750171    0.22385962136995485    0.2541468792908823    
  0.2948490121962096    0.34570503358783483    0.4056545106650261    0.4722626780700034    0.5412098683181591    
  0.6064941045361646    0.661895955995157    0.7032277547504949    0.729855278168659    0.7443046584102736    
  0.750250872572879    0.7502281326937364    0.7442360649213166    0.7297406248202524    0.7030691967711736    
  0.6617000363765656    0.6062720807567771    0.5409759199237641    0.4720311026475552    0.40543749957881664    
  0.3455117616304748    0.294685738686703    0.25401748242287814    0.2237662457692262    0.20380684936271468    
  0.19391248700428    0.1939312967750803    0.2038631610750171    0.17920423594002197    0.19396448918910383    
  0.21881883273228592    0.2541468779851756    0.30033307980069024    0.3574554817207473    0.424773393804079    
  0.5000751791203641    0.5792157917768417    0.6563969682661429    0.7254294790062503    0.7813936273412823    
  0.8216328680392859    0.8455189200194    0.8533865223057213    0.8454851381437166    0.8215655131728246    
  0.7812940947869326    0.7253016112056042    0.6562476270914716    0.5790541852247062    0.49991125711117895    
  0.4246162111435796    0.35731223462025763    0.30020890354311963    0.25404510506998007    0.2187414241417605    
  0.19391248576798006    0.17917813581245332    0.17430070141549084    0.17920423594002197    0.1645694685339323    
  0.17432074908475845    0.19396448809220115    0.2238596189944584    0.26458414802306507    0.31675703765049557    
  0.3806116653747541    0.4553528411095819    0.5384897934095081    0.6255399293286289    0.7104750944508239    
  0.7868389722447444    0.8489449424771908    0.8925609612487004    0.915006155511369    0.9149971843685814    
  0.8925341564636297    0.8489008708943023    0.7867791988421932    0.710402594674796    0.6254590034843374    
  0.5384054485122678    0.4552699593979868    0.3805343585717685    0.31668837641354886    0.2645262067031814    
  0.22381368179371997    0.19393129371476897    0.17430069962141168    0.1645627647886381    0.1645694685339323    
  0.1597128225356399    0.16456946758196286    0.17920423392891813    0.20386315785456904    0.23905391570997156    
  0.2854974938748065    0.3438306554702931    0.4140424644825323    0.49476494393087    0.5827173169302666    
  0.6726934591557754    0.758253399446789    0.8328106773126023    0.8905785920942857    0.9271166244594067    
  0.9396180596722858    0.9271166297756225    0.8905786013929524    0.8328106886029428    0.7582534108802267    
  0.6726934694465082    0.5827173253576806    0.49476495017242234    0.4140424684722587    0.3438306573294517    
  0.2854974939014348    0.23905391439896603    0.20386315588505657    0.17920423205751287    0.1645694664597958    
  0.1597128225356399    0.15811488936655768    0.16290325109101425    0.17733027910283325    0.20163886602771428    
  0.2363252170871328    0.2820901761685501    0.33954885504077104    0.40867786781996185    0.4881149612814274    
  0.5746089239231127    0.6630112556115372    0.7469720633643222    0.8200299095554172    0.8765516807388387    
  0.9122556537075348    0.9244589901659691    0.912243319387342    0.8765289438563169    0.8200000498899219    
  0.746938805384269    0.6629779083529932    0.5745778500794273    0.4880874770129971    0.40865446372123665    
  0.33952951856439023    0.2820746562408135    0.2363131977473308    0.20163006987557108    0.17732451065500804    
  0.162900393906077    0.15811488936655768    0.16290039305285992    0.1628951690304622    0.17252840479469336    
  0.19196928443657493    0.22159660762607636    0.261979052204844    0.31368512986418284    0.3768621683609381    
  0.45059468744479414    0.5322244889382083    0.6170667115485519    0.6989561118123478    0.7715448955208761    
  0.8296370578020523    0.8698169834628185    0.890270967271524    0.8902735772212761    0.869825702185692    
  0.8296540182540151    0.771572176440279    0.6989943989791272    0.6171146304796865    0.5322788840195644    
  0.45065154509804156    0.3769175847596607    0.3137358971855625    0.26202282272121397    0.22163181119181277    
  0.19199495422355625    0.17254399105524076    0.16290039305285992    0.17732450889003923    0.1724589417334411    
  0.17730149690865418    0.19194915339526705    0.21668221955120157    0.2518994694395645    0.29794271177138637    
  0.3547694500041557    0.42142461897192895    0.49535554334931853    0.5719564613947    0.6450082957485636    
  0.7082697130955197    0.7574372102367053    0.7911300418419714    0.8102625167330935    0.8164070862583076    
  0.8102836902009393    0.7911741078129673    0.7575061186020297    0.70836350147495    0.6451235632673475    
  0.5720863996063831    0.4954914365566117    0.4215577999866382    0.3548926752948287    0.29805063809972365    
  0.2519885249033579    0.21675023707697344    0.19199495327612048    0.17732450889003923    0.20163006710520234    
  0.19171790683829887    0.19170071884105722    0.20157861380093953    0.22154652063958966    0.2518704628209632    
  0.29265385683479284    0.3435119974002392    0.4031092601085041    0.4685140765943744    0.5346805107200128    
  0.5948738564723893    0.642624048829385    0.674432907914512    0.6912964136288287    0.697774203857819    
  0.6992749860352798    0.6992911893509824    0.6978241794600513    0.6913831387922678    0.674558131562923    
  0.6427852420894936    0.5950628682497668    0.5348848723378317    0.4687200208669568    0.4033045160633895    
  0.34368716044007064    0.2928024736203781    0.2519885238040496    0.22163180917259206    0.20163006710520234    
  0.2363131939248238    0.22099673981045664    0.2159084417142304    0.2209527463393315    0.23622556603749395    
  0.2618924927198384    0.29787961498988985    0.34347927230726455    0.39686982130220766    0.45446321685832974    
  0.5103383030013586    0.5567206297228852    0.5864138781094356    0.5963943821639424    0.5899271322756628    
  0.5752486471181179    0.5617766060255617    0.5564658913302679    0.5618153431732205    0.5753299609066503    
  0.5900559569398691    0.5965722839413649    0.5866352438228589    0.5569721199729198    0.510602047518753    
  0.4547214254775088    0.3971080028111292    0.34368715922692034    0.2980506358049293    0.26202281955562645    
  0.2363131939248238    0.28207465142519916    0.26085286217782977    0.25026423205921106    0.25023847688152273    
  0.2607759012277594    0.2819474565019958    0.31356036722871744    0.35467226397577273    0.4030452261922247    
  0.45443315005229284    0.5018924892063911    0.5362330679144875    0.5489556324537397    0.5369737127428026    
  0.5055505360576221    0.4664137678515709    0.43243809912270653    0.41313729798642607    0.41315636872494355    
  0.4324982819264033    0.46652239059180656    0.5057147180694409    0.5371943161787788    0.5492232448947214    
  0.5365291144979442    0.5021947135121548    0.4547214242372877    0.40330451362451497    0.3548926718084379    
  0.3137358929008334    0.28207465142519916    0.33952951292004957    0.31191788791873964    0.2951713352833456    
  0.28956635297379274    0.2951152659817682    0.3118067153074342    0.33936519800776277    0.37670336183607905    
  0.42129897527560256    0.4684253562675946    0.5102855516231192    0.5362110466647066    0.5358551751134499    
  0.5051935136806962    0.45088497820663415    0.38809586812430635    0.3330342113051801    0.2967628681643179    
  0.2842792064998812    0.2967975084106258    0.3331104289936443    0.3882244651233666    0.45107437650588084    
  0.5054426276636355    0.5361502259347435    0.5365291132312027    0.5106020450527838    0.46872001725375223    
  0.4215577953930915    0.3769175794766877    0.33952951292004957    0.40865445747016754    0.3744826074684108    
  0.3508118456151791    0.338799836139579    0.33877105519338035    0.3507261512703558    0.3743419048398974    
  0.40846192266468667    0.45041199656075714    0.4952124064939633    0.5345783848446732    0.55665645407461    
  0.5489224985480574    0.5051818617438324    0.43210930379878754    0.347968772678314    0.27299287773149983    
  0.2201589123317429    0.19372883495394214    0.1937424266356809    0.22020357653414488    0.2730791277830951    
  0.34810950392845114    0.43231228532275706    0.5054426261829127    0.5492232422148164    0.5569721162208524    
  0.5348848675777155    0.49549143095686643    0.4506515389800094    0.40865445747016754    0.4880874703849355    
  0.4478710653829725    0.41666253861832503    0.39717524961696077    0.3905671754145493    0.3971199620849106    
  0.41655351850467376    0.4477113468033935    0.48788160497640337    0.532033424734769    0.5718111918559038    
  0.5947728570683394    0.5863512965978251    0.5369404440576847    0.45087059680465946    0.34796430291372116    
  0.25322056174368607    0.18351440943274264    0.14337939492682483    0.1305810169213606    0.14340095270819592    
  0.1835646682260766    0.25331199326751797    0.34810950213640884    0.4510743732192986    0.5371943117842174    
  0.5866352385768365    0.5950628622714645    0.5720863930580435    0.5322788772226571    0.4880874703849355    
  0.5745778432858742    0.5298024632380491    0.4908933337060123    0.46281172127243625    0.4482266725684573    
  0.4482015462661703    0.46273727072079834    0.49077227086922526    0.5296391182729521    0.5743781233160574    
  0.6168864947564182    0.6448782936122083    0.6425387300433493    0.5963443401957111    0.5055244832464881    
  0.388083410030225    0.272986914117862    0.18351166566255414    0.1276334390694513    0.102085024426588    
  0.1020926282461057    0.12765933442502567    0.18356466637540633    0.273079124055337    0.3882244597836121    
  0.505714711634107    0.5965722768978247    0.6427852347196052    0.6451235557625946    0.6171146231299065    
  0.5745778432858742    0.6629779015848012    0.6160962148428333    0.5699234858478786    0.5322444780056471    