#     DFTpy    
  CRYSTAL 
    
  PRIMVEC    
  3.5180065517245005    1.471803575e-05    -3.7000000000000004e-13    
  -1.7589905296686603    3.0466904915936004    -7.220000000000001e-12    
  -6.100000000000001e-13    -1.4060000000000003e-11    5.784149392444261    
  PRIMCOORD    
  4    1    
  Si    8.757670820000001e-06    2.0311317565088105    3.252854248067011    
  Si    1.7590072643809003    1.0155734530956204    0.3607795091333701    
  Si    8.757672140000002e-06    2.0311317565079703    5.423369840596552    
  Si    1.7590072643866104    1.0155734531181804    2.5312951870764104    
  BEGIN_BLOCK_DATAGRID_3D    
  3d_datagrid_density    
  BEGIN_DATAGRID_3D#0    
  37    37    55    
  0.0    0.0    0.0    
  3.5180065648467322    1.4718035804898555e-05    -3.700000013801071e-13    
  -1.7589905362297287    3.0466905029578144    -7.220000026930739e-12    
  -6.100000022753119e-13    -1.4060000052444071e-11    5.784149414019249    
  0.06683755698288997    0.0685238522230649    0.07369899065207532    0.08269720933546579    0.09603332283123489    
  0.11435757482909159    0.13841536392865417    0.16900315262892388    0.20687999743279756    0.2525841078443309    
  0.30614504111155194    0.36675723309962294    0.43252793667784684    0.5003906656391611    0.56621606203235    
  0.6251243074178829    0.6720152810490521    0.7023111370077969    0.7127969323034858    0.7023111400535856    
  0.6720152866156808    0.6251243146658261    0.5662160700744914    0.5003906737155059    0.4325279442103812    
  0.3667572396849889    0.3061450464999904    0.25258411191255153    0.20688000015232139    0.16900315405213784    
  0.13841536420888642    0.11435757424536226    0.09603332176331514    0.08269720817828287    0.07369898972228972    
  0.06852385171571274    0.06683755698288997    0.0685238511933528    0.06852555838164345    0.07195774613361351    
  0.07904378882167502    0.09020324574459981    0.1060122977776193    0.12716616145696605    0.15443990290875967    
  0.1886187658126472    0.23035569405521558    0.2799319331881397    0.3369485100345808    0.40003330976364776    
  0.46666850976157626    0.5332129767596514    0.5951455839362926    0.6475241402076367    0.6856310055097197    
  0.7057225091695953    0.7057174812377394    0.6856162676514372    0.6475006827922133    0.5951149310406625    
  0.5331770559177229    0.4666294900201684    0.3999933720513499    0.3369095809980342    0.27989548813772674    
  0.23032270728034682    0.1885897831444924    0.15441515281347865    0.1271456527981639    0.10599590356114624    
  0.09019077832854748    0.07903505588716803    0.07195258308725358    0.0685238511933528    0.07369898865332772    
  0.07195774518047234    0.07370570205277177    0.07904864493149588    0.0882890038867491    0.10189563662353714    
  0.12047861853268035    0.1447617867302555    0.1755180465573219    0.21343594701227656    0.25891126501072814    
  0.3117801015769271    0.37103302696245993    0.4345889722888863    0.4992437350417831    0.5608878868613262    
  0.6149911108724964    0.6572307690943364    0.6840900449350317    0.6932972003532778    0.6840703659894912    
  0.6571927301417758    0.61493721904593    0.5608216166113381    0.4991692237701634    0.4345105972000779    
  0.37095488858561454    0.31170556408631805    0.25884272661333874    0.21337487734139862    0.1754651763473226    
  0.14471731792648002    0.12044240653119459    0.1018673490839153    0.08826824897002092    0.07903505531433117    
  0.07369898865332772    0.08269720650513662    0.07904378706679335    0.07904864414294664    0.08271190286242884    
  0.09021565884561535    0.10190291550200957    0.11826312661061021    0.13992432141746078    0.16760432659297553    
  0.20197852801750882    0.24347344730355283    0.2920215458765183    0.34679679139300235    0.4059687323675415    
  0.46660250755345734    0.5248832146345795    0.5767123461721145    0.6184594111377448    0.6475021519895214    
  0.6623310306475427    0.662316610462534    0.6474597987491407    0.618391816995342    0.5766238548869798    
  0.5247794890742329    0.4664899396064111    0.40585366395450057    0.3466847554157622    0.29191676941323097    
  0.2433787319583442    0.20189542981818115    0.16753346179239242    0.13986567084437404    0.11821629703373886    
  0.1018673483987287    0.09019077709715931    0.08269720650513662    0.09603331939813889    0.09020324342795547    
  0.08828900256094384    0.09021565831896919    0.09605845599641585    0.10603431133148937    0.1204947920504179    
  0.13993278654306399    0.16495743795888884    0.19617599673972572    0.23398389495415967    0.2783149682028986    
  0.32837722217604953    0.3823891426299489    0.43744841475356927    0.48979348723473365    0.5355865465696635    
  0.5719264707644739    0.5974852572210811    0.6123441688629935    0.6171687530393413    0.6123082471869651    
  0.5974153785942677    0.5718267271229898    0.5354631479621089    0.4896542522752938    0.4373017654383782    
  0.38224294671677417    0.32823789614717175    0.2781870684691017    0.23387017442653105    0.19607774855239588    
  0.16487493166093586    0.1398656699915774    0.12044240501758084    0.10599590155429417    0.09603331939813889    
  0.11435757110606935    0.10601229521911508    0.10189563509056342    0.10190291478967087    0.10603431115623103    
  0.11439482015821631    0.12719886513137005    0.14478736134061201    0.16762120781827403    0.19618388765024009    
  0.23077755197123556    0.27126279500359085    0.31677371901109774    0.36541596223211226    0.41409306133287793    
  0.4588129033466145    0.4957101223973982    0.5224339047113272    0.5390197727247589    0.5475674427315887    
  0.55087781724242    0.550857414636333    0.5475070016960422    0.5389219409970576    0.5223038631807284    
  0.4955557368467344    0.45864390454440546    0.4139195213697095    0.36524677596788585    0.3166156535007575    
  0.27112024454291106    0.23065282352194466    0.1960777475316707    0.16753345993582583    0.14471731545279976    
  0.12714564990728952    0.11435757110606935    0.13841536027931992    0.12716615902106584    0.12047861716499107    
  0.11826312609789982    0.12049479209981927    0.1271988653704483    0.1384652538065134    0.15448309559056797    
  0.17555214561276433    0.20200236195495117    0.23399770473617612    0.27126824258345306    0.3128001651707166    
  0.356480847097467    0.39885636863889035    0.4354567143494436    0.46207339575336837    0.4766080680773435    
  0.480286396652854    0.477236078010269    0.47263796332281305    0.47058214949104904    0.47259595129019394    
  0.4771528385113796    0.4801646331801425    0.4764536697110754    0.4618956240720849    0.4352668944790065    
  0.39866576496838546    0.35629882043720384    0.3126332681984723    0.2711202434412197    0.2338701723100364    
  0.20189542689135292    0.17546517285997873    0.15441514900232442    0.13841536027931992    0.16900314942442402    
  0.15443990095825388    0.14476178589330124    0.13992432148326306    0.1399327872167592    0.1447873622415159    
  0.1544830962749782    0.1690647325096303    0.18867070069962866    0.2134761716123625    0.24350133535875565    
  0.27833141376685194    0.31678100879563686    0.3564823978064129    0.3935463423338268    0.4228487407178346    
  0.4395326759035874    0.44138852333041523    0.4305376903670757    0.41294123583543335    0.3959846405764766    
  0.3858254718702902    0.38580547358409006    0.3959243480760897    0.41284064916798635    0.43039917364466346    
  0.44121852762554786    0.4393416924083315    0.4226493025196926    0.3933502792253349    0.35629881939007346    
  0.31661565135210334    0.27818706531183013    0.24337872802005447    0.21337487290794077    0.18858977849277034    
  0.16900314942442402    0.20687999501518628    0.18861876466885097    0.1755180465662188    0.16760432756259205    
  0.16495743960713152    0.16762120976471817    0.1755521474001552    0.18867070183566967    0.20695060343998922    
  0.23041297871401836    0.25895371277066354    0.29204927553755167    0.32839191970672865    0.3654206363669329    
  0.39885503774957204    0.4228459665697516    0.43159264415938287    0.4222927607876527    0.3975226771754348    
  0.36484028961028414    0.3336646966654768    0.311858423376494    0.3040871985912613    0.31182283806029076    
  0.3335920530862337    0.36472955271723617    0.39737602095009844    0.4221173673024068    0.4314000645713037    
  0.42264930158000846    0.3986657630050534    0.3652467729196869    0.328237892105562    0.29191676462733473    
  0.2588427214070371    0.2303227019710097    0.20687999501518628    0.2525841064962051    0.23035569396584427    
  0.21343594809803346    0.2019785301255652    0.19617599962173088    0.1961838909423821    0.2020023651934843    
  0.21347617427933174    0.230412980288016    0.25265930907476003    0.27998960204592493    0.31181956235174507    
  0.3468191445030222    0.3823970424662077    0.41409042295015835    0.4354483798403872    0.43952374908405367    
  0.42228738023800677    0.38599878307714924    0.3393900135575541    0.2939355125765055    0.2592189568113363    
  0.24078376572747426    0.24076908798905072    0.2591736789113743    0.29385689844594176    0.33927648478985656    
  0.3858529410741895    0.42211736631166097    0.43934169054329963    0.4352668916848554    0.41391951756771705    
  0.3822429419758134    0.3466847499900076    0.3117055583294394    0.2798954824014308    0.2525841064962051    
  0.30614504102299783    0.2799319342953752    0.25891126728925823    0.24347345066189227    0.2339838992009863    
  0.23077755678137776    0.23399770965429625    0.24350133984516717    0.2589537162628697    0.2799896040144063    
  0.3062187770585273    0.337000336377635    0.37106345944374475    0.40598012396007005    0.437444636704137    
  0.45879908041069317    0.46205548117477996    0.4413722425505621    0.3975119176350112    0.3393856409436489    
  0.28040784140463737    0.2324215269330776    0.20216545110096082    0.19195151055270882    0.20214196442779014    
  0.23237206199393626    0.28032910657726146    0.3392764835510769    0.397376018754386    0.4412185246829231    
  0.4618956203963147    0.45864390004998473    0.43730176014649835    0.4058536580880735    0.37095488250043257    
  0.3369095750622809    0.30614504102299783    0.3667572343335663    0.33694851234423456    0.31178010502005166    
  0.29202155044436584    0.278314973781914    0.2712628013293118    0.2712682492300349    0.2783314201865611    
  0.29204928112920614    0.3118195665314719    0.33700033864396917    0.366822257467084    0.4000724743787531    
  0.4346043597762119    0.4665980200903272    0.48977453206708976    0.4956833606768533    0.4765806735085197    
  0.4305157121799295    0.3648268171587587    0.29393002707607413    0.23242088538531375    0.18936258911670567    
  0.16777489744459076    0.16776621249355045    0.18933532030839464    0.23237206059015617    0.29385689576810536    
  0.3647295490773003    0.43039916938087747    0.47645366498105485    0.49555573161725947    0.4896542465195653    
  0.4664899334714866    0.43451059099373607    0.3999933661231109    0.3667572343335663    0.4325279391438694    
  0.40003331312329704    0.371033031375789    0.34679679694991916    0.32837722885397636    0.31677372662157305    
  0.3128001733389895    0.31678101699074535    0.3283919273078865    0.34681915087883375    0.3710634640320728    
  0.4000724767650003    0.43257668169059926    0.46668864895833395    0.49923925434112787    0.5248598534007962    
  0.5355515355058034    0.5223955440444134    0.4802527211946533    0.4129178307470478    0.33365307643295994    
  0.2592168464686759    0.2021685796522889    0.16777867944360936    0.15646062888172066    0.1677662111183132    
  0.20214196162956116    0.2591736747703564    0.3335920479111727    0.41284064341913634    0.4801646272221857    
  0.5223038571275873    0.5354631417864755    0.5247794828219471    0.49916921764059485    0.46662948429214096    
  0.4325279391438694    0.5003906690792994    0.4666685138492549    0.43458897729593626    0.40596873848599624    
  0.38238914992860473    0.36541597060138503    0.35648085622836695    0.35648240721629804    0.3654206454571967    
  0.3823970505948743    0.405980130523946    0.4346043643000155    0.4666886511866889    0.5004164866355044    
  0.533209460480053    0.5608611582114663    0.5766701745607213    0.5718779615632542    0.5389744911918138    
  0.47720202536960216    0.39596590468550164    0.31185432325449974    0.24079022147983167    0.19196335920178326    
  0.16777867813883543    0.16777489478804453    0.19195150648517034    0.24076908253614063    0.3118228314845717    
  0.395924340902135    0.47715283130831837    0.5389219340994191    0.5718267205832123    0.5766238486656984    
  0.5608216107548394    0.5331770505775363    0.5003906690792994    0.566216066014942    0.5332129810809555    
  0.49924374007337335    0.4666025135730788    0.4374484219045982    0.41409306957292075    0.3988563777278112    
  0.39354635186651576    0.39885504720770243    0.41409043175513777    0.4374446442776256    0.4665980259337589    
  0.4992392581334719    0.5332094621883932    0.5662146431052527    0.5951167712896037    0.6149432382820154    
  0.6184022314953486    0.5974293701134712    0.5475227877507978    0.47261135271914567    0.38581866120271724    
  0.3040971469886491    0.2407902202314049    0.20216857713386932    0.18936258531557162    0.20216544596644234    
  0.24078375924692327    0.3040871909599777    0.385805465317752    0.47259594309020375    0.5475069941181422    
  0.5974153718350209    0.6183918109815227    0.6149372136652475    0.595114926278276    0.566216066014942    
  0.6251243113485488    0.5951455878447294    0.5608878911719491    0.5248832196687874    0.4897934931758735    
  0.45881291019743187    0.43545672193439133    0.42284874873092076    0.42284597462899814    0.4354483875211052    
  0.45879908726734175    0.4897745376721911    0.5248598574206579    0.5608611605209096    0.5951167721078808    
  0.6250949106882382    0.6474723078211756    0.6571668585840337    0.6474374793396908    0.6122899913078687    
  0.5508432943020338    0.4705719306849962    0.38581866012990285    0.3118543209449147    0.2592168429444992    
  0.23242088068856545    0.23242152104937042    0.2592189497190858    0.3118584152099409    0.3858254630837787    
  0.4705821408183699    0.5508574067821569    0.6123082405010263    0.647459793180759    0.657192725457315    
  0.6475006788084942    0.6251243113485488    0.6720152842337467    0.6475241429875271    0.6149911136349674    
  0.5767123492113002    0.5355865500593782    0.49571012636294765    0.462073400087074    0.43953268042180105    
  0.43159264865804253    0.43952375335947674    0.46205548501384486    0.4956833638450997    0.5355515377685047    
  0.5766701757665524    0.6149432385073319    0.6474723075119043    0.6719614722585134    0.6855625940684092    
  0.6840188966498523    0.6622692227828734    0.6171271130413002    0.5508432937169063    0.4726113510590874    
  0.3959659017873173    0.3336530723616611    0.2939300219466727    0.2804078352686865    0.2939355054363223    
  0.3336646886161712    0.3959846319898613    0.4726379548819184    0.5508778096990866    0.6171687468523849    
  0.6623166056383408    0.6840703622358085    0.6856162646558749    0.6720152842337467    0.7023111387995925    
  0.6856310065494486    0.6572307696108826    0.6184594112999506    0.571926470672911    0.5224339043958018    
  0.47660806752258106    0.44138852252007615    0.42229275973416636    0.4222873789824959    0.44137224114158896    
  0.4765806719707867    0.5223955423532948    0.571877959665171    0.6184022294122004    0.6571668565683332    
  0.6855625926828207    0.7022406447587913    0.7056474129913521    0.6932300502907034    0.6622692228913623    
  0.6122899908810658    0.5475227862868705    0.47720202267353873    0.4129178268896803    0.36482681231278613    
  0.3393856352375732    0.3393900070441138    0.3648402823736637    0.41294122817106005    0.47723607050725875    
  0.5475674361061358    0.6123441636205171    0.6623310268600839    0.6932971977347786    0.7057174794127522    
  0.7023111387995925    0.7127969323034861    0.7057225081811586    0.6840900429156759    0.6475021488721963    
  0.5974852529504574    0.5390197673074303    0.4802863902011746    0.4305376831038738    0.3975226693884737    
  0.38599877505829605    0.397511909648795    0.4305157044606837    0.4802527139379808    0.5389744845391988    
  0.5974293641805922    0.6474374743149529    0.6840188928838019    0.705647410940047    0.7127205098761781    
  0.7056474135897678    0.6840188974532607    0.647437479761324    0.5974293696419106    0.5389744895711374    
  0.48025271843882855    0.4305157084545572    0.3975119131094829    0.38599877785351744    0.39752267134919056    
  0.4305376841815936    0.48028639060225514    0.5390197674514831    0.5974852532315894    0.6475021494173625    
  0.6840900435511814    0.7057225086057343    0.7127969323034861    0.7023111382617903    0.7057174783999521    
  0.6932971961075616    0.6623310246031864    0.6123441607080599    0.547567432380457    0.477236065702592    
  0.41294122209751044    0.36484027508391653    0.3393899988145145    0.3393856264088192    0.3648268031539303    
  0.4129178175691263    0.4772020133258374    0.5475227771520779    0.6122899824664407    0.6622692160160859    
  0.6932300458600452    0.7056474115384628    0.702240646059038    0.6855625957688739    0.6571668601603899    
  0.6184022324437985    0.571877961569467    0.5223955430254956    0.4765806715473351    0.44137223978282275    
  0.4222873767732412    0.42229275673057454    0.4413885188962481    0.47660806368963293    0.5224339009414913    
  0.571926468104199    0.6184594097776508    0.6572307688930414    0.6856310061601957    0.7023111382617903    
  0.6720152834309865    0.6856162635686888    0.6840703603795276    0.6623166025944407    0.6171687422529907    
  0.5508778032310451    0.4726379463575054    0.3959846214749834    0.33366467648198206    0.29393549222611937    
  0.28040782147549487    0.2939300078916806    0.33365305823917235    0.3959658878102622    0.47261133762955515    
  0.5508432815534948    0.6171271031436031    0.6622692161245746    0.6840188936872102    0.6855625943832854    
  0.6719614746294231    0.6474723103860838    0.6149432405511174    0.5766701761833826    0.5355515363100496    
  0.4956833606329256    0.46205548032625837    0.4395237474922531    0.4315926419107631    0.43953267319042383    
  0.462073392951914    0.49571012002719067    0.5355865451106989    0.5767123458687788    0.6149911116807744    
  0.6475241419094142    0.6720152834309865    0.6251243107351603    0.6475006782847911    0.6571927242964342    
  0.6474597905790069    0.6123082356572006    0.5508573990650177    0.47058212996721355    0.38582544934712487    
  0.31185839929177334    0.25921893249193484    0.23242150321081254    0.23242086260805642    0.259216824766724    
  0.3118543028384671    0.3858186425547559    0.47057191456886416    0.5508432809683671    0.6122899820396378    
  0.647437474736586    0.6571668581446891    0.6474723100768122    0.6250949137826741    0.5951167744171919    
  0.5608611609941315    0.5248598556078301    0.4897745335802478    0.4587990811793336    0.4354483798536778    
  0.4228459658703281    0.4228487394645763    0.4354567128778063    0.45881290213592035    0.4897934867563856    
  0.52488321517869    0.5608878884722232    0.5951455864854308    0.6251243107351603    0.5662160660918993    
  0.5951149268990947    0.6149372140067348    0.6183918099783298    0.5974153682759994    0.5475069869329976    
  0.47259593172336656    0.3858054499880717    0.3040871726009876    0.2407837390896098    0.2021654250191317    
  0.18936256409675387    0.20216855577617054    0.24079019881283034    0.30409712591198773    0.3858186414819413    
  0.47261133596949645    0.54752277568815    0.597429363709031    0.61840223036065    0.6149432407764335    
  0.5951167752354687    0.5662146465563122    0.5332094638349874    0.4992392573294428    0.4665980225466375    
  0.43744463852285276    0.4140904240682199    0.3988550381667201    0.39354634216916157    0.3988563681830786    
  0.4140930610233068    0.4374484150464615    0.46660250876828446    0.4992437372885603    0.5332129799801717    
  0.5662160660918993    0.5003906702753674    0.5331770527472652    0.5608216131023619    0.5766238500367423    
  0.5718267195053033    0.5389219290765027    0.47715282130937176    0.3959243258085546    0.3118228121869768    
  0.2407690605253372    0.19195148316676922    0.1677748710021367    0.16777865415763635    0.19196333508911445    
  0.24079019756440362    0.311854300528882    0.39596588491207746    0.4772020106297735    0.5389744829185217    
  0.5718779596713834    0.5766701773892131    0.5608611633035748    0.5332094655433274    0.5004164900838205    
  0.46668865219142175    0.43460436260901797    0.40598012627333985    0.3823970441817305    0.36542063746373515    
  0.3564823983716513    0.3564808473762946    0.36541596261385006    0.38238914354264414    0.40596873413817597    
  0.4345889750643879    0.4666685135256405    0.5003906702753674    0.4325279417443584    0.4666294882004791    
  0.4991692221542815    0.5247794868449017    0.5354631437949467    0.5223038553720664    0.4801646201889878    
  0.41284063039996594    0.33359202936081844    0.25917365213022836    0.2021419366381342    0.16776618508993457    
  0.15646060245413887    0.1677786528528625    0.20216855325775115    0.2592168212425471    0.3336530541678732    
  0.41291781371175834    0.48025271118215557    0.5223955413343766    0.5355515385727506    0.5248598596276914    
  0.4992392611217869    0.4666886544197765    0.4325766848211067    0.4000724772122208    0.37106346186931694    
  0.3468191464534217    0.328391921162286    0.3167810098259048    0.3128001659816625    0.3167737199417851    
  0.3283772236142771    0.3467967936515493    0.3710330301972379    0.40003331397240005    0.4325279417443584    
  0.3667572384510454    0.39999337175778504    0.4345105975507258    0.46648993999119    0.48965425160346876    
  0.4955557335135219    0.47645366189621186    0.43039915999667405    0.36472953309304634    0.2938568741052958    
  0.2323720349847515    0.18933529251570416    0.16776618371469726    0.16777486834559044    0.18936256029562    
  0.23242085791130793    0.29393000276227876    0.3648267983079572    0.43051570073531087    0.4765806700096015    
  0.4956833638011715    0.4897745391853486    0.4665980283900691    0.4346043671328215    0.400072479598468    
  0.36682226010090035    0.3370003387141604    0.31181956434230457    0.29204927717302637    0.27833141510868054    
  0.2712682438061179    0.27126279639786943    0.278314970108534    0.2920215485742657    0.31178010520860927    
  0.3369485145904944    0.3667572384510454    0.30614504658854425    0.33690958223200845    0.37095489077646565    
  0.40585366666243383    0.43730176783137514    0.4586439052945537    0.4618956214300082    0.4412185198317805    
  0.3973760069442741    0.3392764648024345    0.2803290820803279    0.23237203358097155    0.2021419338399052    
  0.19195147909923058    0.20216541988461323    0.2324214973271049    0.2804078153395435    0.33938562070274286    
  0.397511905123266    0.44137223837384887    0.4620554841653228    0.45879908803598185    0.4374446460963412    
  0.40598013283721573    0.37106346645764493    0.33700034098049453    0.30621877921860013    0.2799896039952688    
  0.25895371450832655    0.24350133693888443    0.2339977063051549    0.23077755377366022    0.23398389727732735    
  0.24347345038354057    0.2589112689586756    0.279931937973561    0.30614504658854425    0.2525841132606771    
  0.27989549075392245    0.31170556785557496    0.34668476001729764    0.38224295152920384    0.41391952537871307    
  0.4352668962385017    0.43934169018219793    0.42211735951305934    0.3858529269532759    0.33927646356365504    
  0.2938568714274594    0.25917364798921044    0.24076905507242696    0.24078373260905875    0.2592189253996839    
  0.2939354850859357    0.3393899923010736    0.38599876983466347    0.42228737551772966    0.4395237517676756    
  0.43544838753439524    0.41409043287319935    0.38239705231039695    0.34681915282923315    0.31181956852203135    
  0.2799896059637503    0.2526593109547144    0.23041298052380416    0.21347617339331945    0.20200236382308995    
  0.19618388980333895    0.19617599940995115    0.2019785313891533    0.2134359511566585    0.23035569891577234    
  0.2525841132606771    0.20688000256993247    0.2303227110196744    0.25884273160921817    0.2919167754248297    
  0.328237902698502    0.36524678229763036    0.3986657699816659    0.42264930478300927    0.4314000624789667    
  0.42211735852231347    0.3973760047485616    0.36472952945311043    0.3335920241857573    0.31182280561125764    
  0.3040871649697036    0.3118583911252195    0.3336646684326757    0.3648402678472953    0.3975226635622285    
  0.42229275567708746    0.4315926464094222    0.42284597392957435    0.39885504762485036    0.36542064655399886    
  0.3283919287634439    0.29204928276468095    0.25895371800053274    0.2304129820978017    0.20695060531197929    
  0.18867070265385802    0.17555214772862532    0.16762121024336166    0.16495744086874903    0.16760433011880294    
  0.17551805072962876    0.18861877055093765    0.20688000256993247    0.16900315725663753    0.18858978767261958    
  0.21337488316095402    0.24337873888427286    0.2781870761218322    0.31661566128885255    0.3562988275431158    
  0.3933502845736453    0.42264930384332516    0.439341688317166    0.44121851688915575    0.43039915573288806    
  0.41284062465111576    0.39592431863459976    0.38580544172173326    0.3858254405606129    0.39598461288836734    
  0.4129412144331362    0.4305376769183911    0.4413885180859084    0.4395326777086369    0.4228487474776621    
  0.39354635170185054    0.35648240778153656    0.3167810180210134    0.27833142152838974    0.24350134142529614    
  0.21347617606028874    0.18867070378989903    0.16906473462682378    0.1544830979060282    0.1447873639478562    
  0.13993278956166083    0.1399243249299482    0.1447617907330782    0.1544399073058841    0.16900315725663753    
  0.13841536785822048    0.154415157754547    0.17546518256739596    0.20189543717125194    0.2338701825996067    
  0.2711202530526917    0.3126332764061422    0.3562988264959854    0.398665768018334    0.4352668934443505    
  0.461895617754238    0.47645365716619137    0.4801646142310308    0.47715281410631044    0.47259592352337637    
  0.47058212129453403    0.4726379379166101    0.4772360581995809    0.4802863841505748    0.4766080631348699    
  0.462073397285619    0.4354567204627539    0.3988563772719994    0.35648085650719447    0.31280017414993544    
  0.27126825045269987    0.23399771122327512    0.20200236706162328    0.17555214951601628    0.15448309859043863    
  0.13846525630703174    0.12719886785497164    0.12049479506508619    0.11826312995988819    0.12047862219144514    
  0.12716616532605432    0.13841536785822048    0.11435757796838437    0.12714565776249087    0.14471732412766788    
  0.1675334691092084    0.1960777567181571    0.2306528321249415    0.2711202519510004    0.31661565914019835    
  0.36524677924943155    0.4139195215767208    0.4586439008001332    0.49555572828404704    0.5223038493189254    
  0.5389219221788643    0.5475069793550972    0.5508573912108412    0.5508777956877108    0.5475674257550033    
  0.5390197620341538    0.5224339006259654    0.49571012399273956    0.4588129089867376    0.41409306926334954    
  0.36541597098312295    0.3167737275522606    0.27126280272359055    0.23077755858380272    0.19618389309548118    
  0.16762121218980586    0.14478736484876    0.12719886809404993    0.11439482298418563    0.10603431428537842    
  0.10190291860200926    0.1018956398382265    0.10601230101810677    0.11435757796838437    0.0960333251964111    
  0.10599590817800099    0.12044241232642391    0.13986567770909153    0.16487493935793174    0.19607775569743208    
  0.2338701804831122    0.2781870729645608    0.3282378986568924    0.3822429467882432    0.4373017625394955    
  0.48965424584774064    0.5354631376193133    0.5718267129655257    0.5974153615167526    0.6123082289712616    
  0.6171687360660336    0.6123441554655831    0.597485248960965    0.5719264680126356    0.5355865486004131    
  0.4897934926975256    0.43744842219749047    0.3823891508413002    0.328377230292204    0.27831497568754965    
  0.2339839015241542    0.19617600229195647    0.16495744251699182    0.13993279023535615    0.12049479511448763    
  0.1060343141101203    0.09605845888601669    0.09021566167928945    0.08828900664163632    0.09020324835355273    
  0.0960333251964111    0.08269721100861203    0.09019078228662575    0.10186735415591938    0.11821630311297625    
  0.1398656768562948    0.1675334672526419    0.20189543424442383    0.2433787349459832    0.2919167706389337    
  0.34668475459154335    0.40585366079600693    0.4664899338562657    0.524779480592616    0.5766238438154611    
  0.6183918039645107    0.647459785010625    0.662316597770247    0.6623310208157268    0.6475021463000367    
  0.618459409939856    0.5767123489079643    0.5248832202128976    0.4666025147879061    0.40596874025663077    
  0.34679679920846634    0.2920215531421135    0.24347345374188029    0.20197853349720998    0.16760433108841968    
  0.13992432499575058    0.11826312944717801    0.1019029178896707    0.09021566115264326    0.0827119054431232    
  0.07904864725677412    0.07904379085373205    0.08269721100861203    0.07369899172103732    0.07903505896623272    