#     DFTpy    
  CRYSTAL 
    
  PRIMVEC    
  4.069335936696251    1.7024593590000004e-05    -4.3000000000000004e-13    
  -2.0346532246167306    3.5241569119179705    -8.350000000000002e-12    
  -7.000000000000001e-13    -1.626e-11    6.690620565887022    
  PRIMCOORD    
  4    1    
  Si    1.0130141620000001e-05    2.3494434496930303    3.76262991380886    
  Si    2.0346725819331306    1.1747304867897104    0.4173195814602401    
  Si    1.0130143150000002e-05    2.3494434496920604    6.273300935018402    
  Si    2.03467258193974    1.1747304868158104    2.927990701468991    
  BEGIN_BLOCK_DATAGRID_3D    
  3d_datagrid_density    
  BEGIN_DATAGRID_3D#0    
  41    41    65    
  0.0    0.0    0.0    
  4.069335951874951    1.7024593653502064e-05    -4.300000016039083e-13    
  -2.0346532322060256    3.524156925063143    -8.350000031145661e-12    
  -7.000000026110135e-13    -1.626000006065011e-11    6.690620590843164    
  0.0271254644847186    0.027771921586650202    0.029755111443117467    0.03320296508368335    0.038328883169568166    
  0.04545170941910214    0.05501789431554478    0.06758969140185778    0.08378677301466324    0.10420787132032293    
  0.12936085909051914    0.15958663830337216    0.19492845642793916    0.23492818880134694    0.27841000711194264    
  0.32336409453201315    0.3670141805988595    0.4060732097520532    0.43714103658162673    0.4571985617943189    
  0.4641378360229642    0.4571985619080055    0.437141037087409    0.4060732109665417    0.3670141826350324    
  0.3233640972476037    0.27841001022250356    0.2349281920191899    0.19492845953424007    0.15958664114620347    
  0.12936086154872223    0.10420787328438874    0.08378677441552325    0.0675896922642851    0.05501789477171323    
  0.04545170965081095    0.038328883322935874    0.03320296522330991    0.029755111565008846    0.02777192165949247    
  0.0271254644847186    0.02777192138301935    0.02777190181645861    0.029086687548407153    0.03180204320427274    
  0.036088611964122795    0.04221314864038217    0.050559895919575444    0.06163513688309547    0.07603188041928305    
  0.0943641690845078    0.11719822013679117    0.14498256191377068    0.1779403538465205    0.2158900601105958    
  0.2580210550053472    0.30271870974844217    0.34754275995958245    0.38940197726671844    0.4248961958107641    
  0.45077145011969777    0.4644342848889465    0.4644351951385892    0.4507740887166524    0.42490030643178317    
  0.389407179199953    0.3475485881095429    0.30272467469940284    0.25802673147088717    0.21589515724778616    
  0.1779447215588885    0.14498615179575297    0.11720105126592557    0.09436631197870729    0.0760334380631522    
  0.061636217785845986    0.0505605991675013    0.04221356845885307    0.036088842042922155    0.03180216409457658    
  0.029086748822755932    0.02777192138301935    0.029755111036977106    0.029086687354269634    0.029755045121220347    
  0.03180201178296985    0.0353558188767324    0.040640759445578184    0.04799093206575501    0.0578541547028934    
  0.07077228525012855    0.08734030964650098    0.10815652655892619    0.1337608286038573    0.16453270084012642    
  0.20052133409808753    0.24122191284726524    0.2853693765270505    0.33084966108658026    0.37480101629760476    
  0.413908805579391    0.4448352399391297    0.46470412448639764    0.47155981387966966    0.46470771568692726    
  0.4448420572302204    0.413918187354087    0.3748120936837256    0.33086146447809045    0.2853809879095765    
  0.24123262268517331    0.20053070978808335    0.16454054796792858    0.13376712056709103    0.1081613603462273    
  0.08734387083481328    0.07077479664533731    0.057855830618248824    0.047991968259707425    0.040641343545746375    
  0.035356123101923986    0.031802163819785935    0.029755111036977106    0.03320296448433962    0.03180204283145776    
  0.03180201160852914    0.03320285336980745    0.036088583640542723    0.04064079794129524    0.047151558213780406    
  0.05602074650237206    0.06773685213938498    0.08285286999361535    0.10196251652866418    0.1256581934867405    
  0.1544363716915644    0.18853001664274877    0.2276849820527364    0.270936615939376    0.31647127106578743    
  0.3616622043699627    0.4033264705150085    0.43815848870163665    0.4632146123377388    0.47631822961544956    
  0.4763209274424659    0.4632224267968131    0.43817063340103113    0.4033417727878091    0.3616792642429803    
  0.3164886692131709    0.27095314493646255    0.22769979971948387    0.18854265755051533    0.15444667188650402    
  0.1256662160573899    0.10196849239942367    0.08285712488526388    0.06773972899334608    0.05602256343994415    
  0.04715260679584489    0.040641343261977055    0.03608884150924874    0.03320296448433962    0.0383288824082547    
  0.03608861144800861    0.035355818563142155    0.03608858349961465    0.03832876277867332    0.04221321705274704    
  0.04799116040356755    0.056020991720335415    0.06674600807632831    0.08067393234895442    0.09837148554581163    
  0.12044422078693112    0.14745368673169712    0.17975277804940198    0.2172640627070051    0.25924929831947746    
  0.30413510176169634    0.34949206020128093    0.3922660260013733    0.4292562235875266    0.4576645457117514    
  0.4754720142463916    0.4815309063513279    0.47547888470133637    0.4576776070015561    0.42927420069110017    
  0.3922872150688322    0.3495145842714695    0.3041572204253925    0.25926965994547363    0.21728180228604618    
  0.17976747944097268    0.14746529721122337    0.12045296239485101    0.0983777543028862    0.08067819195985447    
  0.06674871444125013    0.05602256311094566    0.04799196767420192    0.042213567675344434    0.0383288824082547    
  0.0454517085633491    0.04221314805144504    0.04064075906067253    0.04064079772124261    0.04221321696646659    
  0.04545167059892733    0.050560229255829404    0.05785481268452666    0.06773764842355    0.08067454960053791    
  0.09719836647950171    0.11790597068344925    0.14338543803530757    0.17405007114086443    0.20991498400650832    
  0.25036416599571487    0.293951789133099    0.3383348241460509    0.3804959177978823    0.4173189480876525    
  0.44630007806724953    0.46598075636689795    0.47584712743064084    0.4758512025134384    0.4659926175250715    
  0.44631864081018213    0.41734247762379184    0.3805222460349662    0.33836171419422767    0.29397731293852697    
  0.2503869370123902    0.2099342060174764    0.17406547347928306    0.14339716340057848    0.11791443745116072    
  0.09720412854899377    0.08067819152255803    0.06773972825605397    0.05785582968054578    0.050560598111559836    
  0.0454517085633491    0.05501789347139133    0.05055989536532758    0.04799093171498684    0.04715155801415989    
  0.047991160322576255    0.05056022925256498    0.05501810779757518    0.06163599390855372    0.07077371076946858    
  0.08285463468236856    0.09837322352574975    0.11790718021612276    0.14205476478963514    0.17126013111200725    
  0.20557254646231576    0.244399466369035    0.28628309564651844    0.3287911145231962    0.3687455006841682    
  0.40295158525284275    0.42918857526784693    0.44683368720441846    0.456628625463356    0.45972117697432396    
  0.4566373626636723    0.4468504937415649    0.42921204612223185    0.40297961466897114    0.36877556773776043    
  0.32882074752519713    0.28631029234505767    0.24442291098863397    0.20559162406867335    0.1712748137222218    
  0.14206543298217417    0.11791443684839574    0.09837775328935384    0.08285712362779675    0.07077479527042495    
  0.0616362163972341    0.05501789347139133    0.06758969069576595    0.06163513648767866    0.057854154510902055    
  0.05602074644733153    0.056020991766145854    0.057854812795485946    0.06163599401820775    0.06759042805554356    
  0.07603362934504836    0.08734296814449828    0.10196582135624428    0.12044776259899982    0.1433886449326155    
  0.1712622246410698    0.2041423163880361    0.2414153723753274    0.2815109375110744    0.32173514562391503    
  0.3584985364282868    0.38823584596788685    0.408792507033584    0.4203968091011738    0.425402049276761    
  0.4268711790292012    0.426875617064442    0.4254151175658702    0.4204176631219128    0.4088195237073433    
  0.38826665216676265    0.35853037698981227    0.3217654380446512    0.28153773431753554    0.2414375630993822    
  0.20415957664790366    0.1712748129664754    0.14339716205876527    0.12045296068682193    0.10196849052282635    
  0.08734386894280588    0.0760334362777579    0.06758969069576595    0.08378677256531576    0.07603188029269663    
  0.0707722853289907    0.0677368523486951    0.06674600837665295    0.06773764878229024    0.07077371112616379    
  0.07603362959473174    0.08378842323251938    0.0943673189458505    0.10816104999172518    0.12566379379782003    
  0.14745989644358495    0.1740562244203582    0.20557775095506411    0.24141854579409391    0.2798933069013955    
  0.31797223465656743    0.35145660162101067    0.37607319591510224    0.3893478019745451    0.3920983991578215    
  0.38827665632768604    0.3831296749910508    0.3808868089388156    0.3831379827638401    0.3882929385685264    
  0.3921217336094691    0.3893764238408981    0.37610455710413726    0.35148783483594853    0.3180008012099107    
  0.2799174841332584    0.24143756231202795    0.20559162252654212    0.1740654713708988    0.14746529478714632    
  0.12566621354747848    0.10816135792914851    0.09436630979009737    0.08378677256531576    0.1042078712211578    
  0.09436416930617822    0.08734031007708432    0.08285287056266441    0.08067393301925824    0.08067455034149075    
  0.08285463543563962    0.08734296880486833    0.09436731936581577    0.104210976926696    0.11720344564599414    
  0.13376801310439804    0.15444516173602094    0.17976261469149385    0.20992507883975633    0.24440879534153578    
  0.2815182964506061    0.3179763950808844    0.3489459168059065    0.3691823644657848    0.3754078147476191    
  0.36853016125337423    0.3537874594319639    0.33849264844806154    0.329065076010002    0.32906874444449047    
  0.3385035964943826    0.3538053555763939    0.3685540354258201    0.3754357899214529    0.36921179456612135    
  0.3489739767391114    0.3180008005644235    0.28153773288001355    0.24442290878942996    0.2099342032650045    
  0.17976747641932048    0.154446668857807    0.13376711773172842    0.11720104876634672    0.1042078712211578    
  0.12936085940816594    0.11719822076037001    0.10815652739615852    0.10196251753013776    0.0983714866880782    
  0.09719836773676055    0.09837322483789136    0.10196582261153472    0.10816105103233947    0.11720344627984594    
  0.1293661277433014    0.14499067867500856    0.16454343940998312    0.18854293140870831    0.21727846917699842    
  0.2503791239839505    0.2862974088939289    0.3217474201148297    0.3514654533866048    0.3691868325631795    
  0.37035274189720235    0.35522799176717224    0.3297497064395185    0.30301285470134715    0.2834338548356248    
  0.27633144891646    0.28343991031622756    0.3030249375427863    0.329767472443714    0.35525037051750885    
  0.3703777314238894    0.3692117940909645    0.3514878337539266    0.32176543619253206    0.28631028973221734    
  0.25038693385581584    0.21728179889962226    0.1885426542245909    0.16454054491657755    0.1449861491584668    
  0.12936085940816594    0.15958663907463436    0.1449825629719522    0.1337608298856693    0.1256581949769872    
  0.12044422249001757    0.1179059725869256    0.11790718225810069    0.12044776465493524    0.1256637956911941    
  0.13376801462331706    0.14499067957484543    0.15959490449397468    0.17795225009480659    0.2005365360073524    
  0.22770291587284242    0.2592691125358051    0.2939723309968234    0.3288109146569567    0.35851588938380674    
  0.3760864960825049    0.3754161360740486    0.3552315368118848    0.3211832849592525    0.2836639444954006    
  0.2530306663756019    0.23619659388382788    0.23619893267706943    0.25303771593073804    0.2836756644861686    
  0.3211991999254938    0.3552503699589233    0.3754357889735461    0.37610455569044726    0.3585303749227099    
  0.3288207447570711    0.2939773096578299    0.25926965647303174    0.22769979635985266    0.2005307067558077    
  0.1779447189781682    0.15958663907463436    0.1949284576409085    0.17794035533481256    0.16453270257457087    
  0.15443637369687813    0.1474536890510617    0.14338544068218947    0.14205476770772157    0.14338864798338993    
  0.14745989942398993    0.1544451644039035    0.1645434414937917    0.17795225129337125    0.19494062174023444    
  0.2159066383664918    0.2412424397497784    0.2709603306872742    0.30416090618589514    0.3383612384969426    
  0.36877064245479546    0.3882576108855441    0.38936441960943713    0.36854091206445144    0.32975522109646577    
  0.28366579861429747    0.2424744289262295    0.21500456327533535    0.20548752076165805    0.21500791034571856    
  0.24248113773506821    0.283675663648355    0.3297674710709282    0.36855403380056284    0.38937642200360745    
  0.38826664994343685    0.3687755649998957    0.33836171104255147    0.30415721713525856    0.27095314179421454    
  0.24123261988596914    0.21589515488754438    0.1949284576409085    0.23492819036832074    0.21589006195510613    
  0.20052133622845672    0.18853001912282688    0.17975278096534447    0.1740500745439737    0.1712601349657252    
  0.17126222880142467    0.17405622865656015    0.1797626187215798    0.188542934920787    0.20053653866758997    
  0.21590663983977854    0.23494518077896737    0.25804316317568365    0.2853959131549949    0.31650119087772893    
  0.34952391045390524    0.3805277727296107    0.40298107251495946    0.4088171921344388    0.3921165793044852    
  0.35379886939241084    0.30301865832692365    0.2530327612175031    0.21500483443467097    0.19498279305217972    
  0.1949838248297794    0.21500790937649764    0.253037714094885    0.303024935148958    0.3538053530275454    
  0.39212173113754384    0.40881952124784265    0.4029796120436325    0.3805222432085554    0.3495145813997054    
  0.31648866650911717    0.2853809855202303    0.2580267294519632    0.23492819036832074    0.27841000885466044    
  0.2580210570390056    0.24122191521959577    0.22768498486290603    0.21726406608216164    0.20991498804257905    
  0.20557255115814102    0.20414232161187487    0.20557775645944812    0.2099250843021778    0.2172784742334367    
  0.2277029201395815    0.24124244285448285    0.258043164811773    0.2784326877646153    0.30274696555372504    
  0.3308824704166787    0.36169814993005495    0.39230322946217594    0.41735499808642945    0.42922068295310084    
  0.4204224517978704    0.3882945014068465    0.33850305011670584    0.2834384836455777    0.23619756959040922    
  0.20548674101133355    0.19498279212462763    0.20548751887395403    0.236198929895401    0.28343990691635806    
  0.3385035929526094    0.3882929353259788    0.420417660321538    0.42921204362536897    0.41734247526225765    
  0.3922872128150462    0.36167926216963947    0.33086146264665045    0.30272467311444545    0.27841000885466044    
  0.3233640961998046    0.30271871172218495    0.28536937889152364    0.27093661882321574    0.2592493018840889    
  0.2503641703803498    0.24439947161708966    0.24141537838662525    0.24141855232764697    0.24440880205135967    
  0.2503791304567924    0.2592691183259594    0.2709603353652114    0.28539591637584505    0.30274696713528015    
  0.3233930410652166    0.34757729951489114    0.37483973415918365    0.4033675603727155    0.4292973851621152    
  0.4463384837570128    0.44686634345865034    0.4254266540731818    0.38314548116269703    0.32907305712401624    
  0.2763336485859543    0.2361975687300971    0.21500483269116064    0.21500456063383286    0.23619659037947055    
  0.2763314447638112    0.32906874011799797    0.3831379788505299    0.42541511444226154    0.44685049140140165    
  0.44631863901265517    0.4292741992093297    0.40334177150230793    0.3748120925327126    0.3475485870357592    
  0.3233640961998046    0.3670141819353791    0.34754276160715347    0.33084966315654024    0.3164712737051297    
  0.3041351051525388    0.29395179344511335    0.2862831009621908    0.28151094377069347    0.27989331389650346    
  0.281518303849043    0.2862974162671808    0.29397233785301863    0.30416091203174    0.31650119530964754    
  0.33088247321647607    0.347577300730194    0.3670494502241093    0.38944232603014667    0.4139524523072307    
  0.43820327362774725    0.45770780188608545    0.4660193994529666    0.4566597397159577    0.4268929393202999    
  0.38089911203539756    0.329073056370723    0.28343848206743943    0.25303275884552906    0.2424744257823797    
  0.25303066248356854    0.28343385034561747    0.32906507133477847    0.38088680470803726    0.42687561382603934    
  0.45663736057902227    0.4659926163612444    0.4576776063756295    0.4381706329933023    0.41391818695763116    
  0.3894071786867481    0.3670141819353791    0.4060732106015498    0.3894019784139185    0.37480101785945297    
  0.36166220649039155    0.34949206305726016    0.33833482790804126    0.32879111928632615    0.32173515135690545    
  0.3179722411977889    0.31797640215830403    0.32174742735377637    0.3288109215870066    0.33836124460171013    
  0.3495239152753545    0.361698153192083    0.3748397358700076    0.3894423265410511    0.4061142739160513    
  0.4249413326600669    0.44488235426650335    0.46326123172496    0.4755152134109001    0.475883807828242    
  0.4597487847276785    0.4268929388942396    0.3831454799940444    0.3385030481590312    0.30301865566814895    
  0.28366579533383274    0.2836639406328799    0.3030128503593809    0.3384926439518189    0.3831296709240818    
  0.42687117600657587    0.45972117529212286    0.4758512020037964    0.4754788849055733    0.4632224272392428    
  0.444842057567098    0.4249003064620578    0.4060732106015498    0.43714103697188816    0.4248961964654652    
  0.41390880659071033    0.4033264719893979    0.3922660280680525    0.3804959205783855    0.3687455042378894    
  0.35849854071854564    0.35145660652806204    0.34894592215443077    0.35146545893797654    0.35851589480210316    
  0.3687706473099053    0.38052777657796044    0.39230323198284384    0.4033675615049321    0.41395245234032474    
  0.42494133223582786    0.4371868424917913    0.4508198849747938    0.4647528215326401    0.476364487030032    
  0.4815717482995434    0.47588380796321333    0.4566597394686463    0.4254266531214821    0.3882944996894664    
  0.3537988670183535    0.32975521819571885    0.3211832816067021    0.3297497027176089    0.35378745558593466    
  0.3882766528515738    0.42540204676566207    0.4566286242847912    0.47584712750169    0.48153090721977787    
  0.47632092855533403    0.46470771660365834    0.45077408917262296    0.43714103697188816    0.4571985619046212    
  0.4507714504491496    0.4448352405215892    0.43815848956223796    0.42925622475011815    0.4173189495576997    
  0.4029515869905761    0.3882358478879167    0.3760731979271784    0.3691823665141989    0.3691868346082109    
  0.3760864980297973    0.3882576125314734    0.40298107356737717    0.4173549982678263    0.42929738435952064    
  0.4382032720286158    0.44488235240640006    0.4508198836404648    0.45724754545029317    0.46448406822967014    
  0.4716078557915435    0.4763644876853049    0.4755152142731408    0.4660194000561132    0.4468663434698996    
  0.4204224510961026    0.3921165779459395    0.36854091016948953    0.35523153447193523    0.35522798906262576    
  0.3685301583785577    0.39209839652217465    0.4203968072422726    0.4468336865117388    0.46598075683918194    
  0.4754720154982429    0.4763182310993213    0.4715598151164543    0.464435195822208    0.4571985619046212    
  0.4641378360229641    0.46443428506562295    0.4647041247905434    0.46321461267290015    0.4576645459354633    
  0.4463000779940835    0.42918857469033017    0.40879250577955206    0.3893477999857227    0.3754078121185315    
  0.37035273882693487    0.3754161327594736    0.38936441615462525    0.40881718852316123    0.4292206790915173    
  0.44633847958158357    0.45770779750850915    0.4632612275341695    0.46475281815585856    0.46448406632883626    
  0.4641879513113618    0.4644840691657263    0.4647528231729961    0.46326123369107236    0.4577078037744034    
  0.4463384852434183    0.42922068385048856    0.4088171923916902    0.3893644192566461    0.37541613515852    
  0.37035274048257333    0.3754078130002544    0.38934780024907883    0.40879250581612303    0.4291885749511447    
  0.4463000787230082    0.45766454705348464    0.4632146138857831    0.46470412578027975    0.46443428561141553    
  0.4641378360229641    0.4571985617977032    0.464435195179571    0.47155981393712154    0.4763182294556535    
  0.4754720135200242    0.4659807546327457    0.4468336840194493    0.4203968041703996    0.39209839247239364    
  0.3685301531129603    0.35522798265598593    0.3552315272214867    0.36854090238251197    0.3921165697961439    
  0.42042244263300743    0.4468663347610932    0.4660193913847083    0.4755152062666592    0.4763644812513179    
  0.47160785183262394    0.4644840672648925    0.45724754735472206    0.45081988765108355    0.44488235738675647    
  0.43820327684432364    0.4292973881787359    0.41735500068138515    0.40298107453866827    0.3882576122463755    
  0.3760864967320429    0.3691868325121414    0.3691823638495776    0.37607319505361025    0.38823584531346134    
  0.40295158520048396    0.417318948772592    0.42925622482940523    0.43815849012127905    0.44483524113644646    
  0.45077145079719794    0.4571985617977032    0.43714103669714743    0.4507740884757087    0.46470771540034    
  0.47632092676599364    0.4815309047384186    0.4758471241573508    0.45662861979029745    0.42540204072706433    
  0.3882766449305096    0.35378744573995696    0.329749691285863    0.3211832691439548    0.3297552052231172    
  0.35379885389569754    0.3882944866522561    0.4254266404193875    0.45665972752709505    0.47588379746948767    
  0.481571740112777    0.4763644819065908    0.4647528197962144    0.4508198863167543    0.43718684601481933    
  0.42494133671675294    0.41395245657565816    0.40336756457960854    0.39230323338193507    0.38052777616453687    
  0.36877064522924125    0.35851589136036005    0.35146545450832306    0.3489459171627817    0.3514566014955187    
  0.3584985362419441    0.36874550082942714    0.3804959184585306    0.39226602709151037    0.4033264717615302    
  0.4139088066640527    0.4248961964805294    0.43714103669714743    0.40607321011704506    0.4249003057502388    
  0.4448420565070754    0.46322242564467264    0.4754788824521461    0.47585119820395233    0.45972116953919856    
  0.4268711677115247    0.38312965975457064    0.338492630060855    0.3030128343825043    0.2836639234025119    
  0.2836657775530966    0.3030186377967594    0.3385030305265846    0.3831454630074652    0.42689292320986744    
  0.45974877127406916    0.47588379760445887    0.47551520712889983    0.4632612295002815    0.4448823555266532    
  0.4249413362925138    0.40611427856747534    0.38944233093959374    0.3748397390528615    0.36169815458779336    
  0.3495239146757789    0.33836124208734386    0.32881091744254526    0.3217474219959944    0.31797639610314765    
  0.31797223505592753    0.3217351457802089    0.328791114811717    0.3383348247775938    0.34949206116160203    
  0.36166220547976585    0.37480101732447546    0.38940197801681115    0.40607321011704506    0.36701418129851293    
  0.38940717806315284    0.41391818624101    0.43817063196315    0.45767760457176027    0.46599261302661166    
  0.4566373547516752    0.4268756046021886    0.38088679161105377    0.3290650546022475    0.283433830880994    
  0.2530306414368251    0.24247440408496218    0.2530327370492295    0.2834384605183851    0.32907303552614076    
  0.38089909272606837    0.42689292278380697    0.4566597272797834    0.4660193919878545    0.45770779939682654    
  0.4382032752451919    0.41395245660875185    0.38944233145049806    0.36704945538643413    0.3475773046317407    
  0.3308824752697962    0.31650119528849696    0.3041609099856758    0.29397233402981265    0.28629741105833745    
  0.28151829776627973    0.2798933075591096    0.28151093784073344    0.2862830959919897    0.29395178971159897    
  0.304135102606438    0.31647127207175674    0.3308496620999337    0.34754276085018165    0.36701418129851293    
  0.3233640955798122    0.3475485866795811    0.3748120923840658    0.40334177137166205    0.4292741986102949    
  0.44631863704736807    0.4468504868234937    0.42541510596873383    0.3831379656553987    0.3290687222687085    
  0.27633142326078536    0.23619656667647734    0.21500453599151137    0.21500480786500034    0.23619754412625632    
  0.27633362466269346    0.3290730347728475    0.3831454618388125    0.4254266394676874    0.4468663347723418    
  0.4463384810679886    0.4292973873761408    0.40336756571182486    0.37483974076368537    0.34757730584704355    
  0.32339304606785974    0.3027469702222884    0.28539591733990743    0.27096033426626553    0.25926911539787645    
  0.2503791260521212    0.2444087966296128    0.24141854645795835    0.24141537269748223    0.244399466657703    
  0.2503641664631732    0.2592492990289164    0.27093661684153336    0.2853693775339793    0.30271871078959267    
  0.3233640955798122    0.27841000847978564    0.3027246732353193    0.33086146326878346    0.3616792631683937    
  0.39228721376443154    0.41734247527794943    0.42921204135114466    0.4204176541745321    0.38829292400632254    
  0.33850357603715403    0.28343988514958846    0.23619890485280487    0.2054874921972232    0.19498276495500907    
  0.20548671399016244    0.23619754326594408    0.2834384589402466    0.3385030285689095    0.3882944849348754    
  0.42042244193123895    0.42922067998890445    0.4173550008627814    0.3923032359026027    0.361698157849821    
  0.33088247806959353    0.3027469718038435    0.27843269202634957    0.25804316690974277    0.2412424428803286    
  0.22770291833631007    0.21727847092756955    0.2099250798945655    0.2055777514457314    0.20414231655921783    
  0.20557254659223229    0.2099149843016567    0.21726406325224876    0.22768498284073746    0.24122191384138045    
  0.258021056183574    0.27841000847978564    0.23492819045221608    0.2580267302250627    0.28538098704167164    
  0.3164886687207358    0.3495145839722029    0.3805222453818225    0.40297961255190756    0.40881951843259096    
  0.392121723317932    0.35380533910597156    0.30302491518601893    0.25303768936761933    0.2150078817470703    
  0.19498379594447515    0.1949827640274569    0.21500480612148984    0.2530327346772552    0.3030186351379842    
  0.35379885152163953    0.39211656843759757    0.4088171887804119    0.40298107559108526    0.38052778001288623    
  0.349523919497228    0.3165011997204155    0.2853959205607575    0.2580431685458322    0.23494518396374367    
  0.21590664096189627    0.20053653798628998    0.18854293274997427    0.17976261541596794    0.1740562246424431    
  0.1712622245782178    0.1712601310222605    0.17405007123003585    0.17975277842205017    0.18853001732392646    
  0.20052133508740805    0.21589006141834707    0.23492819045221608    0.1949284583212705    0.21589515639989645    
  0.2412326223229035    0.2709531451467045    0.3041572211643968    0.3383617151478939    0.36877556813593204    
  0.38826665062913734    0.38937641847804677    0.36855402442870866    0.3297674550022789    0.2836756413388654    
  0.24248111079430767    0.21500788077784921    0.20548749030951902    0.21500453335000855    0.242474400941112    
  0.28366577427263123    0.3297552023223694    0.3685409004875492    0.3893644158018335    0.38825761389230434    
  0.3687706500843506    0.33836124819211116    0.30416091583152044    0.27096033894420263    0.24124244598503308    
  0.215906642435183    0.19494062378036736    0.17795225157339614    0.16454344031969037    0.1544451620983511    
  0.1474598963600462    0.14338864460237755    0.14205476445977697    0.14338543791661554    0.14745368694812752    
  0.1544363722929725    0.16453270184759025    0.17794035528371455    0.1949284583212705    0.15958664037494122    
  0.17794472119607346    0.2005307099931303    0.22769980063392783    0.2592696616110096    0.29397731519828013    
  0.3288207498969331    0.3585303785033119    0.37610455619741656    0.37543578464862915    0.35525035924540904    
  0.3211991821979436    0.2836756405010516    0.25303768753176614    0.23619890207113606    0.23619656317211968    
  0.25303063754479127    0.2836639195399906    0.32118326579140355    0.35523152488153625    0.37541613184394423    
  0.3760864986793348    0.35851589677865603    0.32881092437259485    0.2939723408860079    0.25926912118803064    
  0.2277029226030492    0.2005365406465275    0.1779522527719608    0.15959490547217578    0.1449906791496902    
  0.13376801309473618    0.12566379339555522    0.12044776199158462    0.11790717964596707    0.11790597036913311    
  0.12044422086952124    0.12565819403286865    0.13376082964211597    0.1449825634631255    0.15958664037494122    
  0.12936086123107532    0.14498615192395742    0.1645405487151313    0.18854265907931572    0.2172818046794889    
  0.25038694020009333    0.2863102960311339    0.32176544160569454    0.35148783717505394    0.36921179405566207    
  0.3703777262077247    0.3552503586868235    0.32976745362949295    0.30302491279219035    0.28343988174971857    
  0.2763314191081361    0.28343382639098613    0.30301283004053725    0.32974968756395256    0.35522797995143846    
  0.37035273741230507    0.3691868345571722    0.35146546005969453    0.32174742923494093    0.28629741843158935    