#     DFTpy    
  CRYSTAL 
    
  PRIMVEC    
  4.148097277406501    1.7354101850000002e-05    -4.4000000000000004e-13    
  -2.0740336096093106    3.5923664005357305    -8.510000000000002e-12    
  -7.200000000000002e-13    -1.6580000000000002e-11    6.820116447807411    
  PRIMCOORD    
  4    1    
  Si    1.0326208880000001e-05    2.3949165487193405    3.835455008914841    
  Si    2.0740533415834506    1.1974672058888602    0.4253967346498001    
  Si    1.0326210440000003e-05    2.3949165487183515    6.394719662792941    
  Si    2.0740533415901803    1.1974672059154703    2.9846614892393504    
  BEGIN_BLOCK_DATAGRID_3D    
  3d_datagrid_density    
  BEGIN_DATAGRID_3D#0    
  41    41    65    
  0.0    0.0    0.0    
  4.148097292878983    1.7354101914731134e-05    -4.4000000164120847e-13    
  -2.0740336173454956    3.5923664139353257    -8.510000031742463e-12    
  -7.200000026856139e-13    -1.658000006184372e-11    6.820116473246576    
  0.02408513323789004    0.024662599953713952    0.026439448979186944    0.02954268946633445    0.0341759450067562    
  0.04063265147905156    0.04932031073443752    0.06076287681678916    0.0755600567939119    0.09431673514434755    
  0.11756659191116718    0.14568303014643197    0.1787386661855233    0.21630093796645924    0.25723182292176167    
  0.2996071307449597    0.3408142147273399    0.37778524112560874    0.4073102560832659    0.4264534436437334    
  0.4330949129890409    0.42645344337415897    0.40731025592774367    0.3777852415462217    0.34081421595436356    
  0.2996071327020019    0.2572318253541578    0.2163009406017596    0.17873866881539582    0.1456830326245862    
  0.11756659411503093    0.09431673695701256    0.07556005813757971    0.06076287770868386    0.049320311295514355    
  0.040632651868929046    0.03417594533872548    0.02954268977043787    0.026439449224241067    0.02466260009181253    
  0.02408513323789004    0.024662599842383573    0.024662580609878592    0.025839729017699646    0.028279737345173535    
  0.03214780361424758    0.037693139978177456    0.04526880164783085    0.05534430687754421    0.06848465349043961    
  0.08529583267751605    0.10635754446331175    0.132147006632112    0.1629224925777937    0.19853693778299064    
  0.2382154444355385    0.28040208180399956    0.32277382631562085    0.3624255659116437    0.39615983397922644    
  0.4208545336800699    0.4339404559185402    0.4339407418289927    0.42085537176145127    0.3961611542009529    
  0.3624272404425961    0.3227756960441576    0.2804039967745712    0.23821728224974423    0.19853860413863494    
  0.1629239291867355    0.1321482027395295    0.10635852735787872    0.08529663713045857    0.06848529908857842    
  0.05534480176002255    0.04526915931231778    0.037693386057267325    0.03214796777208174    0.0282798425677622    
  0.025839788334380994    0.024662599842383573    0.026439448754342242    0.02583972891226591    0.02643937143842848    
  0.02827968189630073    0.03148438750716979    0.03626437885187324    0.04293116826476693    0.05190628801564575    
  0.06370828730966889    0.07891643166768478    0.09812513027639923    0.1218880245848029    0.1506195607441631    
  0.18441997361551402    0.22284015524585427    0.26467365943069576    0.30788808994701194    0.3497506224762776    
  0.3871097274146543    0.41676294431375316    0.43588435375698226    0.4424970321818468    0.43588548476020245    
  0.41676511071828215    0.38711271943194814    0.34975414199996535    0.3078918274898786    0.26467735370605816    
  0.22284360208289222    0.18442302530338625    0.1506221451261756    0.12189015235927027    0.09812686006961982    
  0.07891781947249008    0.06370936724393289    0.051907089617413214    0.04293173576345158    0.03626476761853056    
  0.031484646437907195    0.028279842323392892    0.026439448754342242    0.029542689129842415    0.028279737141471806    
  0.02827968180166519    0.029542519983066423    0.03214767207244892    0.036264317151621595    0.042166062326450184    
  0.050236236853804496    0.06095284986325458    0.07485966465854134    0.09253876779255417    0.11457851175217507    
  0.14149773783816513    0.17358691954539082    0.21067306338795594    0.25187674974282626    0.2954669300445427    
  0.3389063866420697    0.3791114923041309    0.4128592018544934    0.43723151824658824    0.45001579226390054    
  0.4500166220583341    0.4372339359252666    0.41286297755677426    0.3791162447268039    0.33891166573090553    
  0.2954723226637701    0.25188192628909134    0.2106777747048635    0.17359100383247036    0.14150114019982288    
  0.11458127132687397    0.09254096546117668    0.0748613765852728    0.06095414002199218    0.050237172546576    
  0.04216671950604892    0.03626476737310809    0.03214796730789841    0.029542689129842415    0.03417594457691537    
  0.03214780333309128    0.03148438733738155    0.03214767199457115    0.034175673731863976    0.03769295078404211    
  0.042931088492633336    0.050236240294927854    0.06005206990706183    0.07289128055999602    0.08931644669089564    
  0.10992305448999423    0.13528144835860823    0.16579625188759825    0.20148579002823253    0.2417309202396392    
  0.2850745719169024    0.3291801314104963    0.37104707324369923    0.4074753555735232    0.43560747292076385    
  0.4533194119928657    0.45935942457809115    0.4533214189722296    0.43561131623772503    0.407480675324198    
  0.37105336113559084    0.3291868431591508    0.28508122848488127    0.241737145791893    0.20149131926490202    
  0.16580094204209045    0.1352852793527641    0.1099260949200167    0.08931880267508345    0.07289306089289    
  0.06005337712569521    0.050237172267985436    0.04293173526772362    0.0376933853962157    0.03417594457691537    
  0.04063265100416891    0.03769313966885304    0.036264378651669364    0.036264317033146205    0.037692950735141395    
  0.04063231517207285    0.04526862916171663    0.051906292395870676    0.060952983617792715    0.07289143836982231    
  0.0882650873587954    0.10766927949633119    0.1316991496828336    0.16081461023930668    0.1951319723627461    
  0.23418147022415967    0.27667899509047217    0.3204118028446958    0.36240716889823693    0.3994753428119959    
  0.42893562362613347    0.44910630411462815    0.45927431520730344    0.45927539229434944    0.4491094701669581    
  0.42894065404801784    0.399481821185688    0.3624145298599457    0.32041944125760813    0.27668637320109785    
  0.23418818341876926    0.19513777480797354    0.16081940824988755    0.13170297019810712    0.10767222688186837    
  0.08826730128431705    0.07289306051700578    0.06095413939829295    0.0519070888351578    0.045269158446969125    
  0.04063265100416891    0.049320310295865095    0.04526880139208489    0.04293116811192108    0.04216606223749414    
  0.04293108845559577    0.04526862916381644    0.049320002981823916    0.05534428055173069    0.06370853515736169    
  0.07486012609283925    0.08931700704003322    0.10766973022695878    0.1305333861211929    0.15840327767592255    
  0.19143713011292443    0.22921136131839648    0.27047440650595195    0.3129746199985631    0.35359364777890917    
  0.38900575127529474    0.41669165642968303    0.4356720612644325    0.44638920082618255    0.4498069093111695    
  0.44639120993782827    0.4356760195650457    0.41669736575389504    0.3890128060453649    0.35360145574203916    
  0.3129825191052297    0.2704818172863644    0.22921789322827912    0.1914425982198354    0.158407655707374    
  0.13053675200698753    0.10767222634075692    0.08931880178756833    0.07486137551038279    0.0637093660978017    
  0.05534480063862846    0.049320310295865095    0.06076287651267354    0.05534430677224186    0.051906288006959636    
  0.050236236889228944    0.05023624036048189    0.05190629248541957    0.0553442806332754    0.06076274546392476    
  0.06848495590353602    0.07891715153070704    0.09253984942546734    0.10992437727812457    0.13170046939798055    
  0.1584041996869794    0.19023034060691268    0.22675796704899565    0.26666668611772326    0.3074972509333497    
  0.34574311675239194    0.37765453352957246    0.400651797907266    0.41447407790387447    0.4211051177221859    
  0.4234172277267665    0.42341805660245024    0.4211076246763831    0.41447826928586984    0.4006575401784248    
  0.3776614484877536    0.34575059321041895    0.3075045993254769    0.26667334395406533    0.22676361318840765    
  0.1902348727976075    0.15840765499715348    0.1317029689670449    0.1099260933933832    0.09254096382965131    
  0.07891781787776413    0.06848529764233269    0.06076287651267354    0.07556005671263297    0.06848465361840962    
  0.06370828753197791    0.060952850117550195    0.060052070176344105    0.06095298390010515    0.06370853542789558    
  0.06848495609347402    0.07556031229399442    0.08529672478107576    0.09812665649643552    0.11458062805537003    
  0.13528401241245255    0.16081732653827782    0.19143954906474084    0.22675951307128264    0.26538459955287    
  0.30457898726888777    0.34026140195356136    0.3679232716791422    0.3845211714412495    0.39023237336427663    
  0.3885874055039775    0.384711153716374    0.38287673512319903    0.38471234173881985    0.3885898590887971    
  0.3902361622032551    0.38452621508473306    0.3679292215605098    0.34026766451390456    0.30458491763669404    
  0.2653897242167434    0.22676361242320414    0.19144259674771177    0.16081940628277613    0.13528527714901542    
  0.11458126910946914    0.09812685800351331    0.08529663533679614    0.07556005671263297    0.09431673534923775    
  0.08529583309175866    0.0789164321795453    0.0748596652070119    0.07289128112809778    0.07289143895707235    
  0.07486012667724279    0.07891715204454106    0.08529672511196465    0.09431768688703995    0.10635941310274095    
  0.12189082951060942    0.14150142647486977    0.16580063531560696    0.19513669881121437    0.22921593007876787    
  0.2666704584816831    0.30458122035698243    0.33828960838839245    0.3622941941797315    0.3725984220990082    
  0.36927349083835936    0.35704896638125466    0.3432054672979753    0.33439893879438065    0.33439926800387    
  0.3432064955934139    0.3570507968881998    0.369276218400872    0.37260200256786713    0.36229832925580097    
  0.33829378474893246    0.30458491700706875    0.26667334255190345    0.22921789111291196    0.1951377722161113    
  0.16580093926808745    0.14150113749823787    0.12189014991351806    0.10635852529072687    0.09431673534923775    
  0.11756659244289476    0.10635754519406475    0.09812513111386231    0.09253876869323825    0.08931644764686159    
  0.08826508837100182    0.08931700808368688    0.09253985042719613    0.09812665733546798    0.10635941362109029    
  0.11756868772033383    0.1321503858068669    0.15062424132418498    0.17359280774323568    0.20149263921903626    
  0.23418887546802675    0.27048179466815075    0.3075038626605932    0.340266370250452    0.36229680416019705    
  0.3682126829299901    0.35720735123692415    0.33452955181054606    0.30926761881947035    0.2902723056661351    
  0.28330474869316324    0.29027247868315    0.30926799962108115    0.3345302174593929    0.3572083871419293    
  0.3682140726219841    0.36229832882643614    0.34026766348842136    0.30750459753928644    0.27048181478118    
  0.2341881804470465    0.20149131615470192    0.1735910008655294    0.15062214249554204    0.13214820055959733    
  0.11756659244289476    0.1456830310240364    0.13214700769563723    0.12188802577256967    0.11457851305291936    
  0.10992305591805916    0.10766928105983728    0.107669731895376    0.10992437896441981    0.114580629621568    
  0.121890830781592    0.13215038657062975    0.14568685253690067    0.16292802302434262    0.18442719080016928    
  0.21068181350862708    0.24174089866441134    0.2766897183844944    0.31298536267966254    0.34575290105866807    
  0.36793106290790867    0.37260351314093765    0.3572096560713546    0.3264149494172648    0.290482264366341    
  0.26032252912536485    0.24352447133370086    0.24352434228239814    0.26032212335700566    0.2904815507744337    
  0.32641393404935404    0.35720838666136295    0.3726020017513575    0.36792922028828934    0.34575059127998914    
  0.3129825164986125    0.2766863701495937    0.2417371426369749    0.21067777174248029    0.18442302272281416    
  0.16292392708218909    0.1456830310240364    0.17873866738885485    0.16292249396321895    0.15061956228547274    
  0.1414977395638273    0.13528145031742736    0.13169915190159168    0.13053338856811303    0.13170047196830295    
  0.13528401494148531    0.14150142875952904    0.15062424312889966    0.16292802407586546    0.17874487668359332    
  0.19854528878379948    0.22285055952834248    0.2518889868698928    0.2850882550165366    0.32042628832097053    
  0.3536079406633163    0.3776673698696776    0.38453139061093056    0.3692805010242842    0.3345335092216457    
  0.2904838428310949    0.2498371130863514    0.2222721566658472    0.2126510359369083    0.2222715147015356    
  0.24983572136866433    0.2904815500031103    0.33453021624236867    0.369276217009146    0.38452621350997757    
  0.3776614465180097    0.35360145326106907    0.3204194384089491    0.2850812255717338    0.2518819235918777    
  0.2228435997686968    0.19853860226985762    0.17873866738885485    0.21630093940738476    0.19853693942052988    
  0.18441997545897967    0.1735869216621445    0.16579625436708334    0.1608146131401988    0.15840328097847023    
  0.15840420327457413    0.16081733021557085    0.16580063884040072    0.1735928108425254    0.18442719317161957    
  0.19854529011105498    0.2163102039369665    0.23822723770437942    0.26468781082809595    0.2954831291557982    
  0.3291978414567628    0.3624254789100295    0.3890233227300634    0.40066712169180047    0.3902443076907719    
  0.35705717206270765    0.30927254278073424    0.26032502351066755    0.22227307832027168    0.20201811637739736    
  0.20201762821867714    0.22227151377622803    0.26032212163181473    0.3092679974385003    0.35705079466116907    
  0.390236160123358    0.40065753812158933    0.3890128038127153    0.3624145274425625    0.3291868407423607    
  0.2954723204600364    0.26467735183528296    0.23821728073331147    0.21630093940738476    0.25723182442662323    
  0.23821544617056153    0.2228401572526155    0.2106730657660996    0.20148579290664076    0.19513197584143635    
  0.1914371342017076    0.1902303451945862    0.19143955393387124    0.19513670367678934    0.20149264375675105    
  0.21068181736871577    0.22285056236013076    0.2382272392081655    0.257244743083518    0.28041780907231545    
  0.30790634647162896    0.33892672114060424    0.37106872001343844    0.39949706435483473    0.41671180984104905    
  0.41449106505966476    0.3886002806286095    0.34321422576580857    0.29027766494136464    0.24352741141901363    
  0.21265243465382155    0.20201811549048895    0.212651034133615    0.24352433964956088    0.2902724755358668    
  0.34320649243997636    0.388589856353126    0.41447826704491075    0.41669736381153927    0.39948181936575083    
  0.3710533594294899    0.3389116642157866    0.30789182620640976    0.280403995696747    0.25723182442662323    
  0.29960713207237094    0.2804020834057875    0.26467366137420156    0.25187675215010286    0.24173092327125084    
  0.23418147402255632    0.22921136593586558    0.22675797240153192    0.22675951894197008    0.2292159361534063    
  0.2341888813693564    0.2417409039792866    0.2518889911907307    0.26468781381882384    0.28041781054705606    
  0.29962413725832837    0.3227937345802317    0.34977300612760714    0.3791357092058872    0.4075003758657447    
  0.42895992251186815    0.43569384235373143    0.42112289296992705    0.38472429325838875    0.3344077643328298    
  0.2833101758557562    0.24352741060616867    0.22227307666784496    0.22227215416220994    0.24352446803056443    
  0.2833047448425322    0.33439926412520216    0.384712338428315    0.4211076222553366    0.43567601794365574    
  0.42894065293527145    0.40748067448806263    0.37911624405293964    0.34975414141659605    0.3227756954728754    
  0.29960713207237094    0.340814215642215    0.3227738275453119    0.3078880915740557    0.2954669322002098    
  0.2850745747784861    0.2766789988311993    0.2704744112186135    0.2666666917581272    0.2653846059322922    
  0.26667046529190225    0.2704818015070873    0.27668972478400167    0.2850882604990848    0.29548313332437687    
  0.3079063491072207    0.3227937357228009    0.3408354507593099    0.3624495388370612    0.3871358336265922    
  0.41288659391981986    0.4356348923176233    0.4491320688345733    0.4464115618877494    0.42343496559235655    
  0.38288956366905486    0.33440776363944724    0.29027766347255124    0.26032502129678387    0.24983711015348395    
  0.2603225255095489    0.29027230154818695    0.3343989346336196    0.3828767315765236    0.42341805418121775    
  0.44639120871083016    0.449109469815418    0.4356113163429353    0.4128629777987305    0.38711271960576904    
  0.36242724041315905    0.340814215642215    0.3777852415211703    0.3624255666438493    0.34975062362698633    
  0.3389063883327345    0.32918013380974076    0.3204118061271462    0.31297462427197476    0.30749725618268614    
  0.3045789933491992    0.30458122701231705    0.30750386952995    0.31298536930029514    0.3204262941766873    
  0.32919784608559893    0.33892672426368414    0.349773007753189    0.3624495393137629    0.3778104594200471    
  0.3961873288373694    0.41679193741757886    0.437260987223372    0.45334796700158697    0.4593002940665608    
  0.449828790447766    0.4234349652470332    0.3847242922328305    0.3432142240021644    0.3092725403669199    
  0.29048383985150694    0.29048226086966983    0.30926761493072635    0.34320546338276775    0.38471115039232595    
  0.423417225589455    0.44980690856928945    0.45927539267477757    0.45332141995414027    0.43723393702316543    
  0.41676511159989843    0.3961611546731618    0.3777852415211703    0.40731025607427185    0.39615983430281415    
  0.3871097281302547    0.37911149349548523    0.37104707503136525    0.3624071714081923    0.35359365108227914    
  0.3457431208248105    0.340261406685308    0.33828961361201626    0.34026637573044966    0.345752906451702    
  0.35360794552008834    0.3624254827643266    0.37106872253079215    0.3791357103277081    0.3871358336543581    
  0.3961873284185373    0.40733877452212197    0.4208845884068828    0.43591502619556816    0.4500459545391241    
  0.45938769219636294    0.4593002942867538    0.44641156181399966    0.42112289226407773    0.3886002792120782    
  0.3570571700370883    0.33453350671739296    0.32641494651425185    0.33452954860656564    0.35704896315414925    
  0.38858740278199116    0.42110511609371537    0.4463892005851767    0.45927431616393155    0.45935942620351644    
  0.45001662378036933    0.43588548615421646    0.42085537258222083    0.40731025607427185    0.42645344351615677    
  0.4208545338611296    0.41676294481601484    0.41285920268795967    0.4074753567574614    0.39947534435552623    
  0.3890057531422893    0.3776545356316    0.36792327391836727    0.36229419649538463    0.3622968065098514    
  0.36793106518648433    0.3776673718465206    0.3890233240756075    0.3994970647616979    0.4075003752148416    
  0.4128865924169136    0.4167919356227528    0.4208845871137931    0.4264841615202141    0.4339717538200629    
  0.44252791334828784    0.4500459552529747    0.45334796800955396    0.449132069682559    0.43569384269897227    
  0.4144910647584674    0.39024430677780486    0.36928049960628145    0.3572096542351633    0.3572073490713786    
  0.36927348856450665    0.3902323714250298    0.414474076840548    0.4356720614108523    0.44910630537420415    
  0.4533194139020257    0.45001579424972493    0.4424970337805799    0.43394074275901134    0.42645344351615677    
  0.4330949129890409    0.43394045619914573    0.43588435426606875    0.43723151888648804    0.4356074735519184    
  0.4289356240639273    0.4166916564531704    0.4006517973114198    0.3845211701278458    0.37259842013608774    
  0.3682126805105661    0.3726035104622288    0.3845313877645822    0.40066711863096854    0.41671180643615957    
  0.4289599186801841    0.43563488818083995    0.4372609831997495    0.43591502293468465    0.4339717519830484    
  0.433126406550042    0.4339717547878168    0.43591502792030506    0.4372609893548456    0.43563489447129655    
  0.42895992436313635    0.41671181118250183    0.40066712244101316    0.3845313907678784    0.37260351273371944    
  0.3682126820214106    0.3725984208770624    0.38452117029386085    0.4006517973332513    0.4166916567842682    
  0.4289356249033062    0.43560747476290573    0.4372315201461192    0.4358843552647644    0.4339404567405918    
  0.4330949129890409    0.4264534435017357    0.4339407422185329    0.44249703271694935    0.4500157927276048    
  0.45331941204883536    0.44910630331827445    0.4356720591351763    0.4144740740724161    0.390232367737708    
  0.3692734836620281    0.35720734298695045    0.35720964725952864    0.3692804920568975    0.3902442988326513    
  0.4144910564631689    0.4356938341232647    0.449132061128253    0.45334796012954126    0.45004594896155986    
  0.4425279095240577    0.43397175295080204    0.4264841634803633    0.4208845911772194    0.41679194069486086    
  0.4128865973769471    0.4075003792128614    0.39949706735774054    0.38902332520987776    0.37766737169869785    
  0.3679310640087594    0.36229680453406743    0.36229419397763885    0.36792327125209623    0.37765453334788673    
  0.3890057517106065    0.3994753439385618    0.40747535714937483    0.412859203471887    0.41676294557827964    
  0.42085453431246866    0.4264534435017357    0.40731025593673764    0.4208553720249657    0.43588548512104186    
  0.450016622208731    0.45935942399869917    0.45927431317058215    0.446389196531885    0.42110511057373634    
  0.3885873953964313    0.35704895378264084    0.33452953754690845    0.3264149343335178    0.33453349397478266    
  0.357057157123823    0.38860026637906225    0.4211228797701889    0.4464115500982901    0.45930028404892825    
  0.45938768428663934    0.45004594967541034    0.4359150246594214    0.4208845898841297    0.40733877815605596    
  0.39618733304125675    0.3871358380960678    0.3791357136753841    0.37106872425155013    0.3624254826990877    
  0.35360794379885213    0.3457529033769793    0.340266371683495    0.3382896090372751    0.34026140212715833    
  0.3457431168900864    0.3535936482574971    0.36240716985230154    0.3710470745333199    0.3791114936268552    
  0.38710972845181324    0.39615983448982867    0.40731025593673764    0.3777852411506601    0.3961611540564177    
  0.41676511066575717    0.43723393563193597    0.4533214178172782    0.45927538932354706    0.44980690338958756    
  0.42341721794056186    0.38471113984331845    0.34320544998538355    0.30926759927864894    0.29048224382691723    
  0.2904838221865092    0.30927252259713484    0.3432142064964278    0.38472427542836163    0.4234349498279916    
  0.44982877735474847    0.45930028426912106    0.453347961137508    0.4372609853312228    0.41679193890003463    
  0.3961873326224246    0.37781046422341774    0.3624495439175575    0.3497730112180405    0.33892672601879914    
  0.3291978459124761    0.32042629214233126    0.3129853656779397    0.30750386473090546    0.304581221555598    
  0.30457898785373944    0.3074972512989257    0.312974620507062    0.3204118036645162    0.3291801324780088    
  0.33890638774701914    0.34975062338000534    0.3624255664268724    0.3777852411506601    0.34081421503948856    
  0.3624272397730344    0.38711271888595983    0.4128629768524684    0.435611314778061    0.44910946691412024    
  0.44639120349779826    0.4234180456700583    0.38287671915021154    0.3343989183933619    0.2902722823429206    
  0.26032250453420736    0.24983708843124625    0.2603249994618306    0.29027764192985367    0.3344077428964053    
  0.3828895446079069    0.4234349494826683    0.44641155002454    0.44913206197623823    0.43563489033451264    
  0.41288659587404053    0.3871358381238334    0.362449544394259    0.34083545607660376    0.3227937398438623    
  0.3079063514652948    0.2954831336986942    0.2850882589347718    0.27668972151735943    0.27048179691542806    
  0.26667045987564386    0.26538460030371624    0.26666668656720555    0.27047440698583075    0.27667899578005617    
  0.28507457280324405    0.29546693099008575    0.30788809078691    0.3227738269225327    0.34081421503948856    
  0.2996071313745907    0.3227756949555097    0.3497541410922228    0.37911624382281867    0.40748067396344023    
  0.42894065129130293    0.43567601394248584    0.42110761452791895    0.38471232597615207    0.3343992468289127    
  0.28330472360590364    0.24352444434344142    0.22227212939853727    0.22227305169498027    0.2435273859113522    
  0.28331015196312154    0.33440774220302255    0.38472427440280305    0.4211228790643391    0.435693834468505    
  0.42895992053145177    0.40750037856195787    0.37913571479720487    0.3497730128436222    0.3227937409864313    
  0.2996241423710411    0.28041781382252506    0.26468781507157213    0.25188899048706    0.24174090154558342    
  0.23418887754086615    0.22921593136956908    0.22675951375364997    0.22675796741609805    0.22921136166808048    
  0.2341814707352304    0.24173092093275644    0.25187675053596875    0.2646736602220472    0.2804020825241626    
  0.2996071313745907    0.25723182384929616    0.2804039955080582    0.3078918264779772    0.33891166491798014    
  0.3710533602502172    0.3994818195255365    0.41669736200521795    0.41447826163969137    0.3885898458799412    
  0.3432064762414441    0.2902724541823281    0.2435243146981076    0.21265100733762302    0.2020180881356807    
  0.21265240749760658    0.24352738509850702    0.29027764046104    0.34321420473278325    0.38860026496253036    
  0.414491056161971    0.4167118077776119    0.399497067764603    0.3710687267689035    0.3389267291418789    
  0.3079063541008865    0.2804178152972656    0.25724474738405145    0.2382272414463218    0.2228505626437836    
  0.21068181593801014    0.201492640920769    0.1951366998126    0.19143954951296824    0.19023034075700623    
  0.19143713023524925    0.19513197263513934    0.20148579049761495    0.21067306401605998    0.22284015598169293    
  0.23821544525866417    0.25723182384929616    0.21630093916083395    0.23821728105924653    0.26467735285239913    
  0.2954723221993917    0.3291868429883993    0.3624145295550034    0.3890128046171588    0.40065753597309983    
  0.3902361532282502    0.3570507816844757    0.30926797818340684    0.26032209724851146    0.2222714861825873    
  0.2020175992188513    0.20201808724877224    0.22227305004255346    0.26032499724794655    0.30927252018332013    
  0.35705715509820307    0.3902442979196835    0.4006671193801805    0.3890233265554211    0.36242548655338447    
  0.32919785054131195    0.29548313786727265    0.26468781806229974    0.23822724295010786    0.21631020709507195    
  0.1985452913281803    0.1844271927082554    0.17359280899635537    0.1658006359417686    0.16081732666511195    
  0.15840419954227342    0.15840327751251104    0.16081461023900454    0.16579625212211627    0.1735869200125322    
  0.184419974302452    0.19853693870355363    0.21630093916083395    0.17873866761206428    0.19853860321148442    
  0.22284360157360733    0.25188192632953316    0.28508122910545686    0.32041944225326285    0.35360145647940444    
  0.3776614477007275    0.38452621087550737    0.3692762087557373    0.33453020123669835    0.29048152845239056    
  0.24983569481336457    0.2222714852572797    0.21265100553432953    0.22227212689489997    0.24983708549837835    
  0.2904838192069208    0.33453349147052913    0.36928049063889407    0.38453138792152936    0.37766737367554026    
  0.3536079486556237    0.3204262979980479    0.28508826441732    0.2518889948078981    0.22285056547557186    
  0.19854529265543575    0.17874487864636163    0.16292802440260287    0.15062424211136363    0.14150142669719615    
  0.13528401218288166    0.13170046892630966    0.13053338565194944    0.13169914940716987    0.13528144837280928    
  0.14149773816976652    0.15061956140561633    0.1629224935992702    0.17873866761206428    0.14568303174698172    
  0.16292392861971486    0.1844230252222342    0.21067777528760154    0.24173714714155398    0.2766863752506917    
  0.31298252149460426    0.34575059510824    0.36792922149490725    0.37260199853193615    0.3572083772521215    
  0.32641391752654025    0.2904815276810672    0.26032209552332036    0.24352431206527012    0.2435244410403047    
  0.2603225009183908    0.29048224033024517    0.32641493143050393    0.3572096454233366    0.37260351005500997    
  0.3679310662873345    0.3457529087700128    0.31298537229857226    0.2766897279168666    0.24174090686045868    
  0.21068181979809883    0.18442719507970576    0.1629280254541257    0.1456868533865393    0.1321503861238507    
  0.12189082931721427    0.11458062745372652    0.10992437646707166    0.10766972944935335    0.10766927895567467    
  0.1099230543050342    0.11457851197279965    0.12188802523584501    0.13214700774225632    0.14568303174698172    
  0.11756659358330336    0.13214820255159876    0.1506221454689613    0.17359100489830756    0.20149132118704047    
  0.23418818619841922    0.27048182072340443    0.3075046029190621    0.34026766729377833    0.36229832965145264    
  0.36821406867734624    0.35720837677155526    0.33453020001967404    0.3092679760008258    0.29027245103504445    
  0.28330471975527205    0.2902722782249717    0.30926759538990417    0.3345295343429271    0.35720734082140393    