#     DFTpy    
  CRYSTAL 
    
  PRIMVEC    
  3.8330519145655    1.6036068800000003e-05    -4.0000000000000006e-13    
  -1.9165120696389901    3.3195284460646706    -7.870000000000001e-12    
  -6.600000000000001e-13    -1.5320000000000002e-11    6.302132920125842    
  PRIMCOORD    
  4    1    
  Si    9.541939850000001e-06    2.2130241526140804    3.544154628490921    
  Si    1.9165303029821807    1.1065203294922403    0.39308812189159004    
  Si    9.541941290000001e-06    2.2130241526131607    5.9090447516947515    
  Si    1.9165303029884004    1.1065203295168202    2.7579783381578804    
  BEGIN_BLOCK_DATAGRID_3D    
  3d_datagrid_density    
  BEGIN_DATAGRID_3D#0    
  37    37    61    
  0.0    0.0    0.0    
  3.833051928862857    1.6036068859814843e-05    -4.000000014920077e-13    
  -1.9165120767876167    3.3195284584465754    -7.870000029355252e-12    
  -6.600000024618127e-13    -1.5320000057143894e-11    6.302132943632917    
  0.039156029090164926    0.04026471376777552    0.04366570112600737    0.049596075783336316    0.05847507353122682    
  0.07090296333017969    0.08763071748813547    0.10950799092323203    0.13740008125887915    0.17204418441779534    
  0.21383215322165547    0.2625422095259353    0.31704765339529156    0.37503501217285723    0.43284798195909474    
  0.4856830990777475    0.5282852368794347    0.5559723565257497    0.5655719845484278    0.5559723579247475    
  0.5282852396425416    0.4856831030404798    0.43284798677203956    0.3750350173659896    0.3170476585070373    
  0.26254221420041    0.21383215722862034    0.17204418761439816    0.13740008355210429    0.10950799228590917    
  0.08763071801538481    0.0709029632563186    0.058475073156849244    0.049596075363396844    0.04366570080765419    
  0.04026471360429104    0.039156029090164926    0.04026471320883088    0.040264559121521014    0.04251921748307352    
  0.04718473664825836    0.0545893539381963    0.06524109017821375    0.07981131272011954    0.09909981463267696    
  0.12397745812811103    0.15527334016386138    0.1935790131621014    0.2389892197055578    0.2908232223528343    
  0.3473513255093685    0.40557626834471594    0.4612368511244442    0.5092504493940603    0.5446004801604717    
  0.5633438741625673    0.5633448367038165    0.5446032971145494    0.5092549127607334    0.46124261950701484    
  0.4055828762456284    0.3473582323639648    0.29082991065407715    0.2389952961231728    0.19358425966968756    
  0.1552777030368386    0.12398099551070327    0.09910263212634694    0.07981351491672974    0.06524276301190413    
  0.054590568915017124    0.04718555574218364    0.04251968929981872    0.04026471320883088    0.04366570002879372    
  0.04251921695664503    0.04366510886728377    0.04718433364086987    0.053324294777363945    0.06250129646407833    
  0.07528907689606693    0.09240148355794002    0.11466847374260608    0.1429611622527159    0.17801341655260886    
  0.22015239516249077    0.26901280727813687    0.3232877195191993    0.3805275470977025    0.437067008416061    
  0.48827462926490134    0.5292402553998581    0.5557074077926478    0.564856129731561    0.5557112601598109    
  0.5292476190515886    0.48828487345806315    0.43707927767261023    0.3805408453610387    0.32330104668641474    
  0.26902532134936086    0.22016352552969412    0.17802288955911902    0.14296895345775415    0.11467471823864818    
  0.0924063798969725    0.07529282148699165    0.06250406154945069    0.05332622836489002    0.04718555533013001    
  0.04366570002879372    0.04959607420600797    0.04718473566460945    0.04718433319024497    0.04959483459527836    
  0.054588392969916875    0.06250078671599274    0.07381274618890711    0.08913612647176007    0.10921400242163554    
  0.1348895893774769    0.16696501198781705    0.2059323878948046    0.25165897337411425    0.30312094113099314    
  0.3582190737832942    0.4137215365763021    0.46547813436083824    0.5090192769966841    0.5403802672256927    
  0.5567586924731306    0.5567615740512375    0.540388627435217    0.509032319949892    0.4654946853301417    
  0.4137401979755897    0.3582384071484611    0.3031396664593235    0.2516761228666895    0.20594736680756923    
  0.1669775788407074    0.13489978408114778    0.10922204169361167    0.08914229811467335    0.0738173389520094    
  0.0625040610803585    0.05459056806439047    0.04959607420600797    0.058475071593735196    0.05458935262725792    
  0.053324294009351535    0.054588392651715    0.05847305476037415    0.06523949912828271    0.07528804373559012    
  0.08913567668624331    0.10742148390586917    0.1309042566588367    0.1603651058554612    0.19636667990213957    
  0.23892357348901958    0.28718511822537357    0.3392059644133687    0.3919027447676157    0.441368503539056    
  0.48361684913480496    0.5154711090124315    0.5350607922367177    0.5416441002642584    0.5350679023437444    
  0.5154846862369992    0.4836356828608087    0.4413909564807796    0.3919269714582515    0.33923019369875623    
  0.287207907592054    0.23894393940381387    0.19638410069143553    0.16037945236596174    0.1309156866752039    
  0.10743031960247255    0.08914229752012193    0.07529282045514214    0.06524276166183392    0.058475071593735196    
  0.0709029612256514    0.06524108873975108    0.06250129558096666    0.06250078627914266    0.06523949900385198    
  0.07090011167101529    0.07980912163123807    0.09240007877418262    0.10921340277338369    0.13090424591488317    
  0.1581726035304566    0.1915562952441685    0.23111202434301895    0.2760515502308183    0.3244135029121442    
  0.37296266811348816    0.4176374860993285    0.4546538276950819    0.4817554601068864    0.4987162671599919    
  0.506654843848004    0.5066587957103271    0.49872786520300005    0.4817738887762213    0.4546776517990739    
  0.4176647237375697    0.3729910916500458    0.3244410676899905    0.27607672799949995    0.23113391277763362    
  0.19157454862376944    0.15818728856694503    0.1309156858962931    0.10922204034845008    0.0924063781764831    
  0.07981351297343503    0.0709029612256514    0.08763071546309026    0.07981131140006534    0.07528907614695607    
  0.07381274588460907    0.07528804373678133    0.07980912175333228    0.08762712585334961    0.09909728607295573    
  0.11466716200428237    0.13488948245064736    0.1603658431246746    0.1915571328035303    0.2284793168348666    
  0.27031287850295843    0.3149591058743817    0.35879699824962313    0.39719736628238245    0.4260934938259728    
  0.44387979548945106    0.4521783496221408    0.454720811533924    0.45508913091604614    0.4547286522266163    
  0.4521937622736025    0.4439019862270944    0.4261208887011842    0.3972276750205101    0.3588276759080172    
  0.3149879497666906    0.2703384115719005    0.22850083701668553    0.19157454768281248    0.16037945066293688    
  0.13489978185974913    0.11467471572700377    0.09910262951253015    0.08763071546309026    0.10950798923412028    
  0.09909981367648919    0.09240148319076412    0.08913612655898187    0.08913567708411096    0.09240007929823776    
  0.09909728648050277    0.10950404537781575    0.12397519862949723    0.14296073871846968    0.16696629062621923    
  0.19636908753425714    0.23111466256398347    0.270314743640764    0.3117053781808058    0.35119531018932093    
  0.38329971689087944    0.403139490166111    0.40920825425576496    0.40469653157005925    0.3960326098822312    
  0.38974463461173037    0.38974826592924955    0.39604352852843583    0.4047145965493103    0.40923268091611564    
  0.4031685211986473    0.3833308028169562    0.35122576114931847    0.3117330582054818    0.2703384106084982    
  0.23113391087328097    0.19638409804537404    0.16697757573294444    0.14296895015717218    0.12398099224099798    
  0.10950798923412028    0.13740008013399363    0.12397745774345108    0.11466847396394496    0.10921400312514042    
  0.10742148495345286    0.10921340398015035    0.11466716312185204    0.1239751993561016    0.1373964915943361    
  0.15527223612931298    0.1780148690110592    0.20593605942618257    0.23892867896068765    0.276057085214094    
  0.3149639777579835    0.3511982923088122    0.37837627705279037    0.39037894889914193    0.38507472193725956    
  0.36659758106851226    0.3437451168035485    0.3257962779364457    0.3190957995080396    0.32580261428284957    
  0.3437579620321792    0.3666168503816744    0.3850995027765072    0.39040725925417313    0.3784054477604386    
  0.3512257603340892    0.31498794798891483    0.2760767252767252    0.23894393595681757    0.20594736295740576    
  0.17802288561643245    0.15527769925597554    0.13740008013399363    0.17204418403774405    0.15527334050641048    
  0.14296116321308822    0.1348895908669041    0.13090425856493115    0.13090424805987863    0.13488948457603    
  0.14296074050232724    0.15527223721243763    0.1720418904887304    0.19358013224785997    0.22015684958705786    
  0.25166618227576676    0.2871941035297555    0.3244231088403692    0.35880586932755615    0.3833063453772807    
  0.39038226257872705    0.37646380317886613    0.34564317951709667    0.30853027530381105    0.27693458390278153    
  0.2592302714320984    0.25923284460370183    0.2769424631939281    0.3085437167139024    0.34566198132364556    
  0.3764867875757537    0.39040725854630287    0.38333080135389674    0.35882767353329753    0.3244410643923306    
  0.28720790359644105    0.2516761185290565    0.2201635211967874    0.1935842556148182    0.17204418403774405    
  0.21383215370072    0.1935790143232668    0.1780134183374186    0.16696501436325417    0.16036510875905924    
  0.15817260680995385    0.16036584651601035    0.16696629377947614    0.17801487153121973    0.19358013371819163    
  0.21383232736209046    0.23899384665956516    0.26902156157150364    0.30313293544363074    0.33921995824699225    
  0.37297716059170843    0.39721051549966235    0.40314948728587624    0.3850806754851778    0.3456455248990157    
  0.29622890466654833    0.25107658969042945    0.22074745156719366    0.2102284464124459    0.22075142256787075    
  0.25108479627742303    0.29624149616338363    0.3456619804196445    0.3850995012461703    0.4031685190888463    
  0.3972276721793688    0.37299108800381425    0.3392301894274818    0.30313966191961894    0.2690253169036091    
  0.23899529204531986    0.21383215370072    0.2625422108779806    0.2389892216816922    0.22015239776466555    
  0.20593239115799938    0.19636668383309394    0.19155629974064797    0.1915571376141107    0.1963690922838908    
  0.20593606367334213    0.22015685286579204    0.23899384850625469    0.26254632995073474    0.29083282141647665    
  0.3233020612954644    0.35823686484233874    0.39192234417216587    0.41765684344424175    0.4261102339587154    
  0.4092205044781169    0.3666049062491267    0.30853363149270063    0.2510775206518564    0.20767972867420498    
  0.18506238851995332    0.1850637701016066    0.20768398003316685    0.2510847951062528    0.3085437146232404    
  0.3666168477477486    0.40923267795815177    0.4261208853544702    0.417664719871125    0.39192696714338343    
  0.3582384026713284    0.3233010423789681    0.2908299067649056    0.2625422108779806    0.317047655496066    
  0.2908232250070704    0.2690128105590707    0.25165897738883924    0.23892357832169464    0.23111202996166008    
  0.2284793230278123    0.231114668950788    0.23892868505554152    0.25166618755060316    0.2690215655026832    
  0.29083282354034934    0.3170573331015071    0.3473672096666352    0.38054835537991044    0.413745510786457    
  0.44139348751444524    0.4546771503639828    0.4438987510281346    0.4047095551081736    0.3437524309114281    
  0.2769376533046704    0.22074805669143344    0.1850620833294374    0.17304877974611108    0.18506376889744008    
  0.22075142016353452    0.27694245980006665    0.34375795809502285    0.40471459250993314    0.4439019822328661    
  0.4546776477444104    0.44139095230027603    0.4137401937974918    0.3805408414132049    0.34735822883273426    
  0.317047655496066    0.3750350147475834    0.34735132855583206    0.3232877231861758    0.30312094559401864    
  0.28718512364119786    0.2760515566433349    0.2703128857629816    0.2703147513953344    0.2760570929595019    
  0.2871941106830204    0.3031329414105525    0.3233020655469351    0.34736721183539365    0.37505157015302526    
  0.405599206436938    0.4370944896068387    0.46550792672817337    0.48364621438952105    0.48178120990909235    
  0.4521978207119252    0.39604487799564053    0.3258022772779066    0.25923189124036267    0.21022763125967603    
  0.18506208219654344    0.1850623862118286    0.21022844290944243    0.25923284005021924    0.32580260912208936    
  0.39604352337910514    0.4521937575645433    0.48177388454903103    0.4836356789571782    0.465494681664395    
  0.43707927428809845    0.4055828732195415    0.3750350147475834    0.4328479846198462    0.40557627138013536    
  0.38052755072341343    0.35821907822780163    0.3392059698858779    0.3244135095167951    0.3149591135279362    
  0.31170538658926006    0.3149639864514184    0.32442311723026934    0.33921996569505997    0.3582368707540037    
  0.3805483593222716    0.405599208268082    0.4328720904653421    0.4612668737748965    0.4883082344312293    
  0.5090537424813554    0.5155031378076212    0.49874246093612695    0.45473898521381406    0.389754681868441    
  0.3190992637341524    0.25923189017031595    0.22074805453677204    0.20767972543635985    0.2207474472263748    
  0.2592302660706876    0.3190957935033975    0.3897482599659434    0.4547286469681556    0.498727860909034    
  0.5154846827472657    0.5090323169778075    0.4882848708149024    0.4612426171175354    0.4328479846198462    
  0.48568310141467746    0.4612368537148234    0.437067011511771    0.41372154042417647    0.39190274958947635    
  0.37296267403476707    0.3587970052304995    0.3511953180084471    0.3511983005905151    0.3588058775723017    
  0.37297716821122184    0.3919223505658099    0.41374551546871086    0.43709449236016895    0.4612668747967312    
  0.4857145957106239    0.5092867326957825    0.5292785687558099    0.5404174191275918    0.5350931495960958    
  0.5066792651669496    0.45510422647232635    0.38975468101050215    0.3258022753647314    0.27693765037805534    
  0.2510775167832232    0.25107658489531465    0.27693457822968137    0.32579627167345027    0.3897446284003146    
  0.4550891255270283    0.5066587915940097    0.5350678994141257    0.5403886252802126    0.529247617266379    
  0.509254911101259    0.48568310141467746    0.5282852385711365    0.5092504511902954    0.4882746313931092    
  0.4654781370258182    0.4413685069127221    0.41763749027071584    0.3971973712159142    0.38329972243392646    
  0.3783762829711397    0.38330635136514674    0.3972105211637572    0.4176568483190243    0.4413934911513243    
  0.46550792885203246    0.4883082351228569    0.5092867325249633    0.5283229799205684    0.5446412558699617    
  0.5557481311429112    0.5567958606246196    0.5416741537457935    0.5066792648845808    0.4547389840869283    
  0.39604487581846193    0.3437524277624381    0.30853362752356955    0.29622889996151985    0.3085302699155152    
  0.3437451109422158    0.3960326040844834    0.4547208065502247    0.5066548402278505    0.5416440980215093    
  0.55676157274524    0.5557112592456844    0.544603296205549    0.5282852385711365    0.5559723573991252    
  0.5446004809783498    0.5292402562791633    0.5090192780146019    0.48361685032957025    0.45465382905195645    
  0.4260934952795338    0.40313949163706086    0.3903789503326837    0.3903822639342583    0.40314948848067583    
  0.42611023481995686    0.45467715064145314    0.4836462138576108    0.5090537411246362    0.5292785669593179    
  0.5446412544577125    0.5560142550197398    0.5633865956318496    0.5648963962899308    0.556795861062235    
  0.5350931498301369    0.49874246041549924    0.4521978191820147    0.4047095526134354    0.3666049029690914    
  0.34564552097939366    0.3456431750421806    0.3665975762040827    0.4046965267431503    0.4521783454926212    
  0.4987162642897868    0.5350607907277536    0.556758691936899    0.5648561295855914    0.5633448364809731    
  0.5559723573991252    0.5655719845484278    0.5633438739770437    0.5557074073479132    0.5403802663787366    
  0.5154711075708238    0.48175545787786217    0.44387979235740843    0.40920825025279517    0.3850747172498473    
  0.37646379807512004    0.3850806702164714    0.4092204992133767    0.4438987458305373    0.4817812047624258    
  0.515503132730633    0.540417414362508    0.5557481272684526    0.5633865934148456    0.5656153319242792    
  0.5633865965158189    0.5557481325514451    0.5404174205069284    0.5155031386385076    0.4817812098802877    
  0.4438987500804924    0.40922050271694427    0.3850806730431492    0.37646380015505837    0.3850747184814414    
  0.4092082507193491    0.44387979243821907    0.48175545807525233    0.5154711081728628    0.5403802672921663    
  0.555707408236441    0.5633438745108336    0.5655719845484278    0.555972357051372    0.5633448355923927    
  0.5648561280933342    0.556758689888349    0.535060788195287    0.4987162612035356    0.4521783415483699    
  0.40469652156712754    0.3665975696568625    0.3456431673342118    0.3456455125026861    0.36660489405941027    
  0.40470954344422205    0.45219780982884006    0.49874245105895904    0.5350931410036834    0.5567958537376592    
  0.5648963916012713    0.5633865942988147    0.5560142568569    0.5446412583709678    0.5292785714446872    
  0.5090537448904507    0.48364621618392    0.4546771513779679    0.4261102341609412    0.4031494867082061    
  0.39038226127583325    0.39037894699906955    0.40313948797624927    0.42609349184691675    0.4546538264338156    
  0.48361684882502315    0.5090192774766461    0.5292402562533858    0.54460048097174    0.555972357051372    
  0.5282852379508401    0.5446032952335841    0.55571125764625    0.5567615702380949    0.5416440942932189    
  0.5066548349017448    0.4547207992197152    0.396032594508136    0.3437450992803518    0.3085302567220411    
  0.2962288859019715    0.30853361310877486    0.3437524133046282    0.39604486156794166    0.454738970441451    
  0.5066792525745465    0.5416741438332485    0.5567958541752743    0.5557481286769863    0.5446412569587183    
  0.5283229832541381    0.5092867364195061    0.4883082381125865    0.46550793003524155    0.44139349022274454    
  0.4176568454111341    0.39721051663842016    0.38330634565798266    0.3783762765550506    0.38329971588106587    
  0.3971973652138391    0.4176374854580232    0.44136850361020347    0.4654781351044769    0.48827463040002894    
  0.5092504505993863    0.5282852379508401    0.4856831007035498    0.5092549103701302    0.5292476161297378    
  0.5403886231953746    0.5350678956555921    0.5066587853504898    0.4550891161250871    0.38974461561664514    
  0.3257962559449016    0.27693456049871656    0.2510765661473227    0.25107749768346077    0.2769376312717466    
  0.3258022565407785    0.3897546630212037    0.45510421034180365    0.5066792522921774    0.535093141237724    
  0.5404174157418443    0.5292785696481946    0.5092867362486865    0.4857145999975237    0.4612668781782208    
  0.437094493789725    0.41374551450639957    0.3919223472420616    0.37297716286108223    0.358805870702277    
  0.35119829281412795    0.3511953100408722    0.3587969978499545    0.3729626679204162    0.3919027450981967    
  0.41372153749041984    0.43706700976113744    0.46123685268435566    0.4856831007035498    0.4328479841112881    
  0.46124261697600644    0.48828487066066906    0.5090323161507223    0.515484680218868    0.4987278554141172    
  0.4547286373895375    0.3897482458433258    0.3190957753513138    0.2592302451698606    0.2207474249620951    
  0.2076797027339264    0.22074803180655472    0.2592318676650879    0.31909924201976636    0.38975466216326476    
  0.454738969314565    0.4987424505383309    0.5155031335615187    0.509053743533731    0.48830823880421387    
  0.46126687920005544    0.43287209507781227    0.40559921089034723    0.38054835942671694    0.3582368683004224    
  0.33921996096700485    0.3244231107159514    0.3149639787841172    0.3117053785251014    0.31495910588288556    
  0.3244135030023022    0.3392059649100963    0.3582190748149446    0.38052754861544535    0.40557627022697057    
  0.4328479841112881    0.3750350147912632    0.40558287399396814    0.43707927548959524    0.46549468265982286    
  0.48363567861613493    0.48177388130134935    0.452193749803409    0.3960435101234031    0.32580259057594047    
  0.25923281757023536    0.21022841827415928    0.18506236078165783    0.1850620566380247    0.2102276058856608    
  0.2592318665950411    0.32580225462760326    0.39604485939076267    0.45219780829892897    0.4817812047336207    
  0.4836462156520093    0.4655079321591004    0.4370944965430551    0.40559921272149135    0.37505157445838766    
  0.34736721357136563    0.3233020646417961    0.3031329381168542    0.28719410544797574    0.27605708636976156    
  0.27031474416819684    0.2703128786972693    0.2760515504664428    0.2871851188194241    0.3031209422518543    
  0.3232877211910624    0.3473513276819328    0.3750350147912632    0.3170476564062627    0.3473582307658008    
  0.38054084415352807    0.413740196817836    0.4413909545561547    0.4546776476231348    0.4439019778202149    
  0.4047145822120406    0.34375794139579363    0.2769424376280894    0.22075139442120417    0.18506374145889617    
  0.17304875180098    0.18506205550513066    0.22074802965189316    0.2769376283451314    0.3437524101556376    
  0.4047095409494832    0.4438987448828943    0.4546771516554376    0.44139349385962307    0.4137455191886532    
  0.38054836336907805    0.34736721574012397    0.317057336606697    0.2908328243907339    0.26902156393876064    
  0.25166618398674934    0.23892868001752382    0.23111466308120082    0.22847931706912475    0.23111202463366323    
  0.2389235741417382    0.25165897457803327    0.26901280910144965    0.2908232247884199    0.3170476564062627    
  0.26254221284836465    0.2908299099577618    0.32330104664486925    0.3582384075966873    0.3919269718635161    
  0.41766472296369034    0.4261208849304521    0.4092326720463623    0.36661683498892367    0.30854369499235673    
  0.25108477003343643    0.2076839516459722    0.18506374025472966    0.18506235847353292    0.2076796994960813    
  0.25107749381482725    0.3085336091396432    0.3666048907793743    0.4092204974522033    0.42611023502218204    
  0.41765685028591626    0.39192235363570543    0.35823687421208716    0.32330206889326674    0.2908328265146066    
  0.26254633244176856    0.2389938486197874    0.22015685099153012    0.20593606028602038    0.19636908795162214    
  0.1915571330082726    0.19155629555084133    0.1963666806068448    0.2059323891948154    0.22015239714478851    
  0.23898922237824594    0.26254221284836465    0.21383215674955572    0.2389952964180603    0.26902532249017336    
  0.30313966839363127    0.3392301961038899    0.3729910937478899    0.3972276754051934    0.40316851788010094    
  0.3850994937291859    0.3456619654822045    0.2962414741343286    0.2510847688622662    0.22075139201686805    
  0.21022841477115584    0.220747420621276    0.25107656135220746    0.2962288811969424    0.3456455085830635    
  0.38508066777444216    0.4031494879030051    0.39721052230251475    0.3729771704805955    0.33921996841507257    
  0.3031329440837761    0.26902156786994036    0.23899385046647703    0.21383232888184944    0.19358013331444984    
  0.17801486963999955    0.16696629091125378    0.16036584327700817    0.15817260384630194    0.1603651066209229    
  0.16696501339699243    0.17801341868934717    0.19357901602507877    0.21383215674955572    0.1720441879944493    
  0.19358426090101666    0.22016352772338557    0.2516761260307181    0.2872079115264807    0.32444107187517374    
  0.3588276793711866    0.3833308040183387    0.3904072562119799    0.3764867784864178    0.34566196457820336    
  0.30854369290169464    0.27694243423422793    0.2592328130167525    0.2592302398084496    0.2769345548256159    
  0.3085302513337444    0.345643162859295    0.37646379505131145    0.39038226263136383    0.38330635164584836    
  0.3588058789470224    0.32442311910585175    0.2871941126012407    0.251666189261586    0.22015685427026432    
  0.19358013478478153    0.172041891207236    0.15527223651550898    0.14296073885955113    0.13488948254320143    
  0.13090424623749095    0.13090425748189924    0.1348895908792849    0.14296116449588805    0.15527334311950658    
  0.1720441879944493    0.13740008467698964    0.15527770504742072    0.17802289257927945    0.20594737087178636    
  0.2389439443762105    0.27607673350983736    0.3149879551514562    0.3512257653523249    0.37840544925078246    
  0.39040725550410965    0.3850994921988491    0.36661683235499776    0.3437579374586372    0.3258025854151799    
  0.3190957693466712    0.32579624968190546    0.3437450934190182    0.366597564792432    0.3850747137940284    
  0.3903789484326109    0.37837628247339955    0.35119830109583067    0.314963987477552    0.27605709411516954    
  0.23892868611237775    0.20593606453318003    0.17801487216016015    0.15527223759863365    0.1373964917511407    
  0.12397519863650201    0.11466716204214318    0.10921340309808192    0.10742148476221941    0.10921400395952734    
  0.11466847599132678    0.12397746102271195    0.13740008467698964    0.10950799397502083    0.12398099807966308    
  0.14296895702657977    0.1669775834499176    0.1963841062386854    0.23113391897432287    0.2703384179302314    
  0.3117330640066422    0.3512257645370956    0.3833308025552793    0.4031685157702999    0.40923266908839856    
  0.4047145781726632    0.3960435049740721    0.38974823988001944    0.3897446094052287    0.3960325887103871    
  0.40469651674021767    0.40920824671637845    0.4031394894471986    0.38329972142411256    0.3511953178599982    
  0.3117053869335558    0.2703147519227674    0.2311146694680055    0.19636909270125588    0.1669662940645108    
  0.14296074064340883    0.12397519936310639    0.10950404531858293    0.09909728610550056    0.09240007912264783    
  0.08913567755897073    0.08913612798098672    0.09240148569563911    0.09909981730017414    0.10950799397502083    
  0.08763072004042993    0.09910263499218724    0.1146747220534231    0.1348997888809346    0.16037945806516804    
  0.1915745549822349    0.22850084364172848    0.27033841696682914    0.31498795337368063    0.35882767699646695    
  0.3972276725640522    0.42612088158373795    0.4439019738259868    0.4521937450943495    0.45472863213107634    
  0.45508911073606845    0.454720794236015    0.4521783374188497    0.4438797893061759    0.4260934933004774    
  0.39719737014737055    0.3587970048308309    0.3149591135364402    0.27031288595729264    0.22847932326207065    
  0.19155713781885314    0.16036584666834397    0.13488948466858416    0.11466716315971288    0.09909728651304767    
  0.08762712600599343    0.07980912208597896    0.07528804465631969    0.0738127476474172    0.07528907885160796    
  0.07981131505145538    0.08763072004042993    0.07090296536084684    0.07981351780116612    0.09240638365304939    
  0.10922204634929202    0.13091569215144658    0.15818729465245712    0.19157455404127788    0.23113391706997025    
  0.27607673078706263    0.32444106857751404    0.37299109010165843    0.41766471909724573    0.4546776435684714    
  0.481773877074159    0.4987278511201507    0.5066587812341717    0.5066548312815906    0.4987162583333298    
  0.4817554558462274    0.45465382779068986    0.4176374896294102    0.372962673841695    0.3244135096069532    
  0.2760515568789596    0.23111203025230456    0.19155630004732094    0.1581726071257993    0.13090424838248646    
  0.10921340430484865    0.09240007964670294    0.07980912220807321    0.07090011236445366    0.06523950017813569    
  0.06250078815871662    0.06250129823775882    0.06524109215473499    0.07090296536084684    0.05847507509434083    
  0.06524276566094697    0.07529282491780914    0.08914230234469622    0.10743032455366382    0.13091569137253592    
  0.16037945636214326    0.19638410359262395    0.23894394092921442    0.28720790753086783    0.33923019183261566    
  0.39192696754864825    0.4413909503756513    0.4836356747125043    0.5154846767291343    0.5350678927259731    
  0.5416440920504694    0.5350607866863226    0.5154711067312546    0.48361685001978794    0.44136850698386954    
  0.3919027499200575    0.3392059703826056    0.2871851242352485    0.23892357897441346    0.19636668453779949    
  0.1603651095245211    0.13090425938799374    0.10742148580980333    0.08913567795683847    0.075288044657511    
  0.06523950005370514    0.0584730560166864    0.054588394445816577    0.05332429640515355    0.0545893555984939    
  0.05847507509434083    0.049596076940725195    0.05459057114171152    0.0625040644696953    0.07381734256781756    
  0.08914230175014479    0.10922204500413048    0.1348997866595361    0.1669775803421547    0.205947367021623    
  0.2516761216930853    0.3031396638539269    0.358238403119555    0.4137401926397384    0.46549467899407615    
  0.5090323131786378    0.5403886210403701    0.5567615689320969    0.5567586893521169    0.5403802664452099    
  0.5090192784945635    0.4654781377694567    0.4137215413382942    0.3582190792594522    0.3031209467148799    
  0.25165897859275843    0.20593239245801032    0.16696501577242967    0.13488959236871223    0.1092140046630323    
  0.0891361280682086    0.07381274734311918    0.06250078772186651    0.05458839412761469    0.04959483610986705    
  0.04718433513615156    0.04718473802592915    0.049596076940725195    0.04366570190486779    0.04718555744153815    