#     DFTpy    
  CRYSTAL 
    
  PRIMVEC    
  4.384381299537251    1.8342626640000003e-05    -4.600000000000001e-13    
  -2.19217476458706    3.7969948663890403    -9.000000000000001e-12    
  -7.600000000000002e-13    -1.7520000000000005e-11    7.208604093568591    
  PRIMCOORD    
  4    1    
  Si    1.0914410650000001e-05    2.53133584579829    4.053930294232771    
  Si    2.1921956205344104    1.2656773631863303    0.4496281942184601    
  Si    1.0914412300000004e-05    2.5313358457972504    6.7589758461165905    
  Si    2.1921956205415203    1.2656773632144502    3.1546738525504607    
  BEGIN_BLOCK_DATAGRID_3D    
  3d_datagrid_density    
  BEGIN_DATAGRID_3D#0    
  46    46    73    
  0.0    0.0    0.0    
  4.384381315891077    1.834262670841835e-05    -4.600000017158088e-13    
  -2.192174772763914    3.7969948805519036    -9.000000033570173e-12    
  -7.600000028348146e-13    -1.752000006534994e-11    7.2086041204568225    
  0.016970861970347778    0.017305407451041338    0.01832788384024383    0.02009788943027813    0.022721238696397167    
  0.02635181126805662    0.03119019985661371    0.03748561483439227    0.04554351966026441    0.05572960145243547    
  0.06845299355865903    0.0841168024704931    0.10303927304044902    0.12536399457369637    0.1509811373267542    
  0.17946865159587436    0.21004371400336724    0.2415170777766111    0.27227886684470043    0.30037977898247886    
  0.3237492121113574    0.34050659509542264    0.3492528448941442    0.34925284426119196    0.34050659346397255    
  0.3237492101210537    0.3003797772921433    0.2722788658532591    0.2415170775647067    0.2100437144435319    
  0.1794686524959887    0.15098113851909392    0.12536399593671452    0.10303927447850042    0.08411680388676104    
  0.06845299485429472    0.055729602560502085    0.04554352058243126    0.03748561563649899    0.03119020061879467    
  0.026351812030069185    0.022721239437183054    0.02009789008466712    0.018327884330563017    0.017305407713588534    
  0.016970861970347778    0.017305407564735056    0.017305400159201696    0.017983941682435563    0.019380403638917836    
  0.021577568748318215    0.024705358696412917    0.02894178105201518    0.03451402470224108    0.04170325555088414    
  0.050849533014590935    0.06234486271136463    0.07660126037365096    0.09398893746465771    0.1147527602143098    
  0.13892519056225125    0.16625256148937684    0.19613736179909758    0.22758844764366978    0.2591875720365871    
  0.2891191111928025    0.315321511788663    0.33576325632786946    0.3487592647774378    0.3532161790117749    
  0.34875840564790705    0.3357616184592019    0.3153192369892296    0.289116379647071    0.2591845844738219    
  0.2275854075556053    0.19613445234501753    0.16624992359798732    0.13892291262961792    0.1147508807369219    
  0.0939874538842903    0.07660013924657233    0.062344051347267705    0.0508489725365383    0.0417028916600276    
  0.03451381184772291    0.028941680020574068    0.02470533260396089    0.021577582880092542    0.019380429766518558    
  0.017983962210545216    0.017305407564735056    0.01832788406102447    0.017983941793866757    0.01832785110798205    
  0.019380372799831576    0.02120441576570272    0.023907020517161096    0.02764291252308639    0.032619494229843775    
  0.0391017347586297    0.047413425156494965    0.05792992258113723    0.07105699381143095    0.08719010863069182    
  0.1066503199946042    0.12960014457702826    0.1559531324482949    0.18529344894572486    0.21681276789737064    
  0.24926793643337503    0.28098298133861616    0.3099450589768262    0.3340270178345498    0.3512970355027141    
  0.36031238628667484    0.36031149426761744    0.3512944487530224    0.33402298082456255    0.3099399200330961    
  0.2809771444946483    0.2492618220868976    0.21680676934957344    0.18528788613412664    0.15594822266183764    
  0.12959600185746908    0.10664697314587246    0.087187521621799    0.07105508390002734    0.05792858018449834    
  0.047412535431346985    0.03910119365634042    0.03261921287207832    0.027642812522383903    0.023907029757723863    
  0.021204471560094525    0.019380429627759762    0.01832788406102447    0.020097889747088427    0.019380403853309063    
  0.01938037290418167    0.020097804211507607    0.021577468952303405    0.023906940836976382    0.02721845677353202    
  0.03169762679244163    0.03759330911449548    0.04521893126327186    0.054941183840786716    0.06715968864544702    
  0.08227982441658893    0.10067086894383806    0.1225972059513574    0.14812252582059574    0.17700620224324298    
  0.20861651300467735    0.24187496848092724    0.2752437647536523    0.3067868864782859    0.33434312120336945    
  0.35580652018700204    0.36943838050041544    0.37411071744131663    0.3694356453309923    0.3558013325611314    
  0.33433597651110547    0.306778400670641    0.27523459647055487    0.24186575047723377    0.2086077821470994    
  0.17699834546719    0.14811576733189644    0.12259163281264251    0.10066646742879232    0.08227650723199417    
  0.06715731565454547    0.05493958623165791    0.04521793844275028    0.03759276777365302    0.031697405353719336    
  0.0272184405420117    0.023907029634395963    0.021577582636958324    0.020097889747088427    0.022721239098231975    
  0.021577569054776955    0.021204415961610365    0.021577469041024082    0.02272106363197385    0.02470513651100949    
  0.027642685146309576    0.031697465294678144    0.037098717483833775    0.044147628275977485    0.053205816620207215    
  0.06467246834601656    0.07896144637076731    0.09647443775424712    0.11754947642971852    0.14237024822010416    
  0.1708488625061132    0.2025151959970278    0.23644099803366353    0.2712137097107104    0.3049801019068712    
  0.33559201052759874    0.36086245180684473    0.37887413580352974    0.3882378981492648    0.3882359795693999    
  0.37886859213162166    0.3608538627431996    0.33558119276428466    0.3049679739322589    0.2712011806122516    
  0.23642886937086566    0.20250407949708282    0.1708391425842515    0.14236210307029373    0.11754293151289241    
  0.09646941339687173    0.07895778651713437    0.06466996348800531    0.05320423334939005    0.04414674082005623    
  0.03709832760885161    0.03169740523802781    0.027642812304044504    0.024705332304760012    0.022721239098231975    
  0.026351811750257973    0.024705359087909756    0.023907020792699556    0.023906940996257495    0.024705136574773447    
  0.026351499584557205    0.028941370285068577    0.03261903562572843    0.03759288514316981    0.04414734711083881    
  0.052635674320569745    0.0634572542446603    0.0770357879159157    0.09380022530169542    0.11414545327169028    
  0.13834841156268368    0.16644437555817682    0.19809725436084916    0.232500120520052    0.268330071582346    
  0.3037833817231421    0.33672518559144277    0.364959225781154    0.3865477654171182    0.4000571974049655    
  0.40464865901535246    0.4000523159832943    0.38653854505351437    0.3649466188269662    0.33671036448842645    
  0.3037675636522312    0.2683143748931694    0.23248544822642772    0.19808422233831968    0.16643331019809277    
  0.13833940686203386    0.11413844362197316    0.09379503870542188    0.07703217883146542    0.06345493395819111    
  0.05263434679849827    0.04414674068084013    0.03759276754187048    0.032619212580715436    0.02894167970803952    
  0.026351811750257973    0.031190200425923856    0.02894178153190833    0.027642912875395116    0.02721845699287273    
  0.027642685255003213    0.028941370321303367    0.03118969528230341    0.03451334697358929    0.03910094472825361    
  0.04521811977457336    0.05320510180515911    0.06345679338716805    0.07640277976388947    0.0924938295996529    
  0.11217138453934263    0.1357885919806213    0.1634809487130233    0.19501868841465966    0.22967924736875397    
  0.2661722424900975    0.30266340964915034    0.33695666843607164    0.3668409632441331    0.3904874022732793    
  0.4067006591209337    0.41489974197173407    0.41489671059595007    0.4066919084015526    0.39047388157203566    
  0.3668240267061767    0.33693783806997185    0.3026441620878477    0.2661538377510404    0.22966261190891932    
  0.19500437473743645    0.16346917587521317    0.13577933294896213    0.11216445222166166    0.09248893758329277    
  0.07639958477695362    0.06345493373822589    0.05320423301582623    0.045217938064576406    0.03910119328465978    
  0.03451381153446278    0.031190200425923856    0.03748561550711695    0.03451402528495433    0.032619494669117545    
  0.031697627076284186    0.03169746544615465    0.03261903568880349    0.034513346992673166    0.03748484796736546    
  0.04170221489573193    0.04741217824187782    0.05493982579778907    0.06467112784287901    0.0770346456845175    
  0.09249312221164006    0.11152206263616211    0.1345367219952674    0.1617576069917665    0.19304330551473176    
  0.2277270991428091    0.2644936148766243    0.3013713128226486    0.3359560269214162    0.36590209140556623    
  0.38950495912372807    0.40604197012134746    0.4156408693024804    0.41876086198865764    0.41563389898127007    
  0.406028784773966    0.3894869259019202    0.36588094728809256    0.3359336019984377    0.3013492749930634    
  0.2644732780214736    0.2277093261827829    0.1930285164067868    0.1617458653624966    0.1345278487274012    
  0.11151573353055771    0.09248893721964722    0.07703217827362975    0.06466996286757878    0.05493958563843319    
  0.047412534931330706    0.04170289131364742    0.03748561550711695    0.045543520450498164    0.04170325625172291    
  0.03910173530142358    0.03759330947938168    0.037098717693229775    0.037592885245501535    0.03910094477488695    
  0.04170221491851272    0.04554240162719908    0.05084800788162373    0.057928060946679995    0.0671575904864927    
  0.07895925862435246    0.09379815944031274    0.11216970631032916    0.1345357258611808    0.16118848111191475    
  0.1920652889567505    0.22654449215500438    0.2632542203128569    0.29999635190468843    0.3339851567397447    
  0.36252061023737775    0.3838761597729313    0.39786681889537817    0.40567176372564684    0.40898316242956745    
  0.4089792481456556    0.4056604174851963    0.3978491820143457    0.38385396440828473    0.3624959184301999    
  0.3339600344055602    0.29997256312087656    0.263233027865827    0.22652660455756804    0.19205093215564975    
  0.16117753241142924    0.13452784820094832    0.11216445135175888    0.09379503768751764    0.07895778550762315    
  0.06715731476195318    0.057928579485265114    0.050848972092752284    0.045543520450498164    0.05572960235747325    
  0.0508495338340992    0.047413425811082724    0.04521893172562163    0.044147628566016714    0.04414734727897799    
  0.045218119876777506    0.04741217831507469    0.05084800793063224    0.05572802074771098    0.06234270539235348    
  0.07105433388132114    0.08227677498718775    0.09647117511681824    0.11414222104016822    0.1357856754298747    
  0.16175531384941372    0.19206395784080835    0.2261421507601397    0.2625706720085779    0.29889669819818815    
  0.33182425731921356    0.35804702917302267    0.3755280563376051    0.38445992037284826    0.38716473349636565    
  0.38693325755967944    0.38650424639422326    0.3869251556317616    0.3871492500375641    0.3844384791697304    
  0.3755026644493904    0.3580199898859916    0.33179777202277305    0.2988725099268798    0.26254988366317855    
  0.2261252426950724    0.19205093154019037    0.1617458642282696    0.13577933150028848    0.1141384420810697    
  0.09646941194434402    0.08227650599249492    0.0710550829551806    0.06234405075305135    0.05572960235747325    
  0.06845299455604895    0.06234486362960878    0.0579299233391243    0.05494118440761355    0.05320581701244987    
  0.05263567458732103    0.05320510200322026    0.054939825965957964    0.057928061091284844    0.062342705488861984    
  0.06845082204737782    0.07659830894932475    0.08718646073196107    0.10066666299837035    0.11754492373822373    
  0.13834377882325105    0.16347652764090861    0.1930394152608158    0.22654150395622147    0.2625689944370953    
  0.29847138975809034    0.33042209834108105    0.35431422412709374    0.36744066400544617    0.37000594197937303    
  0.3652846169422751    0.35821033474312247    0.3533497533172277    0.3533457234763023    0.35819852380243644    
  0.36526591790731183    0.3699819407785538    0.36741354976999074    0.35428644048652164    0.33039585708064634    
  0.29844828658191064    0.26254988312154826    0.22652660339365363    0.19302851472509525    0.16346917390351015    
  0.13833940485064947    0.11754292966542894    0.10066646588233387    0.08718752045738357    0.07660013850669013    
  0.06845299455604895    0.08411680353125602    0.07660126136236803    0.0710569946558898    0.0671596893186499    
  0.06467246886335118    0.0634572546516138    0.06345679373692806    0.06467112817143258    0.06715759079783086    
  0.07105433414861262    0.07659830912195745    0.08411390679082989    0.0939850312399302    0.1066455062706667    
  0.12259165885662084    0.14236421172921063    0.16643812819173892    0.19501252613808123    0.22772136552411748    
  0.2632493334629355    0.2988931103667173    0.3304201966999348    0.3528687064069368    0.3625191023649564    
  0.3590655612312455    0.346290934796745    0.3305517972617125    0.31819821211114563    0.3135771960603836    
  0.3181908100112785    0.3305373659893778    0.3462704118132191    0.35904061628659023    0.36249202529783453    
  0.3528419595567266    0.3303958567527757    0.29887250906250046    0.263233026367865    0.22770932415586184    
  0.19500437243133176    0.166433307891508    0.1423621009872839    0.12259163109721077    0.10664697187198487    
  0.09398745307499667    0.08411680353125602    0.1030392741427449    0.09398893850392204    0.08719010955146268    
  0.08227982520431157    0.07896144704537636    0.0770357885204159    0.07640278034491838    0.07703464627007953    
  0.07895925921055705    0.08227677554027563    0.08718646119595919    0.0939850315333672    0.10303551949086573    
  0.11474774684620599    0.12959400816060893    0.14811548437232927    0.17084118909907245    0.19808923789608127    
  0.2296712013432934    0.26448592589623443    0.2999894925858327    0.3318187230829238    0.35431042766745774    
  0.3625172588570721    0.35501059347048364    0.33538363509640995    0.3109742081509265    0.28974629157601806    
  0.2776509311838997    0.2776477001740763    0.2897366662616133    0.3109585373637128    0.3353628625437256    
  0.35498644098003745    0.36249202509294387    0.35428644001767656    0.33179777108011455    0.2999725615660523    
  0.2644732759317072    0.22966260953984807    0.1980842199902308    0.17083914049608884    0.14811576564705484    
  0.12959600063562152    0.1147508799775938    0.1030392741427449    0.12536399569704132    0.11475276129205472    
  0.10665032099037071    0.10067086986118612    0.09647443862473962    0.09380022617110183    0.09249383050924231    
  0.0924931231783192    0.09379816044636373    0.09647117611491006    0.10066666392149035    0.10664550702979014    
  0.11474774731409615    0.12535924596043543    0.1389189312543568    0.1559455525050773    0.17699757169549768    
  0.20250581783171842    0.23249030323917147    0.2661623348443682    0.30136175515846314    0.3339764773877047    
  0.3580397755447066    0.36743529567425054    0.35906230527196215    0.33538232375078025    0.3039540292160318    
  0.27408661326744577    0.2533238315910341    0.24596408067282272    0.2533185404772101    0.27407605515494055    
  0.3039385304044638    0.33536286216974465    0.35904061578368157    0.36741354916867824    0.3580199889931603    
  0.3339600330205675    0.3013492731186762    0.2661538356067812    0.232485446109942    0.2025040776493285    
  0.1769983440214545    0.15594822165645802    0.13892291203867388    0.12536399569704132    0.15098113842629754    
  0.13892519165144332    0.1296001456358682    0.12259720700192374    0.11754947752001983    0.11414545445747167    
  0.11217138586258199    0.1115220641045702    0.11216970788912999    0.11414222266157659    0.11754492531625775    
  0.12259166028764737    0.1295940093075672    0.1389189319350447    0.15097525994874156    0.16624495392371869    
  0.18528437560858055    0.20860630103638442    0.23642998310994823    0.2683185937675247    0.302651866310624    
  0.33594491920056707    0.3625105346730721    0.3755196395518665    0.3699997091687041    0.3462871051812665    
  0.31097251264788095    0.2740862937118187    0.24480391576930557    0.22892973035500197    0.2289277008395011    
  0.24479778183023196    0.274076054524914    0.31095853636304416    0.3462704107717255    0.3699819398664727    
  0.37550266355637985    0.3624959173147778    0.3359336005492186    0.30264416042484804    0.26831437326220575    
  0.23642886798837454    0.20860778112371303    0.18528788548137365    0.16624992326530927    0.15098113842629754    
  0.17946865257592015    0.16625256251861223    0.1559531335180379    0.14812252696720954    0.14237024950846378    
  0.13834841306422566    0.13578859374685434    0.13453672403259034    0.13453572812074144    0.1357856778200496    
  0.13834378123106364    0.142364214026769    0.148115486403572    0.15594555407461758    0.1662449548107514    
  0.17946154636902453    0.1961283804372123    0.21680226047142315    0.24186331626691954    0.271201283942119    
  0.3037705678529678    0.3369439284864641    0.365890006395496    0.3838654231430122    0.3844512574077022    
  0.36527859034650095    0.3305485433065437    0.2897453731650799    0.25332434687222716    0.22893056633183853    
  0.2204414472338424    0.22892770013201091    0.25331853912281876    0.2897366645047756    0.3305373642240125    
  0.365265916470405    0.38443847811927684    0.38385396354006623    0.3658809463825201    0.3369378370908105    
  0.3037675627266655    0.27120117988918413    0.24186575002672886    0.2168067691527692    0.19613445233060356    
  0.17946865257592015    0.21004371471199626    0.1961373626391477    0.18529344991493826    0.1770062033860205    
  0.17084886390087806    0.1664443772942575    0.1634809508594423    0.16175760956507632    0.16118848405943273    
  0.16175531705981447    0.16347653097039685    0.16643813147834177    0.17084119215533347    0.1769975743005164    
  0.185284377524857    0.19612838145593636    0.2100353534936333    0.22757816982984388    0.24925617180445714    
  0.27523094215745975    0.304966638499041    0.33671153570882    0.3668276808821752    0.38949273442944254    
  0.39785645968763916    0.3871570342589167    0.3582058073762957    0.3181968144289197    0.27765201986819094    
  0.24596662905065322    0.22893056568022227    0.22892972901619688    0.24596407868810272    0.27764769774819603    
  0.3181908075508006    0.3581985217790353    0.3871492487202994    0.3978491813312793    0.3894869255870488    
  0.36682402655202573    0.3367103644449884    0.3049679740296929    0.27523459671460804    0.2492618224252218    
  0.2275854079021853    0.21004371471199626    0.24151707803737274    0.22758844812998733    0.21681276860934812    
  0.20861651398874803    0.20251519734008686    0.1980972561688571    0.19501869077846956    0.19304330847135343    
  0.1920652924638714    0.19206396178024474    0.19303941946352796    0.19501253040376818    0.19808924199378755    
  0.2025058214991863    0.208606304003695    0.21680226251301993    0.22757817082829787    0.24150751570721665    
  0.25917616589156084    0.280970228760492    0.30677326711934727    0.3355780123047346    0.36494540441379286    
  0.39047443232869505    0.4060306648799724    0.4056630199522424    0.38692785664081053    0.35334805273535275    
  0.31357892086291267    0.2776520192956222    0.2533243456906873    0.24480391397012    0.25332382920261975    
  0.2776509283593815    0.31357719316688626    0.3533457210446942    0.38692515411035144    0.405660416985579    
  0.40602878506738516    0.3904738823186518    0.3649466197792958    0.3355811937942417    0.30677840169541387    
  0.280977145424309    0.25918458521347215    0.24151707803737274    0.27227886653328365    0.2591875720405099    
  0.2492679367508963    0.2418749691549514    0.23644099915342656    0.23250012220338384    0.2296792497267956    
  0.22772710223676768    0.22654449596391166    0.22614215517621603    0.2265415088028793    0.2277213705729043    
  0.22967120631788374    0.23249030782338576    0.23642998698330783    0.2418633191690418    0.24925617360795402    
  0.2591761666584227    0.27226821708678955    0.2891068036564102    0.3099316522789138    0.33432916404967267    
  0.3608485335824864    0.38653456789725127    0.40668898532377673    0.4156316336544395    0.4089772844014671    
  0.38650240116892115    0.3533480523039223    0.3181968134515455    0.2897453716525244    0.27408629169582055    
  0.27408661077947927    0.28974628872254254    0.31819820918937936    0.3533497508395792    0.38650424490543817    
  0.4089792479231123    0.4156338998918929    0.4066919100448389    0.3865385470147692    0.3608538647287224    
  0.33433597833541084    0.3099399215644052    0.28911638078469    0.27227886653328365    0.30037977813164324    
  0.28911911072797747    0.28098298125106097    0.27524376507596815    0.27121371052544285    0.26833007300854017    
  0.26617224464828726    0.26449361784367303    0.2632542240879955    0.2625706765063531    0.26256899949896806    
  0.26324933886353236    0.2644859313380597    0.26616233996558475    0.2683185981889793    0.27120128735031773    
  0.2752309443947475    0.2809702298901093    0.28910680397749733    0.30036819525416936    0.31530857029174136    
  0.3340133424690891    0.3557927494782608    0.3788609774608777    0.40004545869194297    0.4148903308656954    
  0.4187547413068141    0.4089772843039658    0.3869278561254604    0.35820580634035276    0.3305485417982353    
  0.31097251074724686    0.3039540269772585    0.3109742056519314    0.3305517947256265    0.358210332614032    
  0.3869332563926128    0.4089831626050443    0.4187608634826258    0.41489671301802067    0.40005231881883824    
  0.3788685949525366    0.3558013350844667    0.33402298287545207    0.3153192384606569    0.30037977813164324    
  0.3237492109816942    0.3153215110901354    0.3099450586888242    0.30678688661363024    0.3049801025263292    
  0.303783382926176    0.3026634115405064    0.30137131546856744    0.29999635530401275    0.298896702283469    
  0.29847139441031606    0.29889311541095015    0.29998949776331185    0.30136176011357385    0.3026518706334166    
  0.30377057117710554    0.3049666406171127    0.3067732680692907    0.3099316523663235    0.31530857003234325    
  0.32373688651058863    0.33574998377882814    0.3512835090350089    0.369425334340368    0.3882261495841362    
  0.40463911251381685    0.41489033122658786    0.41563163396698966    0.40566301989881565    0.38715703371274535    
  0.3652785893487996    0.34628710383525435    0.33538232213677455    0.33538363328490933    0.34629093295483016    
  0.3652846154342257    0.3871647328341971    0.4056717643290676    0.4156408712390331    0.41489974491009207    
  0.40464866241799496    0.38823598293169176    0.36943564829769043    0.35129445111092167    0.33576162009209026    
  0.3237492109816942    0.3405065941265672    0.3357632558139025    0.3340270177416102    0.3343431215135476    
  0.335592011257553    0.3367251867873425    0.33695667014419556    0.3359560291511565    0.3339851594484552    
  0.3318242604333873    0.33042210178747533    0.33042020039956843    0.33181872689740394    0.3339764810662108    
  0.3359449223888717    0.3369439308154554    0.3367115369275401    0.33557801239912205    0.33432916329224627    
  0.3340133413691123    0.3357499829481355    0.3404937580511346    0.3487459820853741    0.36029941288217265    
  0.37409886845841006    0.388226150294343    0.4000454598258159    0.40668898652755464    0.4060306658402499    
  0.3978564602254098    0.38445125749579817    0.3699997088686399    0.3590623046544448    0.3550105926004947    
  0.35906556024423397    0.37000594117902524    0.38445992021774333    0.39786681980853805    0.4060419722394087    
  0.40670066219696455    0.40005720094224256    0.3882379016298348    0.37411072047435    0.36031149661258405    
  0.3487584071767367    0.3405065941265672    0.3492528445120302    0.3487592648623946    0.3512970360121518    
  0.35580652106478633    0.36086245300038666    0.3649592272398201    0.366840964898151    0.36590209314533617    
  0.36252061192480967    0.35804703069479843    0.35431422545079394    0.35286870757949546    0.3543104287402641    
  0.35803977647836616    0.36251053529497845    0.3658900064456079    0.3668276801311622    0.3649454028019763    
  0.36084853131093253    0.35579274699463753    0.35128350690950105    0.34874598084315633    0.3492397500580936    
  0.3532031924916627    0.36029941375472185    0.36942533595449445    0.37886097958968673    0.38653457024908805    
  0.39047443461199893    0.3894927364196288    0.38386542471535345    0.37551964066528304    0.3674352963298327    
  0.3625172590852175    0.3625191022764935    0.3674406638681171    0.3755280565719074    0.38387616079803044    
  0.389504961131305    0.39048740510920454    0.3865477686652202    0.37887413898323075    0.3694383832220861    
  0.36031238829760737    0.3532161801722616    0.3492528445120302    0.3492528446433057    0.3532161798677864    
  0.36031238757422723    0.36943838212727037    0.37887413763115846    0.3865477672571704    0.3904874038785628    
  0.38950496019727676    0.3838761600252252    0.3755280555876972    0.36744066226464067    0.36251909983030606    
  0.36251725580814836    0.3674352923427151    0.3755196360403821    0.3838654194236788    0.38949273041449045    
  0.39047442798741405    0.38653456336733366    0.3788609730829447    0.3694253305772392    0.36029941016705735    
  0.3532031911006872    0.34923975097086957    0.34874598387491057    0.3512835115915594    0.35579275261899285    
  0.36084853706992714    0.3649454079910878    0.3668276843089726    0.36589000947222516    0.362510537249725    
  0.358039777520754    0.35431042900512877    0.352868707178073    0.3543142245698759    0.35804702968172614    
  0.3625206112283198    0.3659020931154606    0.3668409656073641    0.3649592284774428    0.36086245442308507    
  0.3558065223633461    0.3512970369907467    0.34875926543074154    0.3492528446433057    0.3405065944328278    
  0.3487584070891636    0.36031149614783936    0.3741107196463815    0.3882379004599899    0.4000571994778253    
  0.4067006604868265    0.406041970234924    0.3978668172620174    0.38445991672280827    0.3700059363862678    
  0.3590655540805453    0.3550105852963142    0.35906229657950434    0.36999970033831225    0.38445124868616926    
  0.3978564512269896    0.4060306568010445    0.4066889777910095    0.40004545195926394    0.3882261439643636    
  0.37409886422389926    0.3602994110396066    0.34874598263269263    0.340493760715995    0.3357499872114321    
  0.33401334650480474    0.3343291684816173    0.33557801690503586    0.3367115402448555    0.33694393273016326    
  0.33594492293904743    0.33397648044334916    0.33181872535005213    0.330420198200325    0.3304220992739153    
  0.3318242580466672    0.3339851576661447    0.33595602831235305    0.33695667029835663    0.33672518769604654    
  0.3355920125387761    0.33434312280810435    0.3340270188038835    0.3357632565183363    0.3405065944328278    
  0.3237492112507168    0.33576162004228444    0.35129445077008997    0.36943564766844333    0.3882359819606433    
  0.4046486609877608    0.4148997428337105    0.41564086822589524    0.4056717599577492    0.38716472664048335    
  0.36528460713919825    0.3462909226627541    0.3353836214591491    0.3353823093810272    0.3462870906763925    
  0.3652785761589453    0.3871570207687047    0.4056630075100954    0.41563162258642494    0.4148903214542721    
  0.40463910496063255    0.38822614467457034    0.3694253321913657    0.35128350946605164    0.33574998638073955    
  0.32373689068889056    0.31530857504059706    0.30993165739400547    0.30677327238465735    0.30496664369647963    
  0.303770572762676    0.3026518707139425    0.3013617588567479    0.2999894954417689    0.2988931123638901    
  0.29847139105162357    0.29889669910497757    0.2999963527988559    0.30137131397551287    0.3026634111156842    
  0.3037833833481319    0.3049801034268348    0.3067868876329538    0.30994505956811974    0.31532151168817635    
  0.3237492112507168    0.3003797781429788    0.3153192382498732    0.3340229824922452    0.35580133454584906    
  0.37886859417173413    0.4000523175499888    0.414896710839233    0.4187608598162696    0.40898315678665514    
  0.3869332478403323    0.3582103210901694    0.3305517805144858    0.31097418946632427    0.30395400965410524    
  0.3109724929857033    0.33054852410166075    0.35820578912683343    0.3869278398885165    0.40897726971074416    
  0.4187547291425231    0.41489032181516455    0.40004545309313666    0.3788609752117536    0.3557927501353694    
  0.3340133454048277    0.3153085747811989    0.300368200503897    0.28910680918301396    0.280970234345312    
  0.2752309475963359    0.2712012890424558    0.268318598343014    0.266162338722659    0.2644859289502001    
  0.2632493356637699    0.2625689959041612    0.26257067300863657    0.26325422117593494    0.2644936158591427    
  0.2661722436713016    0.2683300728597527    0.2712137108804616    0.2752437656058625    0.2809829817120878    
  0.2891191109850149    0.3003797781429788    0.27227886616467584    0.2891163803009747    0.3099399210469427    
  0.3343359778364629    0.3608538641751114    0.38653854610383126    0.40669190818549217    0.41563389623698116    