
     Program PWSCF v.6.5 starts on 27Jun2023 at 21:58:59 

     This program is part of the open-source Quantum ESPRESSO suite
     for quantum simulation of materials; please cite
         "P. Giannozzi et al., J. Phys.:Condens. Matter 21 395502 (2009);
         "P. Giannozzi et al., J. Phys.:Condens. Matter 29 465901 (2017);
          URL http://www.quantum-espresso.org", 
     in publications or presentations arising from this work. More details at
     http://www.quantum-espresso.org/quote

     Serial version
     Reading input from /home/valeria/Documents/DFTPY/cWT-KEDF/Phases/Model_ML_function/Ks_calculations/DATA_dhcp/Si_dhcp11.in
Warning: card &IONS ignored
Warning: card / ignored
Warning: card &CELL ignored
Warning: card / ignored
Warning: card &FCP ignored
Warning: card / ignored
Warning: card &RISM ignored
Warning: card / ignored

     Current dimensions of program PWSCF are:
     Max number of different atomic species (ntypx) = 10
     Max number of k-points (npk) =  40000
     Max angular momentum in pseudopotentials (lmaxx) =  3

     WARNING: check_stop already initialized
     Message from routine setup:
     using ibrav=0 with symmetry is DISCOURAGED, use correct ibrav instead

     G-vector sticks info
     --------------------
     sticks:   dense  smooth     PW     G-vecs:    dense   smooth      PW
     Sum         913     913    283                36035    36035    6159



     bravais-lattice index     =            0
     lattice parameter (alat)  =       7.3923  a.u.
     unit-cell volume          =     575.1837 (a.u.)^3
     number of atoms/cell      =            4
     number of atomic types    =            1
     number of electrons       =        16.00
     number of Kohn-Sham states=           12
     kinetic-energy cutoff     =      60.0000  Ry
     charge density cutoff     =     240.0000  Ry
     convergence threshold     =      1.0E-06
     mixing beta               =       0.7000
     number of iterations used =            8  plain     mixing
     Exchange-correlation= LDA
                           (   1   1   0   0   0   0   0)

     celldm(1)=   7.392256  celldm(2)=   0.000000  celldm(3)=   0.000000
     celldm(4)=   0.000000  celldm(5)=   0.000000  celldm(6)=   0.000000

     crystal axes: (cart. coord. in units of alat)
               a(1) = (   1.000000   0.000004  -0.000000 )  
               a(2) = (  -0.499996   0.866028  -0.000000 )  
               a(3) = (  -0.000000  -0.000000   1.644155 )  

     reciprocal axes: (cart. coord. in units 2 pi/alat)
               b(1) = (  0.999998  0.577343  0.000000 )  
               b(2) = ( -0.000005  1.154695  0.000000 )  
               b(3) = (  0.000000  0.000000  0.608215 )  


     PseudoPot. # 1 for Si read from file:
     /home/valeria/Desktop/programs/dftpy/examples/ofpp/EAC/upf/blps/si.lda.upf
     MD5 check sum: 946fc5a8d23174f015515f8139e499ed
     Pseudo is Norm-conserving, Zval =  4.0
     DFTpy
     Using radial grid of 1601 points,  1 beta functions with: 
                l(1) =   0

     atomic species   valence    mass     pseudopotential
        Si             4.00    28.08000     Si( 1.00)

      8 Sym. Ops., with inversion, found ( 4 have fractional translation)



   Cartesian axes

     site n.     atom                  positions (alat units)
         1           Si  tau(   1) = (   0.0000025   0.5773530   0.9246300  )
         2           Si  tau(   2) = (   0.5000011   0.2886787   0.1025523  )
         3           Si  tau(   3) = (   0.0000025   0.5773530   1.5416031  )
         4           Si  tau(   4) = (   0.5000011   0.2886787   0.7195254  )

     number of k points=  1100  Gaussian smearing, width (Ry)=  0.0050

     Number of k-points >= 100: set verbosity='high' to print them.

     Dense  grid:    36035 G-vectors     FFT dimensions: (  40,  40,  60)

     Estimated max dynamical RAM per process >     938.67 MB

     Initial potential from superposition of free atoms

     starting charge   15.99744, renormalised to   16.00000
     Starting wfcs are random

     total cpu time spent up to now is       70.0 secs

     Self-consistent Calculation

     iteration #  1     ecut=    60.00 Ry     beta= 0.70
     Davidson diagonalization with overlap
     ethr =  1.00E-02,  avg # of iterations =  7.4

     Threshold (ethr) on eigenvalues was too large:
     Diagonalizing with lowered threshold

     Davidson diagonalization with overlap
     ethr =  5.27E-04,  avg # of iterations =  1.1

     total cpu time spent up to now is      759.0 secs

     total energy              =     -32.22919121 Ry
     Harris-Foulkes estimate   =     -32.25186581 Ry
     estimated scf accuracy    <       0.08480971 Ry

     iteration #  2     ecut=    60.00 Ry     beta= 0.70
     Davidson diagonalization with overlap
     ethr =  5.30E-04,  avg # of iterations =  1.0

     total cpu time spent up to now is      903.3 secs

     total energy              =     -32.23178508 Ry
     Harris-Foulkes estimate   =     -32.23246991 Ry
     estimated scf accuracy    <       0.00397884 Ry

     iteration #  3     ecut=    60.00 Ry     beta= 0.70
     Davidson diagonalization with overlap
     ethr =  2.49E-05,  avg # of iterations =  3.1

     total cpu time spent up to now is     1069.4 secs

     total energy              =     -32.23206773 Ry
     Harris-Foulkes estimate   =     -32.23207822 Ry
     estimated scf accuracy    <       0.00004470 Ry

     iteration #  4     ecut=    60.00 Ry     beta= 0.70
     Davidson diagonalization with overlap
     ethr =  2.79E-07,  avg # of iterations =  4.2

     total cpu time spent up to now is     1316.0 secs

     total energy              =     -32.23209611 Ry
     Harris-Foulkes estimate   =     -32.23209688 Ry
     estimated scf accuracy    <       0.00000154 Ry

     iteration #  5     ecut=    60.00 Ry     beta= 0.70
     Davidson diagonalization with overlap
     ethr =  9.64E-09,  avg # of iterations =  2.0

     total cpu time spent up to now is     1502.0 secs

     End of self-consistent calculation

     Number of k-points >= 100: set verbosity='high' to print the bands.

     the Fermi energy is     5.8138 ev

!    total energy              =     -32.23209635 Ry
     Harris-Foulkes estimate   =     -32.23209646 Ry
     estimated scf accuracy    <       0.00000020 Ry

     The total energy is the sum of the following terms:

     one-electron contribution =       7.75453957 Ry
     hartree contribution      =       2.31834095 Ry
     xc contribution           =      -9.44889878 Ry
     ewald contribution        =     -32.85606766 Ry
     smearing contrib. (-TS)   =      -0.00001042 Ry

     convergence has been achieved in   5 iterations

 Energies determined by pw2casino tool
 -------------------------------------
 Kinetic energy      5.8202894135403609       au  =     11.640578827080722       Ry
 Local energy       -1.9430196272215783       au  =    -3.8860392544431566       Ry
 Non-Local energy    0.0000000000000000       au  =     0.0000000000000000       Ry
 Ewald energy       -16.428033831499690       au  =    -32.856067662999379       Ry
 xc contribution    -4.7244493913425707       au  =    -9.4488987826851414       Ry
 hartree energy      1.1591704757485317       au  =     2.3183409514970634       Ry
 Smearing (-TS)     -5.2114936382115219E-006  au  =    -1.0422987276423044E-005  Ry
 Total energy       -16.116048173840774       au  =    -32.232096347681548       Ry
 -------------------------------------
 Total energy0      -16.116048172268584       au  =    -32.232096344537169       Ry
 External energy0    0.0000000000000000       au  =     0.0000000000000000       Ry
 -------------------------------------


     Writing output data file ./si.save/
