
     Program PWSCF v.6.5 starts on 27Jun2023 at 18:11:14 

     This program is part of the open-source Quantum ESPRESSO suite
     for quantum simulation of materials; please cite
         "P. Giannozzi et al., J. Phys.:Condens. Matter 21 395502 (2009);
         "P. Giannozzi et al., J. Phys.:Condens. Matter 29 465901 (2017);
          URL http://www.quantum-espresso.org", 
     in publications or presentations arising from this work. More details at
     http://www.quantum-espresso.org/quote

     Serial version
     Reading input from /home/valeria/Documents/DFTPY/cWT-KEDF/Phases/Model_ML_function/Ks_calculations/DATA_dhcp/Si_dhcp1.in
Warning: card &IONS ignored
Warning: card / ignored
Warning: card &CELL ignored
Warning: card / ignored
Warning: card &FCP ignored
Warning: card / ignored
Warning: card &RISM ignored
Warning: card / ignored

     Current dimensions of program PWSCF are:
     Max number of different atomic species (ntypx) = 10
     Max number of k-points (npk) =  40000
     Max angular momentum in pseudopotentials (lmaxx) =  3

     WARNING: check_stop already initialized
     Message from routine setup:
     using ibrav=0 with symmetry is DISCOURAGED, use correct ibrav instead

     G-vector sticks info
     --------------------
     sticks:   dense  smooth     PW     G-vecs:    dense   smooth      PW
     Sum         583     583    187                18413    18413    3369



     bravais-lattice index     =            0
     lattice parameter (alat)  =       5.9039  a.u.
     unit-cell volume          =     293.0142 (a.u.)^3
     number of atoms/cell      =            4
     number of atomic types    =            1
     number of electrons       =        16.00
     number of Kohn-Sham states=           12
     kinetic-energy cutoff     =      60.0000  Ry
     charge density cutoff     =     240.0000  Ry
     convergence threshold     =      1.0E-06
     mixing beta               =       0.7000
     number of iterations used =            8  plain     mixing
     Exchange-correlation= LDA
                           (   1   1   0   0   0   0   0)

     celldm(1)=   5.903882  celldm(2)=   0.000000  celldm(3)=   0.000000
     celldm(4)=   0.000000  celldm(5)=   0.000000  celldm(6)=   0.000000

     crystal axes: (cart. coord. in units of alat)
               a(1) = (   1.000000   0.000004  -0.000000 )  
               a(2) = (  -0.499996   0.866028  -0.000000 )  
               a(3) = (  -0.000000  -0.000000   1.644155 )  

     reciprocal axes: (cart. coord. in units 2 pi/alat)
               b(1) = (  0.999998  0.577343  0.000000 )  
               b(2) = ( -0.000005  1.154695  0.000000 )  
               b(3) = (  0.000000  0.000000  0.608215 )  


     PseudoPot. # 1 for Si read from file:
     /home/valeria/Desktop/programs/dftpy/examples/ofpp/EAC/upf/blps/si.lda.upf
     MD5 check sum: 946fc5a8d23174f015515f8139e499ed
     Pseudo is Norm-conserving, Zval =  4.0
     DFTpy
     Using radial grid of 1601 points,  1 beta functions with: 
                l(1) =   0

     atomic species   valence    mass     pseudopotential
        Si             4.00    28.08000     Si( 1.00)

      8 Sym. Ops., with inversion, found ( 4 have fractional translation)



   Cartesian axes

     site n.     atom                  positions (alat units)
         1           Si  tau(   1) = (   0.0000025   0.5773530   0.9246300  )
         2           Si  tau(   2) = (   0.5000011   0.2886787   0.1025523  )
         3           Si  tau(   3) = (   0.0000025   0.5773530   1.5416031  )
         4           Si  tau(   4) = (   0.5000011   0.2886787   0.7195254  )

     number of k points=  1100  Gaussian smearing, width (Ry)=  0.0050

     Number of k-points >= 100: set verbosity='high' to print them.

     Dense  grid:    18413 G-vectors     FFT dimensions: (  30,  30,  48)

     Estimated max dynamical RAM per process >     477.96 MB

     Initial potential from superposition of free atoms

     starting charge   15.99744, renormalised to   16.00000
     Starting wfcs are random

     total cpu time spent up to now is       62.2 secs

     Self-consistent Calculation

     iteration #  1     ecut=    60.00 Ry     beta= 0.70
     Davidson diagonalization with overlap
     ethr =  1.00E-02,  avg # of iterations =  7.3

     Threshold (ethr) on eigenvalues was too large:
     Diagonalizing with lowered threshold

     Davidson diagonalization with overlap
     ethr =  8.45E-04,  avg # of iterations =  1.0

     total cpu time spent up to now is      575.2 secs

     total energy              =     -31.27961988 Ry
     Harris-Foulkes estimate   =     -31.32866640 Ry
     estimated scf accuracy    <       0.13640170 Ry

     iteration #  2     ecut=    60.00 Ry     beta= 0.70
     Davidson diagonalization with overlap
     ethr =  8.53E-04,  avg # of iterations =  1.0

     total cpu time spent up to now is      699.2 secs

     total energy              =     -31.28999854 Ry
     Harris-Foulkes estimate   =     -31.28992739 Ry
     estimated scf accuracy    <       0.00354999 Ry

     iteration #  3     ecut=    60.00 Ry     beta= 0.70
     Davidson diagonalization with overlap
     ethr =  2.22E-05,  avg # of iterations =  3.0

     total cpu time spent up to now is      855.1 secs

     total energy              =     -31.29047363 Ry
     Harris-Foulkes estimate   =     -31.29047089 Ry
     estimated scf accuracy    <       0.00012479 Ry

     iteration #  4     ecut=    60.00 Ry     beta= 0.70
     Davidson diagonalization with overlap
     ethr =  7.80E-07,  avg # of iterations =  2.7

     total cpu time spent up to now is     1010.6 secs

     End of self-consistent calculation

     Number of k-points >= 100: set verbosity='high' to print the bands.

     the Fermi energy is    14.4229 ev

!    total energy              =     -31.29048784 Ry
     Harris-Foulkes estimate   =     -31.29048772 Ry
     estimated scf accuracy    <       0.00000095 Ry

     The total energy is the sum of the following terms:

     one-electron contribution =      19.76667591 Ry
     hartree contribution      =       1.12954276 Ry
     xc contribution           =     -11.04750620 Ry
     ewald contribution        =     -41.13910993 Ry
     smearing contrib. (-TS)   =      -0.00009039 Ry

     convergence has been achieved in   4 iterations

 Energies determined by pw2casino tool
 -------------------------------------
 Kinetic energy      7.9209747315946082       au  =     15.841949463189216       Ry
 Local energy        1.9623632247875447       au  =     3.9247264495750893       Ry
 Non-Local energy    0.0000000000000000       au  =     0.0000000000000000       Ry
 Ewald energy       -20.569554964108413       au  =    -41.139109928216826       Ry
 xc contribution    -5.5237530980888030       au  =    -11.047506196177606       Ry
 hartree energy     0.56477138007220085       au  =     1.1295427601444017       Ry
 Smearing (-TS)     -4.5196069053468278E-005  au  =    -9.0392138106936556E-005  Ry
 Total energy       -15.645243921868909       au  =    -31.290487843737818       Ry
 -------------------------------------
 Total energy0      -15.645243921811915       au  =    -31.290487843623829       Ry
 External energy0    0.0000000000000000       au  =     0.0000000000000000       Ry
 -------------------------------------


     Writing output data file ./si.save/
