
     Program PWSCF v.6.5 starts on 28Jun2023 at 12:31: 8 

     This program is part of the open-source Quantum ESPRESSO suite
     for quantum simulation of materials; please cite
         "P. Giannozzi et al., J. Phys.:Condens. Matter 21 395502 (2009);
         "P. Giannozzi et al., J. Phys.:Condens. Matter 29 465901 (2017);
          URL http://www.quantum-espresso.org", 
     in publications or presentations arising from this work. More details at
     http://www.quantum-espresso.org/quote

     Serial version
     Reading input from /home/valeria/Documents/DFTPY/cWT-KEDF/Phases/Model_ML_function/Ks_calculations/DATA_dhcp/Si_dhcp21.in
Warning: card &IONS ignored
Warning: card / ignored
Warning: card &CELL ignored
Warning: card / ignored
Warning: card &FCP ignored
Warning: card / ignored
Warning: card &RISM ignored
Warning: card / ignored

     Current dimensions of program PWSCF are:
     Max number of different atomic species (ntypx) = 10
     Max number of k-points (npk) =  40000
     Max angular momentum in pseudopotentials (lmaxx) =  3

     WARNING: check_stop already initialized
     Message from routine setup:
     using ibrav=0 with symmetry is DISCOURAGED, use correct ibrav instead

     G-vector sticks info
     --------------------
     sticks:   dense  smooth     PW     G-vecs:    dense   smooth      PW
     Sum        1285    1285    379                62593    62593   10101



     bravais-lattice index     =            0
     lattice parameter (alat)  =       8.8806  a.u.
     unit-cell volume          =     997.2564 (a.u.)^3
     number of atoms/cell      =            4
     number of atomic types    =            1
     number of electrons       =        16.00
     number of Kohn-Sham states=           12
     kinetic-energy cutoff     =      60.0000  Ry
     charge density cutoff     =     240.0000  Ry
     convergence threshold     =      1.0E-06
     mixing beta               =       0.7000
     number of iterations used =            8  plain     mixing
     Exchange-correlation= LDA
                           (   1   1   0   0   0   0   0)

     celldm(1)=   8.880629  celldm(2)=   0.000000  celldm(3)=   0.000000
     celldm(4)=   0.000000  celldm(5)=   0.000000  celldm(6)=   0.000000

     crystal axes: (cart. coord. in units of alat)
               a(1) = (   1.000000   0.000004  -0.000000 )  
               a(2) = (  -0.499996   0.866028  -0.000000 )  
               a(3) = (  -0.000000  -0.000000   1.644155 )  

     reciprocal axes: (cart. coord. in units 2 pi/alat)
               b(1) = (  0.999998  0.577343  0.000000 )  
               b(2) = ( -0.000005  1.154695  0.000000 )  
               b(3) = (  0.000000  0.000000  0.608215 )  


     PseudoPot. # 1 for Si read from file:
     /home/valeria/Desktop/programs/dftpy/examples/ofpp/EAC/upf/blps/si.lda.upf
     MD5 check sum: 946fc5a8d23174f015515f8139e499ed
     Pseudo is Norm-conserving, Zval =  4.0
     DFTpy
     Using radial grid of 1601 points,  1 beta functions with: 
                l(1) =   0

     atomic species   valence    mass     pseudopotential
        Si             4.00    28.08000     Si( 1.00)

      8 Sym. Ops., with inversion, found ( 4 have fractional translation)



   Cartesian axes

     site n.     atom                  positions (alat units)
         1           Si  tau(   1) = (   0.0000025   0.5773530   0.9246300  )
         2           Si  tau(   2) = (   0.5000011   0.2886787   0.1025523  )
         3           Si  tau(   3) = (   0.0000025   0.5773530   1.5416031  )
         4           Si  tau(   4) = (   0.5000011   0.2886787   0.7195254  )

     number of k points=  1100  Gaussian smearing, width (Ry)=  0.0050

     Number of k-points >= 100: set verbosity='high' to print them.

     Dense  grid:    62593 G-vectors     FFT dimensions: (  45,  45,  80)

     Estimated max dynamical RAM per process >       1.59 GB

     Initial potential from superposition of free atoms

     starting charge   15.99744, renormalised to   16.00000
     Starting wfcs are random

     total cpu time spent up to now is       98.6 secs

     Self-consistent Calculation

     iteration #  1     ecut=    60.00 Ry     beta= 0.70
     Davidson diagonalization with overlap
     ethr =  1.00E-02,  avg # of iterations =  7.5

     Threshold (ethr) on eigenvalues was too large:
     Diagonalizing with lowered threshold

     Davidson diagonalization with overlap
     ethr =  2.13E-04,  avg # of iterations =  2.1

     total cpu time spent up to now is     1059.0 secs

     total energy              =     -31.86211742 Ry
     Harris-Foulkes estimate   =     -31.86725993 Ry
     estimated scf accuracy    <       0.03413953 Ry

     iteration #  2     ecut=    60.00 Ry     beta= 0.70
     Davidson diagonalization with overlap
     ethr =  2.13E-04,  avg # of iterations =  1.0

     total cpu time spent up to now is     1279.7 secs

     total energy              =     -31.86203145 Ry
     Harris-Foulkes estimate   =     -31.86246797 Ry
     estimated scf accuracy    <       0.00240570 Ry

     iteration #  3     ecut=    60.00 Ry     beta= 0.70
     Davidson diagonalization with overlap
     ethr =  1.50E-05,  avg # of iterations =  4.3

     total cpu time spent up to now is     1539.3 secs

     total energy              =     -31.86213597 Ry
     Harris-Foulkes estimate   =     -31.86213641 Ry
     estimated scf accuracy    <       0.00000257 Ry

     iteration #  4     ecut=    60.00 Ry     beta= 0.70
     Davidson diagonalization with overlap
     c_bands:  1 eigenvalues not converged
     c_bands:  1 eigenvalues not converged
     c_bands:  1 eigenvalues not converged
     c_bands:  1 eigenvalues not converged
     c_bands:  1 eigenvalues not converged
     c_bands:  1 eigenvalues not converged
     c_bands:  1 eigenvalues not converged
     c_bands:  1 eigenvalues not converged
     c_bands:  1 eigenvalues not converged
     c_bands:  1 eigenvalues not converged
     c_bands:  1 eigenvalues not converged
     c_bands:  1 eigenvalues not converged
     c_bands:  1 eigenvalues not converged
     c_bands:  1 eigenvalues not converged
     c_bands:  1 eigenvalues not converged
     c_bands:  1 eigenvalues not converged
     c_bands:  1 eigenvalues not converged
     c_bands:  1 eigenvalues not converged
     ethr =  1.61E-08,  avg # of iterations =  5.4

     total cpu time spent up to now is     1997.3 secs

     End of self-consistent calculation

     Number of k-points >= 100: set verbosity='high' to print the bands.

     the Fermi energy is     1.2419 ev

!    total energy              =     -31.86215655 Ry
     Harris-Foulkes estimate   =     -31.86215673 Ry
     estimated scf accuracy    <       0.00000059 Ry

     The total energy is the sum of the following terms:

     one-electron contribution =       0.51381930 Ry
     hartree contribution      =       3.48671075 Ry
     xc contribution           =      -8.51307658 Ry
     ewald contribution        =     -27.34946414 Ry
     smearing contrib. (-TS)   =      -0.00014587 Ry

     convergence has been achieved in   4 iterations

 Energies determined by pw2casino tool
 -------------------------------------
 Kinetic energy      4.9581249150150501       au  =     9.9162498300301003       Ry
 Local energy       -4.7012152613001037       au  =    -9.4024305226002074       Ry
 Non-Local energy    0.0000000000000000       au  =     0.0000000000000000       Ry
 Ewald energy       -13.674732072463261       au  =    -27.349464144926522       Ry
 xc contribution    -4.2565382908575993       au  =    -8.5130765817151985       Ry
 hartree energy      1.7433553747155361       au  =     3.4867107494310723       Ry
 Smearing (-TS)     -7.2937002780880299E-005  au  =    -1.4587400556176060E-004  Ry
 Total energy       -15.931078274232236       au  =    -31.862156548464473       Ry
 -------------------------------------
 Total energy0      -15.931078271893158       au  =    -31.862156543786316       Ry
 External energy0    0.0000000000000000       au  =     0.0000000000000000       Ry
 -------------------------------------


     Writing output data file ./si.save/
