
     Program PWSCF v.6.5 starts on 27Jun2023 at 20: 4:40 

     This program is part of the open-source Quantum ESPRESSO suite
     for quantum simulation of materials; please cite
         "P. Giannozzi et al., J. Phys.:Condens. Matter 21 395502 (2009);
         "P. Giannozzi et al., J. Phys.:Condens. Matter 29 465901 (2017);
          URL http://www.quantum-espresso.org", 
     in publications or presentations arising from this work. More details at
     http://www.quantum-espresso.org/quote

     Serial version
     Reading input from /home/valeria/Documents/DFTPY/cWT-KEDF/Phases/Model_ML_function/Ks_calculations/DATA_dhcp/Si_dhcp7.in
Warning: card &IONS ignored
Warning: card / ignored
Warning: card &CELL ignored
Warning: card / ignored
Warning: card &FCP ignored
Warning: card / ignored
Warning: card &RISM ignored
Warning: card / ignored

     Current dimensions of program PWSCF are:
     Max number of different atomic species (ntypx) = 10
     Max number of k-points (npk) =  40000
     Max angular momentum in pseudopotentials (lmaxx) =  3

     WARNING: check_stop already initialized
     Message from routine setup:
     using ibrav=0 with symmetry is DISCOURAGED, use correct ibrav instead

     G-vector sticks info
     --------------------
     sticks:   dense  smooth     PW     G-vecs:    dense   smooth      PW
     Sum         757     757    241                28087    28087    4927



     bravais-lattice index     =            0
     lattice parameter (alat)  =       6.7969  a.u.
     unit-cell volume          =     447.1049 (a.u.)^3
     number of atoms/cell      =            4
     number of atomic types    =            1
     number of electrons       =        16.00
     number of Kohn-Sham states=           12
     kinetic-energy cutoff     =      60.0000  Ry
     charge density cutoff     =     240.0000  Ry
     convergence threshold     =      1.0E-06
     mixing beta               =       0.7000
     number of iterations used =            8  plain     mixing
     Exchange-correlation= LDA
                           (   1   1   0   0   0   0   0)

     celldm(1)=   6.796906  celldm(2)=   0.000000  celldm(3)=   0.000000
     celldm(4)=   0.000000  celldm(5)=   0.000000  celldm(6)=   0.000000

     crystal axes: (cart. coord. in units of alat)
               a(1) = (   1.000000   0.000004  -0.000000 )  
               a(2) = (  -0.499996   0.866028  -0.000000 )  
               a(3) = (  -0.000000  -0.000000   1.644155 )  

     reciprocal axes: (cart. coord. in units 2 pi/alat)
               b(1) = (  0.999998  0.577343  0.000000 )  
               b(2) = ( -0.000005  1.154695  0.000000 )  
               b(3) = (  0.000000  0.000000  0.608215 )  


     PseudoPot. # 1 for Si read from file:
     /home/valeria/Desktop/programs/dftpy/examples/ofpp/EAC/upf/blps/si.lda.upf
     MD5 check sum: 946fc5a8d23174f015515f8139e499ed
     Pseudo is Norm-conserving, Zval =  4.0
     DFTpy
     Using radial grid of 1601 points,  1 beta functions with: 
                l(1) =   0

     atomic species   valence    mass     pseudopotential
        Si             4.00    28.08000     Si( 1.00)

      8 Sym. Ops., with inversion, found ( 4 have fractional translation)



   Cartesian axes

     site n.     atom                  positions (alat units)
         1           Si  tau(   1) = (   0.0000025   0.5773530   0.9246300  )
         2           Si  tau(   2) = (   0.5000011   0.2886787   0.1025523  )
         3           Si  tau(   3) = (   0.0000025   0.5773530   1.5416031  )
         4           Si  tau(   4) = (   0.5000011   0.2886787   0.7195254  )

     number of k points=  1100  Gaussian smearing, width (Ry)=  0.0050

     Number of k-points >= 100: set verbosity='high' to print them.

     Dense  grid:    28087 G-vectors     FFT dimensions: (  36,  36,  60)

     Estimated max dynamical RAM per process >     729.95 MB

     Initial potential from superposition of free atoms

     starting charge   15.99744, renormalised to   16.00000
     Starting wfcs are random

     total cpu time spent up to now is       83.1 secs

     Self-consistent Calculation

     iteration #  1     ecut=    60.00 Ry     beta= 0.70
     Davidson diagonalization with overlap
     ethr =  1.00E-02,  avg # of iterations =  7.4

     Threshold (ethr) on eigenvalues was too large:
     Diagonalizing with lowered threshold

     Davidson diagonalization with overlap
     ethr =  7.21E-04,  avg # of iterations =  1.0

     total cpu time spent up to now is      895.6 secs

     total energy              =     -32.18039128 Ry
     Harris-Foulkes estimate   =     -32.21819883 Ry
     estimated scf accuracy    <       0.11621356 Ry

     iteration #  2     ecut=    60.00 Ry     beta= 0.70
     Davidson diagonalization with overlap
     ethr =  7.26E-04,  avg # of iterations =  1.0

     total cpu time spent up to now is     1088.2 secs

     total energy              =     -32.18665008 Ry
     Harris-Foulkes estimate   =     -32.18711818 Ry
     estimated scf accuracy    <       0.00396735 Ry

     iteration #  3     ecut=    60.00 Ry     beta= 0.70
     Davidson diagonalization with overlap
     ethr =  2.48E-05,  avg # of iterations =  3.0

     total cpu time spent up to now is     1301.3 secs

     total energy              =     -32.18706241 Ry
     Harris-Foulkes estimate   =     -32.18707566 Ry
     estimated scf accuracy    <       0.00008929 Ry

     iteration #  4     ecut=    60.00 Ry     beta= 0.70
     Davidson diagonalization with overlap
     ethr =  5.58E-07,  avg # of iterations =  3.5

     total cpu time spent up to now is     1560.8 secs

     End of self-consistent calculation

     Number of k-points >= 100: set verbosity='high' to print the bands.

     the Fermi energy is     8.5784 ev

!    total energy              =     -32.18708001 Ry
     Harris-Foulkes estimate   =     -32.18708015 Ry
     estimated scf accuracy    <       0.00000075 Ry

     The total energy is the sum of the following terms:

     one-electron contribution =      11.67964004 Ry
     hartree contribution      =       1.86400935 Ry
     xc contribution           =      -9.99670818 Ry
     ewald contribution        =     -35.73397140 Ry
     smearing contrib. (-TS)   =      -0.00004982 Ry

     convergence has been achieved in   4 iterations

 Energies determined by pw2casino tool
 -------------------------------------
 Kinetic energy      6.4728318823835131       au  =     12.945663764767026       Ry
 Local energy      -0.63301186326740033       au  =    -1.2660237265348007       Ry
 Non-Local energy    0.0000000000000000       au  =     0.0000000000000000       Ry
 Ewald energy       -17.866985699235656       au  =    -35.733971398471311       Ry
 xc contribution    -4.9983540912286237       au  =    -9.9967081824572475       Ry
 hartree energy     0.93200467634384543       au  =     1.8640093526876909       Ry
 Smearing (-TS)     -2.4911024327484481E-005  au  =    -4.9822048654968961E-005  Ry
 Total energy       -16.093540007030448       au  =    -32.187080014060896       Ry
 -------------------------------------
 Total energy0      -16.093540006028647       au  =    -32.187080012057294       Ry
 External energy0    0.0000000000000000       au  =     0.0000000000000000       Ry
 -------------------------------------


     Writing output data file ./si.save/
