#     DFTpy    
  CRYSTAL 
    
  PRIMVEC    
  2.6637249004024803    -1.4635000000000002e-10    2.7740000000000005e-10    
  -1.4635000000000002e-10    2.6637249002477006    1.3366000000000003e-10    
  5.069100000000001e-10    2.4429000000000004e-10    4.879995642208541    
  PRIMCOORD    
  4    1    
  Si    1.3318624501504905    1.3318624508568202    1.4995945985887302    
  Si    4.938900000000001e-10    -4.570900000000001e-10    0.9404032208751201    
  Si    7.575000000000002e-11    3.4521000000000004e-10    3.939592418565451    
  Si    1.33186245054982    1.3318624498450002    3.3804010467988412    
  BEGIN_BLOCK_DATAGRID_3D    
  3d_datagrid_density    
  BEGIN_DATAGRID_3D#0    
  26    26    46    
  0.0    0.0    0.0    
  2.663724910338225    -1.463500005458883e-10    2.7740000103470735e-10    
  -1.463500005458883e-10    2.6637249101834453    1.3366000049855438e-10    
  5.069100018907841e-10    2.442900009112064e-10    4.8799956604110175    
  0.9478001862447398    0.9333205998014218    0.8909936371930683    0.8243451701790802    0.7394797702468813    
  0.6445109782112167    0.5481349709735964    0.4579959037211832    0.37961968645282823    0.3161958303084221    
  0.26898485218009505    0.23800013456891095    0.22272618181390588    0.22272618181390588    0.23800013456891095    
  0.26898485218009505    0.3161958303084221    0.37961968645282823    0.4579959037211832    0.5481349709735964    
  0.6445109782112167    0.7394797702468813    0.8243451701790802    0.8909936371930683    0.9333205998014218    
  0.9478001862447398    0.9333205998014218    0.9191055543602776    0.8775780773301651    0.8122556830349897    
  0.7291667120115183    0.6362524793907741    0.5419733240274237    0.45374837711360433    0.3769528982702659    
  0.31471832849054365    0.2683196269223607    0.2378235876427752    0.22277461634886508    0.22277461634886508    
  0.2378235876427752    0.2683196269223607    0.31471832849054365    0.3769528982702659    0.45374837711360433    
  0.5419733240274237    0.6362524793907741    0.7291667120115183    0.8122556830349897    0.8775780773301651    
  0.9191055543602776    0.9333205998014218    0.8909936371930683    0.8775780773301651    0.838449342214799    
  0.777060903347917    0.6991821106462238    0.6122416323577985    0.5240308322823106    0.44134244515109955    
  0.3691321678933175    0.31036439931915993    0.2663471926272713    0.23729183988747635    0.22290894183616994    
  0.22290894183616994    0.23729183988747635    0.2663471926272713    0.31036439931915993    0.3691321678933175    
  0.44134244515109955    0.5240308322823106    0.6122416323577985    0.6991821106462238    0.777060903347917    
  0.838449342214799    0.8775780773301651    0.8909936371930683    0.8243451701790804    0.8122556830349896    
  0.7770609033479171    0.7220090372621334    0.6523678587324775    0.5747372992554003    0.49591158588341305    
  0.421781135060887    0.3566962816258689    0.30336532275155426    0.2631231597502098    0.23637548406957615    
  0.22306811288066627    0.22306811288066627    0.23637548406957615    0.2631231597502098    0.30336532275155426    
  0.3566962816258689    0.421781135060887    0.49591158588341305    0.5747372992554003    0.6523678587324775    
  0.7220090372621334    0.7770609033479171    0.8122556830349896    0.8243451701790804    0.7394797702468813    
  0.7291667120115182    0.6991821106462238    0.6523678587324774    0.593226730093745    0.5272807763517505    
  0.46013980560792894    0.39666664517787653    0.3405197513575466    0.2940906952268482    0.25870978055313    
  0.23497649931462458    0.22308987609298822    0.22308987609298822    0.23497649931462458    0.25870978055313    
  0.2940906952268482    0.3405197513575466    0.39666664517787653    0.46013980560792894    0.5272807763517505    
  0.593226730093745    0.6523678587324774    0.6991821106462238    0.7291667120115182    0.7394797702468813    
  0.644510978211217    0.6362524793907741    0.6122416323577986    0.5747372992554003    0.5272807763517505    
  0.47418129261540776    0.41981405759540424    0.3680114763528131    0.32173434752027363    0.2830284714831652    
  0.2531766234917368    0.23293039753379402    0.2227098455933319    0.2227098455933319    0.23293039753379402    
  0.2531766234917368    0.2830284714831652    0.32173434752027363    0.3680114763528131    0.41981405759540424    
  0.47418129261540776    0.5272807763517505    0.5747372992554003    0.6122416323577986    0.6362524793907741    
  0.644510978211217    0.5481349709735964    0.5419733240274238    0.5240308322823107    0.49591158588341305    
  0.46013980560792894    0.4198140575954044    0.3781305022360819    0.33795962563707976    0.3016066578256811    
  0.27077208962487104    0.24665380083577165    0.23009222206836016    0.2216595241090498    0.2216595241090498    
  0.23009222206836016    0.24665380083577165    0.27077208962487104    0.3016066578256811    0.33795962563707976    
  0.3781305022360819    0.4198140575954044    0.46013980560792894    0.49591158588341305    0.5240308322823107    
  0.5419733240274238    0.5481349709735964    0.4579959037211835    0.45374837711360433    0.44134244515109966    
  0.42178113506088716    0.39666664517787675    0.3680114763528133    0.3379596256370797    0.30852267580846016    
  0.2814160786192415    0.25801815462663763    0.23941761046991383    0.22647531179994362    0.21982849974831434    
  0.21982849974831434    0.22647531179994362    0.23941761046991383    0.25801815462663763    0.2814160786192415    
  0.30852267580846016    0.3379596256370797    0.3680114763528133    0.39666664517787675    0.42178113506088716    
  0.44134244515109966    0.45374837711360433    0.4579959037211835    0.37961968645282845    0.37695289827026607    
  0.3691321678933177    0.35669628162586886    0.34051975135754675    0.3217343475202738    0.301606657825681    
  0.2814160786192416    0.26236892240022336    0.24555703839567436    0.23194418139809966    0.2223463500261214    
  0.2173788819288314    0.2173788819288314    0.2223463500261214    0.23194418139809966    0.24555703839567436    
  0.26236892240022336    0.2814160786192416    0.301606657825681    0.3217343475202738    0.34051975135754675    
  0.35669628162586886    0.3691321678933177    0.37695289827026607    0.37961968645282845    0.31619583030842197    
  0.3147183284905437    0.31036439931915977    0.30336532275155403    0.2940906952268483    0.2830284714831651    
  0.2707720896248709    0.2580181546266375    0.2455570383956742    0.234233559082107    0.22487325962229573    
  0.2181919172793012    0.21471348205861052    0.21471348205861052    0.2181919172793012    0.22487325962229573    
  0.234233559082107    0.2455570383956742    0.2580181546266375    0.2707720896248709    0.2830284714831651    
  0.2940906952268483    0.30336532275155403    0.31036439931915977    0.3147183284905437    0.31619583030842197    
  0.268984852180095    0.2683196269223607    0.2663471926272712    0.2631231597502095    0.25870978055312976    
  0.25317662349173675    0.24665380083577138    0.23941761046991342    0.23194418139809947    0.22487325962229582    
  0.21888646509022608    0.21456690197926542    0.2123111886737888    0.2123111886737888    0.21456690197926542    
  0.21888646509022608    0.22487325962229582    0.23194418139809947    0.23941761046991342    0.24665380083577138    
  0.25317662349173675    0.25870978055312976    0.2631231597502095    0.2663471926272712    0.2683196269223607    
  0.268984852180095    0.23800013456891086    0.2378235876427752    0.23729183988747635    0.236375484069576    
  0.2349764993146247    0.23293039753379408    0.23009222206836033    0.2264753117999434    0.22234635002612121    
  0.2181919172793012    0.21456690197926542    0.21192748633271286    0.21055019636539943    0.21055019636539943    
  0.21192748633271286    0.21456690197926542    0.2181919172793012    0.22234635002612121    0.2264753117999434    
  0.23009222206836033    0.23293039753379408    0.2349764993146247    0.236375484069576    0.23729183988747635    
  0.2378235876427752    0.23800013456891086    0.222726181813906    0.2227746163488652    0.22290894183617008    
  0.22306811288066627    0.22308987609298836    0.2227098455933321    0.2216595241090498    0.21982849974831428    
  0.2173788819288314    0.21471348205861077    0.21231118867378887    0.21055019636539962    0.20963472148351708    
  0.20963472148351708    0.21055019636539962    0.21231118867378887    0.21471348205861077    0.2173788819288314    
  0.21982849974831428    0.2216595241090498    0.2227098455933321    0.22308987609298836    0.22306811288066627    
  0.22290894183617008    0.2227746163488652    0.222726181813906    0.222726181813906    0.2227746163488652    
  0.22290894183617008    0.22306811288066627    0.22308987609298836    0.2227098455933321    0.2216595241090498    
  0.21982849974831428    0.2173788819288314    0.21471348205861077    0.21231118867378887    0.21055019636539962    
  0.20963472148351708    0.20963472148351708    0.21055019636539962    0.21231118867378887    0.21471348205861077    
  0.2173788819288314    0.21982849974831428    0.2216595241090498    0.2227098455933321    0.22308987609298836    
  0.22306811288066627    0.22290894183617008    0.2227746163488652    0.222726181813906    0.23800013456891086    
  0.2378235876427752    0.23729183988747635    0.236375484069576    0.2349764993146247    0.23293039753379408    
  0.23009222206836033    0.2264753117999434    0.22234635002612121    0.2181919172793012    0.21456690197926542    
  0.21192748633271286    0.21055019636539943    0.21055019636539943    0.21192748633271286    0.21456690197926542    
  0.2181919172793012    0.22234635002612121    0.2264753117999434    0.23009222206836033    0.23293039753379408    
  0.2349764993146247    0.236375484069576    0.23729183988747635    0.2378235876427752    0.23800013456891086    
  0.268984852180095    0.2683196269223607    0.2663471926272712    0.2631231597502095    0.25870978055312976    
  0.25317662349173675    0.24665380083577138    0.23941761046991342    0.23194418139809947    0.22487325962229582    
  0.21888646509022608    0.21456690197926542    0.2123111886737888    0.2123111886737888    0.21456690197926542    
  0.21888646509022608    0.22487325962229582    0.23194418139809947    0.23941761046991342    0.24665380083577138    
  0.25317662349173675    0.25870978055312976    0.2631231597502095    0.2663471926272712    0.2683196269223607    
  0.268984852180095    0.31619583030842197    0.3147183284905437    0.31036439931915977    0.30336532275155403    
  0.2940906952268483    0.2830284714831651    0.2707720896248709    0.2580181546266375    0.2455570383956742    
  0.234233559082107    0.22487325962229573    0.2181919172793012    0.21471348205861052    0.21471348205861052    
  0.2181919172793012    0.22487325962229573    0.234233559082107    0.2455570383956742    0.2580181546266375    
  0.2707720896248709    0.2830284714831651    0.2940906952268483    0.30336532275155403    0.31036439931915977    
  0.3147183284905437    0.31619583030842197    0.37961968645282845    0.37695289827026607    0.3691321678933177    
  0.35669628162586886    0.34051975135754675    0.3217343475202738    0.301606657825681    0.2814160786192416    
  0.26236892240022336    0.24555703839567436    0.23194418139809966    0.2223463500261214    0.2173788819288314    
  0.2173788819288314    0.2223463500261214    0.23194418139809966    0.24555703839567436    0.26236892240022336    
  0.2814160786192416    0.301606657825681    0.3217343475202738    0.34051975135754675    0.35669628162586886    
  0.3691321678933177    0.37695289827026607    0.37961968645282845    0.4579959037211835    0.45374837711360433    
  0.44134244515109966    0.42178113506088716    0.39666664517787675    0.3680114763528133    0.3379596256370797    
  0.30852267580846016    0.2814160786192415    0.25801815462663763    0.23941761046991383    0.22647531179994362    
  0.21982849974831434    0.21982849974831434    0.22647531179994362    0.23941761046991383    0.25801815462663763    
  0.2814160786192415    0.30852267580846016    0.3379596256370797    0.3680114763528133    0.39666664517787675    
  0.42178113506088716    0.44134244515109966    0.45374837711360433    0.4579959037211835    0.5481349709735964    
  0.5419733240274238    0.5240308322823107    0.49591158588341305    0.46013980560792894    0.4198140575954044    
  0.3781305022360819    0.33795962563707976    0.3016066578256811    0.27077208962487104    0.24665380083577165    
  0.23009222206836016    0.2216595241090498    0.2216595241090498    0.23009222206836016    0.24665380083577165    
  0.27077208962487104    0.3016066578256811    0.33795962563707976    0.3781305022360819    0.4198140575954044    
  0.46013980560792894    0.49591158588341305    0.5240308322823107    0.5419733240274238    0.5481349709735964    
  0.644510978211217    0.6362524793907741    0.6122416323577986    0.5747372992554003    0.5272807763517505    
  0.47418129261540776    0.41981405759540424    0.3680114763528131    0.32173434752027363    0.2830284714831652    
  0.2531766234917368    0.23293039753379402    0.2227098455933319    0.2227098455933319    0.23293039753379402    
  0.2531766234917368    0.2830284714831652    0.32173434752027363    0.3680114763528131    0.41981405759540424    
  0.47418129261540776    0.5272807763517505    0.5747372992554003    0.6122416323577986    0.6362524793907741    
  0.644510978211217    0.7394797702468813    0.7291667120115182    0.6991821106462238    0.6523678587324774    
  0.593226730093745    0.5272807763517505    0.46013980560792894    0.39666664517787653    0.3405197513575466    
  0.2940906952268482    0.25870978055313    0.23497649931462458    0.22308987609298822    0.22308987609298822    
  0.23497649931462458    0.25870978055313    0.2940906952268482    0.3405197513575466    0.39666664517787653    
  0.46013980560792894    0.5272807763517505    0.593226730093745    0.6523678587324774    0.6991821106462238    
  0.7291667120115182    0.7394797702468813    0.8243451701790804    0.8122556830349896    0.7770609033479171    
  0.7220090372621334    0.6523678587324775    0.5747372992554003    0.49591158588341305    0.421781135060887    
  0.3566962816258689    0.30336532275155426    0.2631231597502098    0.23637548406957615    0.22306811288066627    
  0.22306811288066627    0.23637548406957615    0.2631231597502098    0.30336532275155426    0.3566962816258689    
  0.421781135060887    0.49591158588341305    0.5747372992554003    0.6523678587324775    0.7220090372621334    
  0.7770609033479171    0.8122556830349896    0.8243451701790804    0.8909936371930683    0.8775780773301651    
  0.838449342214799    0.777060903347917    0.6991821106462238    0.6122416323577985    0.5240308322823106    
  0.44134244515109955    0.3691321678933175    0.31036439931915993    0.2663471926272713    0.23729183988747635    
  0.22290894183616994    0.22290894183616994    0.23729183988747635    0.2663471926272713    0.31036439931915993    
  0.3691321678933175    0.44134244515109955    0.5240308322823106    0.6122416323577985    0.6991821106462238    
  0.777060903347917    0.838449342214799    0.8775780773301651    0.8909936371930683    0.9333205998014218    
  0.9191055543602776    0.8775780773301651    0.8122556830349897    0.7291667120115183    0.6362524793907741    
  0.5419733240274237    0.45374837711360433    0.3769528982702659    0.31471832849054365    0.2683196269223607    
  0.2378235876427752    0.22277461634886508    0.22277461634886508    0.2378235876427752    0.2683196269223607    
  0.31471832849054365    0.3769528982702659    0.45374837711360433    0.5419733240274237    0.6362524793907741    
  0.7291667120115183    0.8122556830349897    0.8775780773301651    0.9191055543602776    0.9333205998014218    
  0.9478001862447398    0.9333205998014218    0.8909936371930683    0.8243451701790802    0.7394797702468813    
  0.6445109782112167    0.5481349709735964    0.4579959037211832    0.37961968645282823    0.3161958303084221    
  0.26898485218009505    0.23800013456891095    0.22272618181390588    0.22272618181390588    0.23800013456891095    
  0.26898485218009505    0.3161958303084221    0.37961968645282823    0.4579959037211832    0.5481349709735964    
  0.6445109782112167    0.7394797702468813    0.8243451701790802    0.8909936371930683    0.9333205998014218    
  0.9478001862447398    0.9135555024023625    0.9011367897773573    0.8643526304656218    0.8051101256943042    
  0.727660593271378    0.6387934750897019    0.546742654041562    0.4593486863194282    0.3825684896235472    
  0.3199790924625306    0.27313112192525063    0.24225854701407662    0.22700124012299025    0.22700124012299025    
  0.24225854701407662    0.27313112192525063    0.3199790924625306    0.3825684896235472    0.4593486863194282    
  0.546742654041562    0.6387934750897019    0.727660593271378    0.8051101256943042    0.8643526304656218    
  0.9011367897773573    0.9135555024023625    0.9011367897773573    0.8888802328266342    0.8526180031441707    
  0.7943262330713072    0.7182738873676054    0.6311503135673329    0.5409808748057117    0.4553690479058479    
  0.3800935325571759    0.31865043324751496    0.27259193819673216    0.24219807202549148    0.22716274868861033    
  0.22716274868861033    0.24219807202549148    0.27259193819673216    0.31865043324751496    0.3800935325571759    
  0.4553690479058479    0.5409808748057117    0.6311503135673329    0.7182738873676054    0.7943262330713072    
  0.8526180031441709    0.8888802328266342    0.9011367897773573    0.864352630465622    0.8526180031441707    
  0.8180041342448376    0.7626363959064274    0.6907793957191812    0.608800907012038    0.5241259905692641    
  0.4436970437025891    0.37280042021497584    0.31470641578683706    0.27096721562196424    0.24198741574370494    
  0.22761050335504152    0.22761050335504152    0.24198741574370494    0.27096721562196424    0.31470641578683706    
  0.37280042021497584    0.4436970437025891    0.5241259905692641    0.608800907012038    0.6907793957191812    
  0.7626363959064274    0.8180041342448376    0.8526180031441707    0.864352630465622    0.8051101256943043    
  0.7943262330713072    0.7626363959064274    0.7122572446941572    0.6472961574405584    0.5735397669752749    
  0.49749636013300796    0.4251550752304894    0.361103815320495    0.3082850340648999    0.2682368409745728    
  0.24153063351773846    0.22822050023075166    0.22822050023075172    0.24153063351773846    0.2682368409745728    
  0.3082850340648999    0.361103815320495    0.42515507523048934    0.49749636013300796    0.5735397669752749    
  0.6472961574405584    0.7122572446941572    0.7626363959064274    0.7943262330713072    0.8051101256943043    
  0.7276605932713778    0.7182738873676053    0.6907793957191812    0.6472961574405584    0.5915136236925432    
  0.528377425638883    0.4632786034023134    0.40112453687068844    0.3457255486666967    0.2996443458756693    
  0.26437598644401084    0.2406549462757305    0.22876012190817305    0.22876012190817305    0.2406549462757305    
  0.26437598644401084    0.2996443458756693    0.3457255486666967    0.40112453687068844    0.4632786034023134    
  0.528377425638883    0.5915136236925432    0.6472961574405584    0.6907793957191812    0.7182738873676053    
  0.7276605932713778    0.638793475089702    0.6311503135673329    0.6088009070120382    0.5735397669752749    
  0.528377425638883    0.4772311247410078    0.42430456818353524    0.3734326234459133    0.32766707149627766    
  0.28917951913970447    0.2593840271041647    0.23913588222864396    0.22890786342466232    0.22890786342466232    
  0.2391358822286439    0.2593840271041647    0.28917951913970447    0.32766707149627766    0.3734326234459133    
  0.42430456818353524    0.4772311247410078    0.528377425638883    0.5735397669752749    0.6088009070120382    
  0.6311503135673329    0.638793475089702    0.546742654041562    0.5409808748057117    0.5241259905692642    
  0.49749636013300796    0.4632786034023135    0.42430456818353546    0.3836338514107278    0.34411800354927446    
  0.3081182852793129    0.27742889140695165    0.2533472848747878    0.23678751034906975    0.22835363017826354    
  0.22835363017826354    0.23678751034906975    0.2533472848747878    0.27742889140695165    0.3081182852793129    
  0.34411800354927446    0.3836338514107278    0.42430456818353546    0.4632786034023136    0.49749636013300796    
  0.5241259905692642    0.5409808748057117    0.546742654041562    0.45934868631942843    0.4553690479058479    
  0.44369704370258917    0.4251550752304895    0.4011245368706886    0.3734326234459134    0.3441180035492744    
  0.3151695025682957    0.2883388883169099    0.2650700946709922    0.24651913732921374    0.23359457320954588    
  0.22695466014555288    0.22695466014555288    0.23359457320954588    0.2465191373292138    0.2650700946709922    
  0.2883388883169099    0.3151695025682957    0.3441180035492744    0.3734326234459134    0.40112453687068866    
  0.4251550752304895    0.44369704370258917    0.4553690479058479    0.45934868631942843    0.38256848962354745    
  0.38009353255717604    0.372800420214976    0.36110381532049496    0.34572554866669675    0.3276670714962778    
  0.3081182852793129    0.28833888831691007    0.2695553678499108    0.25289670804473696    0.2393638039362668    
  0.22980222704093567    0.2248476197989719    0.2248476197989719    0.22980222704093567    0.2393638039362668    
  0.25289670804473696    0.2695553678499108    0.28833888831691007    0.3081182852793129    0.3276670714962778    
  0.34572554866669675    0.36110381532049496    0.372800420214976    0.38009353255717604    0.38256848962354745    
  0.3199790924625304    0.318650433247515    0.3147064157868369    0.3082850340648995    0.29964434587566935    
  0.28917951913970436    0.27742889140695154    0.265070094670992    0.25289670804473685    0.2417649629770615    
  0.23251522871699612    0.2258841437634954    0.2224213032277855    0.2224213032277855    0.2258841437634954    
  0.23251522871699612    0.2417649629770615    0.2528967080447368    0.265070094670992    0.2774288914069516    
  0.28917951913970436    0.29964434587566935    0.3082850340648995    0.3147064157868369    0.318650433247515    
  0.3199790924625304    0.27313112192525063    0.27259193819673216    0.2709672156219641    0.26823684097457257    
  0.26437598644401067    0.25938402710416464    0.2533472848747876    0.24651913732921332    0.2393638039362666    
  0.23251522871699623    0.22665889967652883    0.2223974170784059    0.2201584586050041    0.2201584586050041    
  0.2223974170784059    0.22665889967652883    0.23251522871699623    0.2393638039362666    0.24651913732921332    
  0.2533472848747876    0.25938402710416464    0.26437598644401067    0.2682368409745725    0.2709672156219641    
  0.27259193819673216    0.27313112192525063    0.24225854701407654    0.24219807202549154    0.24198741574370494    
  0.2415306335177383    0.24065494627573064    0.239135882228644    0.2367875103490699    0.2335945732095456    
  0.22980222704093553    0.2258841437634954    0.2223974170784059    0.21981958928907774    0.21846033960710817    
  0.21846033960710823    0.2198195892890778    0.22239741707840588    0.22588414376349536    0.22980222704093553    
  0.2335945732095456    0.2367875103490699    0.23913588222864396    0.24065494627573064    0.2415306335177383    
  0.24198741574370494    0.24219807202549154    0.24225854701407654    0.22700124012299036    0.22716274868861047    
  0.2276105033550417    0.2282205002307516    0.2287601219081732    0.22890786342466246    0.22835363017826354    
  0.22695466014555285    0.2248476197989719    0.22242130322778572    0.2201584586050042    0.21846033960710842    
  0.21756411160015898    0.21756411160015898    0.21846033960710837    0.2201584586050042    0.22242130322778572    
  0.2248476197989719    0.2269546601455528    0.22835363017826354    0.22890786342466246    0.2287601219081732    
  0.2282205002307516    0.2276105033550417    0.22716274868861047    0.22700124012299036    0.22700124012299036    
  0.22716274868861047    0.2276105033550417    0.2282205002307516    0.2287601219081732    0.22890786342466246    
  0.22835363017826354    0.22695466014555285    0.2248476197989719    0.22242130322778572    0.2201584586050042    
  0.21846033960710842    0.21756411160015898    0.21756411160015898    0.21846033960710837    0.2201584586050042    
  0.22242130322778578    0.2248476197989719    0.2269546601455528    0.22835363017826354    0.22890786342466246    
  0.2287601219081732    0.2282205002307516    0.2276105033550417    0.22716274868861047    0.22700124012299036    
  0.24225854701407654    0.24219807202549154    0.24198741574370494    0.2415306335177383    0.24065494627573064    
  0.23913588222864396    0.2367875103490699    0.2335945732095456    0.22980222704093553    0.2258841437634954    
  0.2223974170784059    0.21981958928907774    0.21846033960710823    0.21846033960710823    0.21981958928907774    
  0.22239741707840588    0.22588414376349536    0.22980222704093553    0.2335945732095456    0.2367875103490699    
  0.23913588222864396    0.24065494627573064    0.2415306335177383    0.24198741574370494    0.24219807202549154    
  0.24225854701407654    0.27313112192525063    0.27259193819673216    0.2709672156219641    0.26823684097457257    
  0.26437598644401067    0.25938402710416464    0.2533472848747876    0.24651913732921332    0.2393638039362666    
  0.23251522871699623    0.22665889967652883    0.2223974170784059    0.2201584586050041    0.22015845860500416    
  0.2223974170784059    0.22665889967652883    0.23251522871699623    0.2393638039362666    0.24651913732921332    
  0.2533472848747876    0.25938402710416464    0.26437598644401067    0.2682368409745725    0.2709672156219641    
  0.27259193819673216    0.27313112192525063    0.3199790924625304    0.318650433247515    0.3147064157868369    
  0.3082850340648995    0.29964434587566935    0.28917951913970436    0.27742889140695154    0.265070094670992    
  0.2528967080447368    0.2417649629770615    0.23251522871699612    0.22588414376349536    0.2224213032277855    
  0.2224213032277855    0.22588414376349536    0.23251522871699612    0.2417649629770615    0.2528967080447368    
  0.265070094670992    0.2774288914069516    0.28917951913970436    0.29964434587566935    0.3082850340648995    
  0.3147064157868369    0.318650433247515    0.3199790924625304    0.3825684896235475    0.38009353255717604    
  0.372800420214976    0.36110381532049496    0.34572554866669675    0.3276670714962778    0.3081182852793129    
  0.28833888831691007    0.2695553678499108    0.25289670804473696    0.2393638039362668    0.22980222704093567    
  0.2248476197989719    0.2248476197989719    0.22980222704093567    0.2393638039362668    0.25289670804473696    
  0.2695553678499108    0.28833888831691007    0.3081182852793129    0.3276670714962778    0.34572554866669675    
  0.36110381532049496    0.372800420214976    0.38009353255717604    0.3825684896235475    0.45934868631942843    
  0.4553690479058479    0.44369704370258917    0.4251550752304895    0.4011245368706886    0.3734326234459134    
  0.3441180035492744    0.3151695025682957    0.2883388883169099    0.2650700946709922    0.24651913732921374    
  0.23359457320954588    0.22695466014555288    0.22695466014555288    0.23359457320954588    0.24651913732921374    
  0.2650700946709922    0.2883388883169099    0.3151695025682957    0.3441180035492744    0.3734326234459134    
  0.40112453687068866    0.4251550752304895    0.44369704370258917    0.4553690479058479    0.45934868631942843    
  0.546742654041562    0.5409808748057117    0.5241259905692642    0.49749636013300796    0.4632786034023136    
  0.42430456818353546    0.3836338514107278    0.34411800354927446    0.3081182852793129    0.27742889140695165    
  0.2533472848747878    0.23678751034906975    0.22835363017826354    0.22835363017826354    0.23678751034906975    
  0.2533472848747878    0.27742889140695165    0.3081182852793129    0.34411800354927446    0.3836338514107278    
  0.42430456818353546    0.4632786034023136    0.49749636013300796    0.5241259905692642    0.5409808748057117    
  0.546742654041562    0.6387934750897019    0.6311503135673329    0.6088009070120382    0.5735397669752749    
  0.528377425638883    0.4772311247410078    0.42430456818353524    0.3734326234459133    0.32766707149627766    
  0.28917951913970447    0.2593840271041647    0.2391358822286439    0.22890786342466232    0.22890786342466232    
  0.2391358822286439    0.2593840271041647    0.28917951913970447    0.32766707149627766    0.3734326234459133    
  0.42430456818353524    0.4772311247410078    0.528377425638883    0.5735397669752749    0.6088009070120382    
  0.6311503135673329    0.6387934750897019    0.7276605932713778    0.7182738873676053    0.6907793957191812    
  0.6472961574405584    0.5915136236925432    0.528377425638883    0.4632786034023134    0.40112453687068844    
  0.3457255486666967    0.2996443458756693    0.26437598644401084    0.2406549462757305    0.22876012190817305    
  0.22876012190817305    0.2406549462757305    0.26437598644401084    0.2996443458756693    0.3457255486666967    
  0.40112453687068844    0.4632786034023134    0.528377425638883    0.5915136236925432    0.6472961574405584    
  0.6907793957191812    0.7182738873676053    0.7276605932713778    0.8051101256943044    0.7943262330713072    
  0.7626363959064274    0.7122572446941572    0.6472961574405584    0.5735397669752749    0.49749636013300796    
  0.42515507523048934    0.361103815320495    0.3082850340648999    0.2682368409745728    0.24153063351773846    