#     DFTpy    
  CRYSTAL 
    
  PRIMVEC    
  3.077061522878731    -1.6906000000000003e-10    3.2044000000000003e-10    
  -1.6906000000000003e-10    3.0770615226999305    1.544e-10    
  5.855600000000001e-10    2.8220000000000007e-10    5.637236345309871    
  PRIMCOORD    
  4    1    
  Si    1.5385307613807402    1.5385307621966704    1.7322903121628506    
  Si    5.705300000000001e-10    -5.280200000000002e-10    1.0863278585971203    
  Si    8.751000000000003e-11    3.9878000000000015e-10    4.5509084835152604    
  Si    1.5385307618420303    1.5385307610278405    3.904946036819351    
  BEGIN_BLOCK_DATAGRID_3D    
  3d_datagrid_density    
  BEGIN_DATAGRID_3D#0    
  31    31    55    
  0.0    0.0    0.0    
  3.077061534356229    -1.6906000063059706e-10    3.204400011952474e-10    
  -1.6906000063059706e-10    3.077061534177429    1.5440000057591497e-10    
  5.855600021841501e-10    2.8220000105261144e-10    5.637236366336871    
  0.6974737357085531    0.6862486121097241    0.6538592965195416    0.6038764934197274    0.5414199970582549    
  0.4722513863081107    0.40192796517935553    0.3351289704211517    0.2752111514643482    0.22406078707889832    
  0.18227143410273683    0.1495576903160591    0.12521802112070385    0.10848532850924829    0.09872268063741649    
  0.0955162915474289    0.09872268063741642    0.10848532850924833    0.12521802112070385    0.14955769031605906    
  0.18227143410273686    0.22406078707889832    0.2752111514643481    0.3351289704211516    0.40192796517935553    
  0.4722513863081107    0.5414199970582549    0.6038764934197275    0.6538592965195417    0.6862486121097241    
  0.6974737357085531    0.6862486121097241    0.6752555069236177    0.6435370311219306    0.5945908023169674    
  0.5334248021667767    0.4656674861061354    0.39674495755474537    0.33122944675585053    0.27240914255732573    
  0.22214299299758936    0.1810308733139269    0.1488137872367732    0.1248227077419458    0.10831915035990464    
  0.09868641008255018    0.09552211579445052    0.09868641008255012    0.10831915035990469    0.1248227077419458    
  0.1488137872367732    0.18103087331392687    0.22214299299758927    0.2724091425573257    0.33122944675585053    
  0.39674495755474537    0.4656674861061354    0.5334248021667767    0.5945908023169674    0.6435370311219307    
  0.6752555069236178    0.6862486121097241    0.6538592965195416    0.6435370311219306    0.613755231991513    
  0.5677944746406862    0.510337083167178    0.44663082194384834    0.38173088937724065    0.3199075258570806    
  0.2642534390445952    0.2165467288148006    0.17740154574513486    0.1466314106872652    0.12365863209707219    
  0.10782589742446391    0.09857409112867957    0.09553334064221743    0.0985740911286795    0.10782589742446397    
  0.12365863209707219    0.14663141068726512    0.17740154574513484    0.21654672881480055    0.26425343904459514    
  0.3199075258570805    0.38173088937724065    0.44663082194384834    0.510337083167178    0.5677944746406863    
  0.613755231991513    0.6435370311219307    0.6538592965195416    0.6038764934197274    0.5945908023169674    
  0.5677944746406862    0.5264191308134263    0.4746388057069119    0.4171240982813351    0.3583781939226428    
  0.3022227645652041    0.25145471529341007    0.20772201051228537    0.17165017684819886    0.1431543939107727    
  0.12179060895259608    0.10702234116470309    0.09837683237526752    0.09553302576976626    0.09837683237526744    
  0.10702234116470309    0.12179060895259608    0.1431543939107727    0.17165017684819883    0.20772201051228534    
  0.25145471529340996    0.30222276456520397    0.3583781939226428    0.4171240982813351    0.4746388057069119    
  0.5264191308134263    0.5677944746406862    0.5945908023169674    0.6038764934197274    0.5414199970582549    
  0.5334248021667767    0.510337083167178    0.4746388057069119    0.4298671925054002    0.37999012604348303    
  0.32885073559866124    0.2797342684780753    0.23507570338935882    0.19635245293500342    0.16418830824497715    
  0.13860896172869985    0.11932422750463034    0.1059398082269843    0.09808576184561167    0.09549957099802082    
  0.09808576184561162    0.1059398082269843    0.11932422750463034    0.1386089617286998    0.16418830824497713    
  0.19635245293500336    0.23507570338935874    0.27973426847807525    0.32885073559866124    0.37999012604348303    
  0.4298671925054002    0.4746388057069119    0.510337083167178    0.5334248021667767    0.5414199970582549    
  0.4722513863081107    0.4656674861061354    0.44663082194384823    0.4171240982813351    0.37999012604348303    
  0.3384443466874252    0.295630223950689    0.2542620547760532    0.21638103310435544    0.18326752019521017    
  0.1555258084351012    0.13328325174608785    0.1164010687510235    0.10462829815739841    0.09770057224223405    
  0.09541658335028871    0.09770057224223395    0.10462829815739841    0.1164010687510235    0.13328325174608785    
  0.15552580843510114    0.18326752019521014    0.2163810331043553    0.25426205477605307    0.295630223950689    
  0.3384443466874251    0.37999012604348303    0.4171240982813351    0.44663082194384823    0.4656674861061354    
  0.4722513863081107    0.40192796517935553    0.3967449575547454    0.38173088937724076    0.3583781939226428    
  0.3288507355986613    0.2956302239506891    0.2611764254469045    0.22764096232258005    0.19667019114955345    
  0.16933768836220983    0.146211224242271    0.12749800065309752    0.113188492124149    0.10315768830085983    
  0.09723685432087152    0.09528215956500988    0.09723685432087148    0.10315768830085979    0.113188492124149    
  0.12749800065309747    0.14621122424227104    0.1693376883622098    0.1966701911495534    0.22764096232257996    
  0.2611764254469045    0.29563022395068905    0.3288507355986613    0.3583781939226428    0.3817308893772407    
  0.3967449575547454    0.40192796517935553    0.33512897042115164    0.33122944675585053    0.3199075258570805    
  0.3022227645652041    0.27973426847807525    0.2542620547760532    0.2276409623225799    0.2015021216077934    
  0.17712184243662588    0.15537249084302546    0.13677077483361785    0.12157333534727817    0.10986370429112216    
  0.10161201785433442    0.09672591543948726    0.09511049423925119    0.09672591543948728    0.10161201785433442    
  0.10986370429112216    0.12157333534727821    0.1367707748336178    0.15537249084302543    0.17712184243662565    
  0.20150212160779335    0.2276409623225799    0.2542620547760531    0.2797342684780753    0.3022227645652041    
  0.31990752585708054    0.33122944675585053    0.33512897042115164    0.27521115146434816    0.2724091425573256    
  0.2642534390445953    0.25145471529341007    0.23507570338935888    0.21638103310435536    0.19667019114955347    
  0.1771218424366258    0.1586859388109681    0.14204918247427578    0.1276639415456801    0.11580145449700792    
  0.10659590937326649    0.1000764021532918    0.09620390490307758    0.09492166286476245    0.09620390490307758    
  0.10007640215329175    0.10659590937326649    0.11580145449700792    0.12766394154568006    0.14204918247427575    
  0.15868593881096804    0.1771218424366257    0.19667019114955347    0.2163810331043553    0.23507570338935882    
  0.2514547152934101    0.2642534390445952    0.2724091425573256    0.27521115146434816    0.22406078707889837    
  0.22214299299758927    0.21654672881480055    0.20772201051228537    0.1963524529350034    0.18326752019521017    
  0.16933768836220983    0.15537249084302537    0.1420491824742758    0.1298882112978882    0.11926477840189048    
  0.11043063664192121    0.10353097458684896    0.09862128308245359    0.09569540667121504    0.09472492043063943    
  0.095695406671215    0.09862128308245356    0.10353097458684896    0.11043063664192121    0.11926477840189044    
  0.1298882112978882    0.14204918247427573    0.15537249084302532    0.16933768836220983    0.18326752019521012    
  0.1963524529350034    0.2077220105122854    0.2165467288148005    0.22214299299758927    0.22406078707889837    
  0.18227143410273683    0.18103087331392675    0.17740154574513484    0.1716501768481988    0.16418830824497713    
  0.15552580843510128    0.14621122424227095    0.13677077483361785    0.12766394154568014    0.11926477840189044    
  0.11186105689473738    0.10565787617074121    0.10078211860530241    0.0972934138875526    0.09520514777915562    
  0.0945107164351953    0.09520514777915565    0.09729341388755255    0.10078211860530241    0.10565787617074121    
  0.11186105689473728    0.11926477840189044    0.12766394154568006    0.13677077483361771    0.14621122424227095    
  0.15552580843510122    0.16418830824497713    0.17165017684819878    0.17740154574513475    0.18103087331392675    
  0.18227143410273683    0.14955769031605912    0.1488137872367731    0.14663141068726523    0.14315439391077275    
  0.13860896172869985    0.13328325174608785    0.12749800065309744    0.12157333534727821    0.11580145449700796    
  0.11043063664192115    0.10565787617074118    0.10162655927416898    0.0984300037220535    0.09612174171786037    
  0.09472892541498686    0.0942635443140382    0.09472892541498691    0.09612174171786032    0.0984300037220535    
  0.10162655927416898    0.10565787617074121    0.11043063664192115    0.11580145449700792    0.12157333534727807    
  0.12749800065309744    0.1332832517460878    0.13860896172869985    0.14315439391077275    0.1466314106872652    
  0.1488137872367732    0.14955769031605912    0.12521802112070393    0.12482270774194583    0.12365863209707222    
  0.12179060895259612    0.11932422750463034    0.1164010687510236    0.11318849212414907    0.10986370429112216    
  0.10659590937326649    0.10353097458684896    0.10078211860530241    0.09843000372205353    0.09653219192854148    
  0.09513479530351415    0.09427717534676523    0.09398778838194925    0.09427717534676518    0.09513479530351415    
  0.09653219192854148    0.09843000372205353    0.10078211860530245    0.10353097458684891    0.10659590937326645    
  0.10986370429112206    0.11318849212414907    0.11640106875102355    0.11932422750463041    0.12179060895259608    
  0.12365863209707209    0.12482270774194584    0.12521802112070393    0.1084853285092483    0.10831915035990473    
  0.10782589742446397    0.10702234116470319    0.10593980822698434    0.10462829815739849    0.1031576883008598    
  0.10161201785433442    0.10007640215329175    0.09862128308245366    0.09729341388755255    0.09612174171786032    
  0.09513479530351418    0.09437383712877315    0.09388902332641136    0.09372204682454863    0.09388902332641134    
  0.09437383712877305    0.09513479530351418    0.09612174171786035    0.09729341388755255    0.09862128308245365    
  0.10007640215329178    0.10161201785433432    0.1031576883008598    0.10462829815739845    0.1059398082269843    
  0.10702234116470316    0.10782589742446394    0.1083191503599047    0.1084853285092483    0.09872268063741649    
  0.09868641008255011    0.09857409112867951    0.0983768323752675    0.09808576184561157    0.09770057224223401    
  0.09723685432087156    0.09672591543948728    0.09620390490307754    0.09569540667121504    0.09520514777915565    
  0.09472892541498691    0.09427717534676516    0.09388902332641134    0.09362215319978742    0.09352668658100857    
  0.09362215319978745    0.0938890233264113    0.09427717534676516    0.09472892541498694    0.09520514777915562    
  0.095695406671215    0.09620390490307758    0.09672591543948723    0.09723685432087152    0.09770057224223395    
  0.09808576184561153    0.0983768323752675    0.09857409112867951    0.0986864100825501    0.09872268063741649    
  0.0955162915474289    0.09552211579445048    0.09553334064221744    0.09553302576976626    0.09549957099802077    
  0.09541658335028871    0.09528215956500989    0.09511049423925119    0.09492166286476235    0.09472492043063943    
  0.09451071643519525    0.09426354431403815    0.0939877883819493    0.0937220468245486    0.0935266865810086    
  0.09345468103779042    0.0935266865810086    0.09372204682454854    0.0939877883819493    0.0942635443140382    
  0.09451071643519525    0.09472492043063938    0.09492166286476238    0.09511049423925119    0.09528215956500989    
  0.09541658335028871    0.09549957099802082    0.09553302576976631    0.09553334064221744    0.09552211579445052    
  0.0955162915474289    0.09872268063741647    0.09868641008255008    0.09857409112867951    0.09837683237526744    
  0.09808576184561157    0.09770057224223401    0.09723685432087142    0.09672591543948728    0.09620390490307758    
  0.09569540667121497    0.09520514777915562    0.09472892541498687    0.09427717534676518    0.09388902332641128    
  0.09362215319978745    0.0935266865810086    0.09362215319978741    0.09388902332641128    0.09427717534676518    
  0.09472892541498691    0.09520514777915562    0.09569540667121496    0.09620390490307754    0.09672591543948719    
  0.09723685432087142    0.09770057224223394    0.09808576184561157    0.0983768323752675    0.09857409112867954    
  0.09868641008255012    0.09872268063741647    0.10848532850924836    0.1083191503599047    0.107825897424464    
  0.10702234116470316    0.10593980822698426    0.10462829815739852    0.10315768830085983    0.10161201785433442    
  0.1000764021532918    0.09862128308245366    0.09729341388755255    0.09612174171786037    0.09513479530351418    
  0.09437383712877319    0.0938890233264114    0.09372204682454857    0.09388902332641133    0.09437383712877312    
  0.09513479530351418    0.09612174171786032    0.09729341388755255    0.09862128308245366    0.1000764021532918    
  0.10161201785433428    0.10315768830085983    0.10462829815739845    0.1059398082269843    0.10702234116470315    
  0.10782589742446397    0.1083191503599047    0.10848532850924836    0.12521802112070393    0.12482270774194583    
  0.12365863209707222    0.12179060895259612    0.11932422750463034    0.1164010687510236    0.11318849212414907    
  0.10986370429112216    0.10659590937326649    0.10353097458684896    0.10078211860530241    0.09843000372205353    
  0.09653219192854148    0.09513479530351415    0.09427717534676523    0.09398778838194925    0.09427717534676518    
  0.09513479530351415    0.09653219192854148    0.09843000372205353    0.10078211860530245    0.10353097458684891    
  0.10659590937326645    0.10986370429112206    0.11318849212414907    0.11640106875102355    0.11932422750463041    
  0.12179060895259608    0.12365863209707209    0.12482270774194584    0.12521802112070393    0.14955769031605906    
  0.14881378723677313    0.14663141068726518    0.14315439391077275    0.13860896172869985    0.13328325174608785    
  0.12749800065309747    0.12157333534727811    0.11580145449700786    0.11043063664192115    0.10565787617074121    
  0.10162655927416898    0.09843000372205353    0.09612174171786042    0.09472892541498684    0.0942635443140382    
  0.09472892541498684    0.09612174171786037    0.09843000372205353    0.10162655927416903    0.10565787617074121    
  0.11043063664192115    0.11580145449700792    0.12157333534727807    0.12749800065309747    0.1332832517460878    
  0.13860896172869985    0.14315439391077275    0.14663141068726512    0.14881378723677316    0.14955769031605906    
  0.1822714341027368    0.18103087331392678    0.17740154574513478    0.17165017684819875    0.16418830824497713    
  0.15552580843510114    0.14621122424227095    0.1367707748336178    0.12766394154568006    0.11926477840189044    
  0.11186105689473734    0.10565787617074125    0.10078211860530231    0.09729341388755255    0.09520514777915566    
  0.0945107164351953    0.09520514777915558    0.09729341388755255    0.10078211860530231    0.10565787617074121    
  0.11186105689473728    0.11926477840189044    0.12766394154568    0.13677077483361777    0.146211224242271    
  0.15552580843510108    0.16418830824497713    0.1716501768481988    0.17740154574513473    0.1810308733139268    
  0.1822714341027368    0.22406078707889832    0.22214299299758922    0.21654672881480055    0.2077220105122853    
  0.1963524529350034    0.18326752019521012    0.16933768836220983    0.1553724908430254    0.14204918247427584    
  0.1298882112978882    0.11926477840189044    0.11043063664192115    0.10353097458684891    0.09862128308245362    
  0.095695406671215    0.09472492043063944    0.095695406671215    0.09862128308245362    0.10353097458684891    
  0.11043063664192115    0.11926477840189044    0.12988821129788813    0.1420491824742757    0.1553724908430253    
  0.16933768836220983    0.1832675201952101    0.1963524529350034    0.2077220105122854    0.21654672881480047    
  0.22214299299758927    0.22406078707889832    0.2752111514643481    0.2724091425573257    0.2642534390445952    
  0.25145471529340996    0.2350757033893588    0.21638103310435536    0.1966701911495534    0.17712184243662574    
  0.15868593881096807    0.14204918247427578    0.12766394154568006    0.11580145449700792    0.10659590937326645    
  0.10007640215329178    0.09620390490307754    0.09492166286476242    0.09620390490307748    0.1000764021532918    
  0.10659590937326645    0.11580145449700786    0.12766394154568006    0.14204918247427573    0.15868593881096799    
  0.17712184243662565    0.1966701911495534    0.2163810331043553    0.2350757033893588    0.2514547152934101    
  0.2642534390445952    0.2724091425573257    0.2752111514643481    0.3351289704211516    0.33122944675585053    
  0.3199075258570806    0.30222276456520414    0.27973426847807537    0.2542620547760531    0.22764096232258    
  0.20150212160779335    0.17712184243662588    0.15537249084302548    0.13677077483361785    0.12157333534727817    
  0.1098637042911221    0.10161201785433442    0.09672591543948728    0.09511049423925123    0.09672591543948723    
  0.10161201785433442    0.1098637042911221    0.12157333534727821    0.1367707748336178    0.15537249084302546    
  0.17712184243662576    0.20150212160779324    0.22764096232258    0.2542620547760531    0.27973426847807537    
  0.30222276456520414    0.3199075258570805    0.33122944675585053    0.3351289704211516    0.40192796517935553    
  0.3967449575547454    0.38173088937724076    0.3583781939226428    0.3288507355986613    0.2956302239506891    
  0.2611764254469045    0.22764096232258005    0.19667019114955345    0.16933768836220983    0.146211224242271    
  0.12749800065309752    0.113188492124149    0.10315768830085983    0.09723685432087152    0.09528215956500988    
  0.09723685432087148    0.10315768830085979    0.113188492124149    0.12749800065309747    0.14621122424227104    
  0.1693376883622098    0.1966701911495534    0.22764096232257996    0.2611764254469045    0.29563022395068905    
  0.3288507355986613    0.3583781939226428    0.3817308893772407    0.3967449575547454    0.40192796517935553    
  0.4722513863081106    0.4656674861061354    0.44663082194384823    0.4171240982813351    0.3799901260434829    
  0.3384443466874251    0.295630223950689    0.2542620547760531    0.21638103310435539    0.18326752019521017    
  0.1555258084351012    0.13328325174608788    0.11640106875102353    0.10462829815739842    0.09770057224223402    
  0.09541658335028871    0.09770057224223401    0.10462829815739845    0.11640106875102353    0.13328325174608785    
  0.1555258084351012    0.18326752019521014    0.2163810331043553    0.25426205477605307    0.295630223950689    
  0.3384443466874251    0.3799901260434829    0.4171240982813351    0.44663082194384834    0.4656674861061354    
  0.4722513863081106    0.5414199970582549    0.5334248021667767    0.510337083167178    0.4746388057069119    
  0.4298671925054002    0.37999012604348303    0.32885073559866124    0.27973426847807537    0.2350757033893588    
  0.1963524529350034    0.16418830824497715    0.1386089617286999    0.11932422750463034    0.1059398082269842    
  0.09808576184561162    0.09549957099802087    0.09808576184561157    0.1059398082269842    0.11932422750463034    
  0.1386089617286998    0.16418830824497713    0.19635245293500336    0.23507570338935874    0.2797342684780752    
  0.32885073559866124    0.37999012604348303    0.4298671925054002    0.4746388057069119    0.510337083167178    
  0.5334248021667767    0.5414199970582549    0.6038764934197275    0.5945908023169674    0.5677944746406862    
  0.5264191308134263    0.4746388057069119    0.4171240982813351    0.3583781939226428    0.30222276456520414    
  0.25145471529341    0.20772201051228542    0.17165017684819883    0.14315439391077273    0.12179060895259608    
  0.10702234116470316    0.09837683237526752    0.09553302576976626    0.09837683237526743    0.10702234116470319    
  0.12179060895259608    0.14315439391077273    0.1716501768481988    0.20772201051228534    0.25145471529341    
  0.302222764565204    0.3583781939226428    0.4171240982813351    0.4746388057069119    0.5264191308134262    
  0.5677944746406862    0.5945908023169674    0.6038764934197275    0.6538592965195416    0.6435370311219307    
  0.613755231991513    0.5677944746406862    0.510337083167178    0.44663082194384846    0.38173088937724065    
  0.3199075258570806    0.2642534390445953    0.2165467288148006    0.1774015457451349    0.1466314106872652    
  0.12365863209707219    0.10782589742446391    0.09857409112867958    0.09553334064221744    0.09857409112867954    
  0.10782589742446397    0.12365863209707219    0.14663141068726515    0.1774015457451349    0.21654672881480055    
  0.26425343904459525    0.31990752585708054    0.38173088937724065    0.44663082194384834    0.510337083167178    
  0.5677944746406863    0.6137552319915132    0.6435370311219307    0.6538592965195416    0.6862486121097241    
  0.6752555069236178    0.6435370311219306    0.5945908023169674    0.5334248021667767    0.4656674861061354    
  0.3967449575547453    0.3312294467558506    0.2724091425573258    0.2221429929975893    0.18103087331392687    
  0.1488137872367732    0.12482270774194575    0.1083191503599046    0.09868641008255016    0.0955221157944505    
  0.09868641008255012    0.10831915035990466    0.12482270774194575    0.1488137872367732    0.18103087331392675    
  0.22214299299758927    0.2724091425573257    0.33122944675585053    0.3967449575547453    0.4656674861061354    
  0.5334248021667767    0.5945908023169674    0.6435370311219307    0.6752555069236178    0.6862486121097241    
  0.6974737357085531    0.6862486121097241    0.6538592965195416    0.6038764934197274    0.5414199970582549    
  0.4722513863081107    0.40192796517935553    0.3351289704211517    0.2752111514643482    0.22406078707889832    
  0.18227143410273683    0.1495576903160591    0.12521802112070385    0.10848532850924829    0.09872268063741649    
  0.0955162915474289    0.09872268063741642    0.10848532850924833    0.12521802112070385    0.14955769031605906    
  0.18227143410273686    0.22406078707889832    0.2752111514643481    0.3351289704211516    0.40192796517935553    
  0.4722513863081107    0.5414199970582549    0.6038764934197275    0.6538592965195417    0.6862486121097241    
  0.6974737357085531    0.6923876336117937    0.6816068345444791    0.6503936211823329    0.6019395756877948    
  0.5409652428795951    0.4729762307791731    0.4034502748956759    0.3370983966323002    0.27735043953276933    
  0.2261797649890284    0.18427307563851034    0.15142438175320955    0.1269755961028991    0.11016818867487024    
  0.10036096198165567    0.09713931191695957    0.10036096198165562    0.11016818867487028    0.1269755961028991    
  0.1514243817532095    0.18427307563851028    0.22617976498902828    0.2773504395327693    0.33709839663230007    
  0.4034502748956759    0.4729762307791731    0.5409652428795951    0.6019395756877948    0.6503936211823329    
  0.6816068345444792    0.6923876336117937    0.6816068345444792    0.6710332455119778    0.640425400344752    
  0.5929233109391185    0.5331579260141636    0.46651506923111385    0.3983441602218072    0.3332463184887816    
  0.27457904357968366    0.22428516683456098    0.183054397521528    0.15070363339824228    0.12660464818361916    
  0.11002658447547374    0.10034887913232704    0.09716908678170325    0.10034887913232701    0.11002658447547378    
  0.12660464818361916    0.15070363339824225    0.183054397521528    0.2242851668345609    0.27457904357968355    
  0.3332463184887815    0.3983441602218072    0.46651506923111385    0.5331579260141636    0.5929233109391185    
  0.6404254003447523    0.671033245511978    0.6816068345444792    0.6503936211823329    0.6404254003447521    
  0.6115816377859805    0.5668423720555023    0.5105714335922757    0.44780868392619827    0.38353987768764647    
  0.322056613268826    0.2665113539718823    0.2187578949635437    0.17949130581903291    0.14859133345417733    
  0.12551390206836444    0.10960696099969802    0.10030888081785769    0.09725188664301768    0.1003088808178576    
  0.10960696099969806    0.12551390206836444    0.14859133345417727    0.17949130581903286    0.21875789496354364    
  0.26651135397188225    0.3220566132688259    0.38353987768764647    0.44780868392619827    0.5105714335922757    
  0.5668423720555023    0.6115816377859806    0.6404254003447521    0.6503936211823329    0.6019395756877948    
  0.5929233109391184    0.5668423720555023    0.526402219638789    0.4755338563213205    0.4187438971885328    
  0.3604748078231331    0.30456033737590404    0.2538457803617728    0.21004451924811693    0.17385066022872336    
  0.1452319467548075    0.12376818663799671    0.10892557055592257    0.10023138864905118    0.09737007644041179    
  0.10023138864905111    0.1089255705559226    0.12376818663799671    0.1452319467548075    0.17385066022872334    
  0.21004451924811687    0.2538457803617728    0.304560337375904    0.3604748078231331    0.4187438971885328    
  0.47553385632132056    0.5264022196387892    0.5668423720555023    0.5929233109391185    0.6019395756877948    
  0.5409652428795951    0.5331579260141636    0.5105714335922759    0.4755338563213205    0.43141199782931    
  0.3820514641974491    0.3312430654198717    0.28227619181104935    0.237624168683157    0.19881929689666913    
  0.1665399116434512    0.14084905124531377    0.12147054546552472    0.10801139059985862    0.10010562835557109    
  0.09750039068627014    0.10010562835557109    0.10801139059985862    0.12147054546552472    0.14084905124531374    
  0.16653991164345117    0.19881929689666908    0.2376241686831569    0.2822761918110493    0.3312430654198717    
  0.3820514641974491    0.43141199782931    0.4755338563213205    0.5105714335922757    0.5331579260141636    
  0.5409652428795951    0.4729762307791731    0.46651506923111385    0.4478086839261982    0.41874389718853283    
  0.38205146419744906    0.34085869030855054    0.2982649114603061    0.2569835662083392    0.21908584554273872    
  0.18589591164966415    0.15805764304856074    0.13572114881484978    0.11875398415200841    0.10690730174519042    
  0.09992564365668712    0.0976214124545884    0.09992564365668707    0.10690730174519043    0.11875398415200841    
  0.13572114881484976    0.15805764304856074    0.18589591164966415    0.21908584554273855    0.25698356620833906    
  0.2982649114603061    0.3408586903085504    0.3820514641974491    0.4187438971885328    0.4478086839261982    
  0.46651506923111385    0.4729762307791731    0.4034502748956759    0.3983441602218072    0.3835398776876466    
  0.3604748078231331    0.33124306541987175    0.2982649114603062    0.2639645335924971    0.230489934224725    
  0.19950904511840653    0.17212651978253757    0.1489346243302194    0.13015132609380717    0.11576939153768669    
  0.10566892869173626    0.09969491402761456    0.09772000172745592    0.09969491402761452    0.10566892869173619    
  0.11576939153768669    0.13015132609380714    0.1489346243302194    0.1721265197825375    0.1995090451184065    
  0.2304899342247249    0.2639645335924971    0.29826491146030615    0.33124306541987175    0.3604748078231332    
  0.3835398776876465    0.3983441602218072    0.4034502748956759    0.3370983966323001    0.33324631848878156    
  0.3220566132688259    0.3045603373759041    0.2822761918110493    0.2569835662083392    0.2304899342247249    
  0.20442020011754397    0.18006219097977613    0.15830526852953877    0.1396771737195804    0.12443758947879889    
  0.11267220787054319    0.10436037796748336    0.099426623991257    0.09779295203103436    0.09942662399125701    
  0.10436037796748336    0.11267220787054319    0.12443758947879889    0.1396771737195803    0.15830526852953877    
  0.1800621909797759    0.20442020011754394    0.2304899342247249    0.2569835662083392    0.2822761918110493    
  0.3045603373759041    0.3220566132688259    0.33324631848878156    0.3370983966323001    0.27735043953276933    
  0.27457904357968355    0.26651135397188236    0.25384578036177285    0.237624168683157    0.21908584554273863    
  0.19950904511840656    0.18006219097977605    0.16169549117902615    0.14509941269318985    0.13072774945556453    
  0.11885196986195176    0.10961109820996796    0.10304690865951477    0.0991376632726052    0.09784127595673307    
  0.09913766327260516    0.10304690865951474    0.10961109820996796    0.11885196986195166    0.13072774945556448    
  0.14509941269318982    0.16169549117902612    0.18006219097977594    0.19950904511840656    0.21908584554273858    
  0.237624168683157    0.25384578036177285    0.26651135397188225    0.27457904357968355    0.27735043953276933    
  0.22617976498902834    0.2242851668345609    0.2187578949635437    0.21004451924811693    0.19881929689666908    
  0.1858959116496642    0.1721265197825376    0.15830526852953875    0.14509941269318985    0.13302343190273497    