#     DFTpy    
  CRYSTAL 
    
  PRIMVEC    
  2.7326143374818606    -1.5014000000000004e-10    2.8457000000000003e-10    
  -1.5014000000000004e-10    2.7326143373230702    1.3712000000000001e-10    
  5.2002e-10    2.5061e-10    5.0062024260587705    
  PRIMCOORD    
  4    1    
  Si    1.3663071686888701    1.3663071694134603    1.5383772175177501    
  Si    5.066600000000001e-10    -4.689100000000001e-10    0.9647239938287903    
  Si    7.771000000000001e-11    3.541400000000001e-10    4.04147842939042    
  Si    1.3663071690985205    1.3663071683754704    3.467825211802261    
  BEGIN_BLOCK_DATAGRID_3D    
  3d_datagrid_density    
  BEGIN_DATAGRID_3D#0    
  26    26    49    
  0.0    0.0    0.0    
  2.732614347674564    -1.501400005600251e-10    2.845700010614516e-10    
  -1.501400005600251e-10    2.732614347515774    1.3712000051146024e-10    
  5.200200019396846e-10    2.506100009347801e-10    5.0062024447320015    
  0.9089462815022542    0.893914373894763    0.8498375766785219    0.7804418320769059    0.6929126587087484    
  0.596845859317659    0.5016649668338127    0.41451909319154545    0.3398152988524513    0.27980348633543406    
  0.23526579430954153    0.20606174752028827    0.19166543947811182    0.19166543947811182    0.20606174752028827    
  0.23526579430954153    0.27980348633543406    0.3398152988524513    0.41451909319154545    0.5016649668338127    
  0.596845859317659    0.6929126587087484    0.7804418320769059    0.8498375766785219    0.893914373894763    
  0.9089462815022542    0.8939143738947628    0.8791223910620057    0.835822491921593    0.7678216461614753    
  0.6822443856231988    0.5884323225901124    0.49547761807837487    0.4102776529219202    0.33713116449594543    
  0.27828563543221696    0.2345629639239678    0.20586814083335978    0.1917144136095781    0.1917144136095781    
  0.20586814083335978    0.2345629639239678    0.27828563543221696    0.33713116449594543    0.4102776529219202    
  0.49547761807837487    0.5884323225901124    0.6822443856231988    0.7678216461614753    0.835822491921593    
  0.8791223910620057    0.8939143738947628    0.8498375766785219    0.835822491921593    0.7949654720609439    
  0.7311923630607576    0.6513640246861497    0.5640823573413863    0.4775360585717074    0.39794725617669696    
  0.3293164908986309    0.27387053790410315    0.2325293610881485    0.2053225241095811    0.19187710289447876    
  0.19187710289447876    0.2053225241095811    0.2325293610881485    0.27387053790410315    0.3293164908986309    
  0.39794725617669696    0.4775360585717074    0.5640823573413863    0.6513640246861497    0.7311923630607576    
  0.7949654720609439    0.835822491921593    0.8498375766785219    0.7804418320769059    0.7678216461614752    
  0.7311923630607577    0.6743825089315572    0.6036394363566429    0.5264221528477415    0.4496669942008302    
  0.3786856229953043    0.31705318457482407    0.2669267556461094    0.22933202647081702    0.20446995628245665    
  0.1921409619940341    0.1921409619940341    0.20446995628245665    0.22933202647081702    0.2669267556461094    
  0.31705318457482407    0.3786856229953043    0.4496669942008302    0.5264221528477415    0.6036394363566429    
  0.6743825089315572    0.7311923630607577    0.7678216461614752    0.7804418320769059    0.6929126587087484    
  0.6822443856231987    0.6513640246861496    0.6036394363566429    0.5443210467234498    0.479474428392007    
  0.4146775089338673    0.3542809006199812    0.30136836649482185    0.2579523092774422    0.22512244832415568    
  0.20325696972621066    0.19235907552619005    0.19235907552619005    0.20325696972621066    0.22512244832415568    
  0.2579523092774422    0.30136836649482185    0.3542809006199812    0.4146775089338673    0.479474428392007    
  0.5443210467234498    0.6036394363566429    0.6513640246861496    0.6822443856231987    0.6929126587087484    
  0.5968458593176589    0.5884323225901124    0.5640823573413863    0.5264221528477415    0.479474428392007    
  0.4278507484587012    0.3758299689328928    0.3268506688057156    0.28347508170321895    0.24749335761287133    
  0.2199961658084611    0.20151189617306992    0.1922390379134388    0.1922390379134388    0.20151189617306992    
  0.2199961658084611    0.24749335761287133    0.28347508170321895    0.3268506688057156    0.3758299689328928    
  0.4278507484587012    0.479474428392007    0.5264221528477415    0.5640823573413863    0.5884323225901124    
  0.5968458593176589    0.5016649668338127    0.4954776180783749    0.4775360585717074    0.4496669942008302    
  0.4146775089338673    0.3758299689328926    0.3362326773593675    0.2984812538263109    0.2646051204941367    
  0.23611888856774432    0.2140602769066372    0.199063464632947    0.19148251323234922    0.19148251323234922    
  0.199063464632947    0.2140602769066372    0.23611888856774432    0.2646051204941367    0.2984812538263109    
  0.3362326773593675    0.3758299689328926    0.4146775089338673    0.4496669942008302    0.4775360585717074    
  0.4954776180783749    0.5016649668338127    0.41451909319154545    0.41027765292192014    0.39794725617669696    
  0.37868562299530406    0.3542809006199811    0.3268506688057153    0.2984812538263108    0.2709963503552923    
  0.24590751866839108    0.22444023954758568    0.20754596956527072    0.19591078533861034    0.18998105009063154    
  0.18998105009063154    0.19591078533861034    0.20754596956527072    0.22444023954758568    0.24590751866839108    
  0.2709963503552923    0.2984812538263108    0.3268506688057153    0.3542809006199811    0.37868562299530406    
  0.39794725617669696    0.41027765292192014    0.41451909319154545    0.33981529885245126    0.33713116449594543    
  0.3293164908986308    0.31705318457482395    0.30136836649482185    0.28347508170321883    0.26460512049413676    
  0.24590751866839108    0.22843195679223197    0.2131385286063514    0.2008727264194558    0.19231027048632193    
  0.18791312398132928    0.18791312398132928    0.19231027048632193    0.2008727264194558    0.2131385286063514    
  0.22843195679223197    0.24590751866839108    0.26460512049413676    0.28347508170321883    0.30136836649482185    
  0.31705318457482395    0.3293164908986308    0.33713116449594543    0.33981529885245126    0.279803486335434    
  0.278285635432217    0.2738705379041031    0.2669267556461094    0.2579523092774422    0.24749335761287133    
  0.2361188885677444    0.2244402395475858    0.21313852860635144    0.20295399014622378    0.19461210768570064    
  0.1887162293900689    0.18567143573883627    0.18567143573883627    0.1887162293900689    0.19461210768570064    
  0.20295399014622378    0.21313852860635144    0.2244402395475858    0.2361188885677444    0.24749335761287133    
  0.2579523092774422    0.2669267556461094    0.2738705379041031    0.278285635432217    0.279803486335434    
  0.23526579430954164    0.23456296392396783    0.23252936108814856    0.22933202647081707    0.22512244832415562    
  0.2199961658084611    0.21406027690663734    0.20754596956527085    0.20087272641945605    0.19461210768570053    
  0.1893648489327379    0.18562096890564472    0.18368403529989713    0.18368403529989713    0.18562096890564472    
  0.1893648489327379    0.19461210768570053    0.20087272641945605    0.20754596956527085    0.21406027690663734    
  0.2199961658084611    0.22512244832415562    0.22933202647081707    0.23252936108814856    0.23456296392396783    
  0.23526579430954164    0.2060617475202881    0.2058681408333596    0.20532252410958085    0.20446995628245648    
  0.20325696972621055    0.20151189617306978    0.19906346463294683    0.19591078533861023    0.1923102704863218    
  0.1887162293900687    0.18562096890564453    0.18340085001067735    0.1822568199572064    0.1822568199572064    
  0.18340085001067735    0.18562096890564453    0.1887162293900687    0.1923102704863218    0.19591078533861023    
  0.19906346463294683    0.20151189617306978    0.20325696972621055    0.20446995628245648    0.20532252410958085    
  0.2058681408333596    0.2060617475202881    0.19166543947811182    0.19171441360957797    0.19187710289447868    
  0.19214096199403397    0.19235907552618992    0.1922390379134387    0.19148251323234913    0.18998105009063154    
  0.18791312398132928    0.18567143573883613    0.18368403529989705    0.1822568199572067    0.1815278069170149    
  0.1815278069170149    0.1822568199572067    0.18368403529989705    0.18567143573883613    0.18791312398132928    
  0.18998105009063154    0.19148251323234913    0.1922390379134387    0.19235907552618992    0.19214096199403397    
  0.19187710289447868    0.19171441360957797    0.19166543947811182    0.19166543947811182    0.19171441360957797    
  0.19187710289447868    0.19214096199403397    0.19235907552618992    0.1922390379134387    0.19148251323234913    
  0.18998105009063154    0.18791312398132928    0.18567143573883613    0.18368403529989705    0.1822568199572067    
  0.1815278069170149    0.1815278069170149    0.1822568199572067    0.18368403529989705    0.18567143573883613    
  0.18791312398132928    0.18998105009063154    0.19148251323234913    0.1922390379134387    0.19235907552618992    
  0.19214096199403397    0.19187710289447868    0.19171441360957797    0.19166543947811182    0.2060617475202881    
  0.2058681408333596    0.20532252410958085    0.20446995628245648    0.20325696972621055    0.20151189617306978    
  0.19906346463294683    0.19591078533861023    0.1923102704863218    0.1887162293900687    0.18562096890564453    
  0.18340085001067735    0.1822568199572064    0.1822568199572064    0.18340085001067735    0.18562096890564453    
  0.1887162293900687    0.1923102704863218    0.19591078533861023    0.19906346463294683    0.20151189617306978    
  0.20325696972621055    0.20446995628245648    0.20532252410958085    0.2058681408333596    0.2060617475202881    
  0.23526579430954164    0.23456296392396783    0.23252936108814856    0.22933202647081707    0.22512244832415562    
  0.2199961658084611    0.21406027690663734    0.20754596956527085    0.20087272641945605    0.19461210768570053    
  0.1893648489327379    0.18562096890564472    0.18368403529989713    0.18368403529989713    0.18562096890564472    
  0.1893648489327379    0.19461210768570053    0.20087272641945605    0.20754596956527085    0.21406027690663734    
  0.2199961658084611    0.22512244832415562    0.22933202647081707    0.23252936108814856    0.23456296392396783    
  0.23526579430954164    0.279803486335434    0.278285635432217    0.2738705379041031    0.2669267556461094    
  0.2579523092774422    0.24749335761287133    0.2361188885677444    0.2244402395475858    0.21313852860635144    
  0.20295399014622378    0.19461210768570064    0.1887162293900689    0.18567143573883627    0.18567143573883627    
  0.1887162293900689    0.19461210768570064    0.20295399014622378    0.21313852860635144    0.2244402395475858    
  0.2361188885677444    0.24749335761287133    0.2579523092774422    0.2669267556461094    0.2738705379041031    
  0.278285635432217    0.279803486335434    0.33981529885245126    0.33713116449594543    0.3293164908986308    
  0.31705318457482395    0.30136836649482185    0.28347508170321883    0.26460512049413676    0.24590751866839108    
  0.22843195679223197    0.2131385286063514    0.2008727264194558    0.19231027048632193    0.18791312398132928    
  0.18791312398132928    0.19231027048632193    0.2008727264194558    0.2131385286063514    0.22843195679223197    
  0.24590751866839108    0.26460512049413676    0.28347508170321883    0.30136836649482185    0.31705318457482395    
  0.3293164908986308    0.33713116449594543    0.33981529885245126    0.41451909319154545    0.41027765292192014    
  0.39794725617669696    0.37868562299530406    0.3542809006199811    0.3268506688057153    0.2984812538263108    
  0.2709963503552923    0.24590751866839108    0.22444023954758568    0.20754596956527072    0.19591078533861034    
  0.18998105009063154    0.18998105009063154    0.19591078533861034    0.20754596956527072    0.22444023954758568    
  0.24590751866839108    0.2709963503552923    0.2984812538263108    0.3268506688057153    0.3542809006199811    
  0.37868562299530406    0.39794725617669696    0.41027765292192014    0.41451909319154545    0.5016649668338127    
  0.4954776180783749    0.4775360585717074    0.4496669942008302    0.4146775089338673    0.3758299689328926    
  0.3362326773593675    0.2984812538263109    0.2646051204941367    0.23611888856774432    0.2140602769066372    
  0.199063464632947    0.19148251323234922    0.19148251323234922    0.199063464632947    0.2140602769066372    
  0.23611888856774432    0.2646051204941367    0.2984812538263109    0.3362326773593675    0.3758299689328926    
  0.4146775089338673    0.4496669942008302    0.4775360585717074    0.4954776180783749    0.5016649668338127    
  0.5968458593176589    0.5884323225901124    0.5640823573413863    0.5264221528477415    0.479474428392007    
  0.4278507484587012    0.3758299689328928    0.3268506688057156    0.28347508170321895    0.24749335761287133    
  0.2199961658084611    0.20151189617306992    0.1922390379134388    0.1922390379134388    0.20151189617306992    
  0.2199961658084611    0.24749335761287133    0.28347508170321895    0.3268506688057156    0.3758299689328928    
  0.4278507484587012    0.479474428392007    0.5264221528477415    0.5640823573413863    0.5884323225901124    
  0.5968458593176589    0.6929126587087484    0.6822443856231987    0.6513640246861496    0.6036394363566429    
  0.5443210467234498    0.479474428392007    0.4146775089338673    0.3542809006199812    0.30136836649482185    
  0.2579523092774422    0.22512244832415568    0.20325696972621066    0.19235907552619005    0.19235907552619005    
  0.20325696972621066    0.22512244832415568    0.2579523092774422    0.30136836649482185    0.3542809006199812    
  0.4146775089338673    0.479474428392007    0.5443210467234498    0.6036394363566429    0.6513640246861496    
  0.6822443856231987    0.6929126587087484    0.7804418320769059    0.7678216461614752    0.7311923630607577    
  0.6743825089315572    0.6036394363566429    0.5264221528477415    0.4496669942008302    0.3786856229953043    
  0.31705318457482407    0.2669267556461094    0.22933202647081702    0.20446995628245665    0.1921409619940341    
  0.1921409619940341    0.20446995628245665    0.22933202647081702    0.2669267556461094    0.31705318457482407    
  0.3786856229953043    0.4496669942008302    0.5264221528477415    0.6036394363566429    0.6743825089315572    
  0.7311923630607577    0.7678216461614752    0.7804418320769059    0.8498375766785219    0.835822491921593    
  0.7949654720609439    0.7311923630607576    0.6513640246861497    0.5640823573413863    0.4775360585717074    
  0.39794725617669696    0.3293164908986309    0.27387053790410315    0.2325293610881485    0.2053225241095811    
  0.19187710289447876    0.19187710289447876    0.2053225241095811    0.2325293610881485    0.27387053790410315    
  0.3293164908986309    0.39794725617669696    0.4775360585717074    0.5640823573413863    0.6513640246861497    
  0.7311923630607576    0.7949654720609439    0.835822491921593    0.8498375766785219    0.8939143738947628    
  0.8791223910620057    0.835822491921593    0.7678216461614753    0.6822443856231988    0.5884323225901124    
  0.49547761807837487    0.4102776529219202    0.33713116449594543    0.27828563543221696    0.2345629639239678    
  0.20586814083335978    0.1917144136095781    0.1917144136095781    0.20586814083335978    0.2345629639239678    
  0.27828563543221696    0.33713116449594543    0.4102776529219202    0.49547761807837487    0.5884323225901124    
  0.6822443856231988    0.7678216461614753    0.835822491921593    0.8791223910620057    0.8939143738947628    
  0.9089462815022542    0.893914373894763    0.8498375766785219    0.7804418320769059    0.6929126587087484    
  0.596845859317659    0.5016649668338127    0.41451909319154545    0.3398152988524513    0.27980348633543406    
  0.23526579430954153    0.20606174752028827    0.19166543947811182    0.19166543947811182    0.20606174752028827    
  0.23526579430954153    0.27980348633543406    0.3398152988524513    0.41451909319154545    0.5016649668338127    
  0.596845859317659    0.6929126587087484    0.7804418320769059    0.8498375766785219    0.893914373894763    
  0.9089462815022542    0.8835175145893648    0.8701050729150187    0.8303759860901743    0.7667511547088801    
  0.6849104419999829    0.5933919020575774    0.5012989258717272    0.4160077053506091    0.3423199201624515    
  0.28281345373691263    0.23849595881123178    0.20937555321415716    0.19500716481183875    0.19500716481183875    
  0.20937555321415716    0.23849595881123178    0.28281345373691263    0.3423199201624515    0.4160077053506091    
  0.5012989258717272    0.5933919020575774    0.6849104419999829    0.7667511547088801    0.8303759860901743    
  0.8701050729150187    0.8835175145893648    0.8701050729150186    0.8568496654783171    0.8176719327401468    
  0.7551370369992152    0.6749444824767017    0.5854405277582989    0.4954170688032722    0.4119819197486269    
  0.33980061388909516    0.2814292613602694    0.2379073365794497    0.2092855577686128    0.19515549751236563    
  0.19515549751236563    0.2092855577686128    0.2379073365794497    0.2814292613602694    0.33980061388909516    
  0.41198191974862697    0.4954170688032722    0.5854405277582989    0.6749444824767017    0.7551370369992153    
  0.8176719327401468    0.8568496654783171    0.8701050729150186    0.8303759860901743    0.8176719327401468    
  0.780326208715166    0.7211991972568554    0.6459451272247873    0.5623339495979497    0.4783025525334529    
  0.40023770628836175    0.3324343447789658    0.2773783464686572    0.23618645579173894    0.20902538584390334    
  0.19559294928873072    0.19559294928873072    0.20902538584390334    0.23618645579173894    0.2773783464686572    
  0.3324343447789658    0.40023770628836175    0.4783025525334529    0.5623339495979497    0.6459451272247873    
  0.7211991972568554    0.780326208715166    0.8176719327401468    0.8303759860901743    0.7667511547088801    
  0.7551370369992151    0.7211991972568554    0.6679481916376104    0.6007173580738002    0.5263405029821852    
  0.45155581492831415    0.3817777228783828    0.3207861514526454    0.27093728895386704    0.23342639408518423    
  0.20857735789478868    0.19624914035586952    0.19624914035586952    0.20857735789478868    0.23342639408518423    
  0.27093728895386704    0.3207861514526454    0.3817777228783828    0.45155581492831415    0.5263405029821852    
  0.6007173580738002    0.6679481916376104    0.7211991972568554    0.7551370369992151    0.7667511547088801    
  0.6849104419999829    0.6749444824767018    0.6459451272247873    0.6007173580738002    0.5438848885913782    
  0.4810785948598528    0.4177207858438206    0.358206520537437    0.3057465054254671    0.26249964679367016    
  0.2296963315171094    0.2078181678756297    0.1969121736930269    0.19691217369302694    0.2078181678756297    
  0.2296963315171094    0.26249964679367016    0.3057465054254671    0.358206520537437    0.4177207858438206    
  0.4810785948598528    0.5438848885913782    0.6007173580738002    0.6459451272247873    0.6749444824767018    
  0.6849104419999829    0.5933919020575773    0.585440527758299    0.5623339495979497    0.5263405029821852    
  0.4810785948598527    0.43086610744161563    0.3798569461905301    0.3314962991015363    0.28842290331270826    
  0.2525344449053888    0.22503231620170402    0.20652485307479904    0.19724078030620193    0.19724078030620193    
  0.20652485307479904    0.22503231620170402    0.2525344449053888    0.28842290331270826    0.3314962991015363    
  0.3798569461905301    0.43086610744161563    0.4810785948598527    0.5263405029821852    0.5623339495979497    
  0.585440527758299    0.5933919020575773    0.5012989258717272    0.4954170688032723    0.4783025525334529    
  0.45155581492831415    0.4177207858438206    0.37985694619053    0.3409739577391591    0.3036607788558627    
  0.26999742240250957    0.2415760560282404    0.21951328202581413    0.2044989432575145    0.19690880599222282    
  0.19690880599222282    0.2044989432575145    0.21951328202581413    0.2415760560282404    0.26999742240250957    
  0.3036607788558627    0.3409739577391591    0.37985694619053006    0.4177207858438206    0.45155581492831415    
  0.4783025525334529    0.4954170688032723    0.5012989258717272    0.41600770535060905    0.41198191974862686    
  0.4002377062883617    0.38177772287838246    0.3582065205374369    0.33149629910153605    0.3036607788558626    
  0.27651871767705466    0.25161731469358195    0.23023166345913834    0.2133601094861902    0.20172393405515904    
  0.1957897564433033    0.1957897564433033    0.20172393405515904    0.2133601094861902    0.23023166345913834    
  0.25161731469358195    0.27651871767705466    0.3036607788558626    0.33149629910153605    0.3582065205374369    
  0.38177772287838246    0.40023770628836175    0.41198191974862686    0.41600770535060905    0.3423199201624514    
  0.33980061388909516    0.3324343447789657    0.3207861514526453    0.305746505425467    0.2884229033127081    
  0.2699974224025096    0.2516173146935819    0.23435271785904993    0.2191858200585474    0.2069817837114754    
  0.19843852716293459    0.19404242754168316    0.19404242754168316    0.19843852716293459    0.2069817837114754    
  0.2191858200585474    0.23435271785904993    0.2516173146935819    0.26999742240250957    0.2884229033127081    
  0.305746505425467    0.3207861514526453    0.3324343447789657    0.33980061388909516    0.3423199201624514    
  0.28281345373691263    0.2814292613602695    0.27737834646865706    0.27093728895386715    0.2624996467936702    
  0.2525344449053888    0.24157605602824048    0.23023166345913854    0.21918582005854742    0.20917792944400904    
  0.20093528167766866    0.1950778278582903    0.1920402456216795    0.1920402456216795    0.1950778278582903    
  0.20093528167766866    0.20917792944400904    0.21918582005854742    0.23023166345913854    0.24157605602824048    
  0.2525344449053888    0.2624996467936702    0.27093728895386715    0.2773783464686571    0.28142926136026947    
  0.28281345373691263    0.23849595881123184    0.23790733657944976    0.2361864557917389    0.23342639408518429    
  0.22969633151710933    0.22503231620170394    0.21951328202581427    0.21336010948619033    0.20698178371147566    
  0.20093528167766855    0.19581525746753115    0.1921267712883167    0.19020468127035228    0.19020468127035228    
  0.1921267712883167    0.19581525746753115    0.20093528167766855    0.20698178371147566    0.21336010948619033    
  0.21951328202581427    0.22503231620170394    0.22969633151710933    0.23342639408518429    0.2361864557917389    
  0.23790733657944976    0.23849595881123184    0.209375553214157    0.20928555776861263    0.20902538584390307    
  0.2085773578947886    0.20781816787562954    0.2065248530747989    0.20449894325751436    0.20172393405515895    
  0.19843852716293445    0.19507782785829017    0.1921267712883165    0.1899759191454018    0.18885499685084486    
  0.18885499685084486    0.1899759191454018    0.1921267712883165    0.19507782785829017    0.19843852716293445    
  0.20172393405515895    0.20449894325751436    0.2065248530747989    0.20781816787562957    0.2085773578947886    
  0.20902538584390307    0.20928555776861263    0.209375553214157    0.19500716481183875    0.1951554975123655    
  0.19559294928873067    0.19624914035586938    0.19691217369302685    0.1972407803062019    0.1969088059922227    
  0.19578975644330335    0.1940424275416832    0.19204024562167943    0.19020468127035228    0.18885499685084495    
  0.18815478527708449    0.18815478527708449    0.18885499685084495    0.19020468127035228    0.19204024562167937    
  0.1940424275416832    0.19578975644330335    0.1969088059922227    0.1972407803062019    0.19691217369302683    
  0.19624914035586938    0.19559294928873064    0.1951554975123655    0.19500716481183875    0.19500716481183875    
  0.1951554975123655    0.19559294928873067    0.19624914035586938    0.19691217369302685    0.1972407803062019    
  0.1969088059922227    0.19578975644330335    0.1940424275416832    0.19204024562167943    0.19020468127035228    
  0.18885499685084495    0.18815478527708449    0.18815478527708449    0.18885499685084495    0.19020468127035228    
  0.19204024562167937    0.1940424275416832    0.19578975644330335    0.1969088059922227    0.1972407803062019    
  0.19691217369302683    0.19624914035586938    0.19559294928873067    0.1951554975123655    0.19500716481183875    
  0.209375553214157    0.20928555776861263    0.20902538584390307    0.2085773578947886    0.20781816787562954    
  0.2065248530747989    0.20449894325751436    0.20172393405515895    0.19843852716293445    0.19507782785829017    
  0.1921267712883165    0.1899759191454018    0.18885499685084486    0.18885499685084486    0.1899759191454018    
  0.1921267712883165    0.19507782785829017    0.19843852716293445    0.20172393405515895    0.20449894325751436    
  0.2065248530747989    0.20781816787562954    0.2085773578947886    0.20902538584390307    0.20928555776861263    
  0.209375553214157    0.23849595881123184    0.23790733657944976    0.2361864557917389    0.23342639408518429    
  0.22969633151710933    0.22503231620170394    0.21951328202581427    0.21336010948619033    0.20698178371147566    
  0.20093528167766855    0.19581525746753115    0.1921267712883167    0.19020468127035228    0.19020468127035228    
  0.1921267712883167    0.19581525746753115    0.20093528167766855    0.20698178371147566    0.21336010948619033    
  0.21951328202581427    0.22503231620170394    0.22969633151710933    0.23342639408518429    0.2361864557917389    
  0.23790733657944976    0.23849595881123184    0.28281345373691263    0.28142926136026947    0.27737834646865706    
  0.27093728895386715    0.2624996467936702    0.2525344449053888    0.24157605602824048    0.23023166345913854    
  0.21918582005854742    0.20917792944400904    0.20093528167766866    0.1950778278582903    0.1920402456216795    
  0.1920402456216795    0.1950778278582903    0.20093528167766866    0.20917792944400904    0.21918582005854742    
  0.23023166345913854    0.24157605602824048    0.2525344449053888    0.2624996467936702    0.27093728895386715    
  0.27737834646865706    0.28142926136026947    0.28281345373691263    0.3423199201624514    0.33980061388909516    
  0.3324343447789657    0.3207861514526453    0.305746505425467    0.2884229033127081    0.2699974224025096    
  0.2516173146935819    0.23435271785904993    0.2191858200585474    0.2069817837114754    0.19843852716293459    
  0.19404242754168316    0.19404242754168316    0.19843852716293459    0.20698178371147544    0.2191858200585474    
  0.23435271785904993    0.2516173146935819    0.26999742240250957    0.2884229033127081    0.305746505425467    
  0.3207861514526453    0.3324343447789657    0.33980061388909516    0.3423199201624514    0.41600770535060905    
  0.41198191974862686    0.40023770628836175    0.38177772287838246    0.3582065205374369    0.33149629910153605    
  0.3036607788558626    0.27651871767705466    0.25161731469358195    0.23023166345913834    0.2133601094861902    
  0.20172393405515907    0.19578975644330332    0.1957897564433033    0.20172393405515907    0.2133601094861902    
  0.23023166345913834    0.25161731469358195    0.27651871767705466    0.3036607788558626    0.33149629910153605    
  0.3582065205374369    0.38177772287838246    0.40023770628836175    0.41198191974862686    0.41600770535060905    
  0.5012989258717272    0.4954170688032723    0.4783025525334529    0.45155581492831415    0.4177207858438206    
  0.37985694619053006    0.3409739577391592    0.3036607788558627    0.26999742240250957    0.2415760560282404    
  0.21951328202581413    0.2044989432575145    0.19690880599222282    0.19690880599222282    0.2044989432575145    
  0.21951328202581413    0.2415760560282404    0.26999742240250957    0.3036607788558627    0.3409739577391592    
  0.37985694619053    0.4177207858438206    0.45155581492831415    0.4783025525334529    0.4954170688032723    
  0.5012989258717272    0.5933919020575773    0.585440527758299    0.5623339495979497    0.5263405029821852    
  0.4810785948598527    0.43086610744161563    0.3798569461905301    0.3314962991015363    0.28842290331270826    
  0.2525344449053888    0.22503231620170402    0.20652485307479904    0.19724078030620193    0.19724078030620193    
  0.20652485307479904    0.22503231620170402    0.2525344449053888    0.28842290331270826    0.3314962991015363    
  0.3798569461905301    0.43086610744161563    0.4810785948598527    0.5263405029821852    0.5623339495979497    
  0.585440527758299    0.5933919020575773    0.6849104419999829    0.6749444824767018    0.6459451272247873    
  0.6007173580738002    0.5438848885913782    0.4810785948598528    0.4177207858438206    0.358206520537437    
  0.3057465054254671    0.26249964679367016    0.2296963315171094    0.2078181678756297    0.1969121736930269    
  0.19691217369302694    0.2078181678756297    0.2296963315171094    0.26249964679367016    0.3057465054254671    
  0.358206520537437    0.4177207858438206    0.4810785948598528    0.5438848885913782    0.6007173580738002    
  0.6459451272247873    0.6749444824767018    0.6849104419999829    0.7667511547088801    0.7551370369992151    
  0.7211991972568554    0.6679481916376104    0.6007173580738002    0.5263405029821852    0.45155581492831415    
  0.3817777228783828    0.3207861514526454    0.27093728895386704    0.23342639408518423    0.20857735789478868    