#     DFTpy    
  CRYSTAL 
    
  PRIMVEC    
  4.592629138624971    -2.5233000000000005e-10    4.782700000000001e-10    
  -2.5233000000000005e-10    4.59262913835811    2.3045000000000004e-10    
  8.739800000000001e-10    4.2119000000000007e-10    8.413785590014731    
  PRIMCOORD    
  4    1    
  Si    2.2963145692249904    2.2963145704427905    2.5855079286012606    
  Si    8.515300000000002e-10    -7.880800000000002e-10    1.6213848635777905    
  Si    1.3061000000000003e-10    5.951900000000001e-10    6.792400721664571    
  Si    2.296314569913471    2.296314568698271    5.828277666894551    
  BEGIN_BLOCK_DATAGRID_3D    
  3d_datagrid_density    
  BEGIN_DATAGRID_3D#0    
  46    46    81    
  0.0    0.0    0.0    
  4.5926291557555645    -2.523300009411957e-10    4.782700017839564e-10    
  -2.523300009411957e-10    4.592629155488705    2.3045000085958295e-10    
  8.739800032599622e-10    4.2119000157104684e-10    8.413785621398311    
  0.15748734910190018    0.15566467379794865    0.15035772760142566    0.14201179235902442    0.13126829564803538    
  0.11887341284211972    0.10560237114488924    0.0921883199191655    0.07925090698188572    0.06724364997140445    
  0.05644158875008794    0.04696793948271891    0.03883814365803872    0.0319993727772846    0.026356282759767004    
  0.02178579890751358    0.018148635925864604    0.015303085995756529    0.013120195715465731    0.011494443920116157    
  0.01034564993111386    0.009614737269762998    0.009260387230617293    0.009260387230617279    0.00961473726976296    
  0.01034564993111388    0.011494443920116174    0.013120195715465731    0.015303085995756568    0.018148635925864545    
  0.021785798907513577    0.026356282759767015    0.03199937277728461    0.03883814365803873    0.04696793948271892    
  0.05644158875008792    0.06724364997140445    0.07925090698188576    0.0921883199191655    0.10560237114488928    
  0.11887341284211972    0.13126829564803538    0.14201179235902442    0.15035772760142566    0.1556646737979486    
  0.15748734910190018    0.1556646737979486    0.15386612311602482    0.14862989204851676    0.14039631623393534    
  0.12979873963468577    0.1175726135066696    0.10448096320142289    0.09124510771414984    0.07847517485905194    
  0.06661859801532541    0.055947631950047816    0.0465849982549107    0.03854687708918787    0.03178184469142534    
  0.026196491673010174    0.021670125724271197    0.01806603005139821    0.015244891693738412    0.013079729242281114    
  0.011466523184581605    0.010326203062490038    0.00960049551770622    0.00924861450379446    0.009248614503794453    
  0.00960049551770616    0.010326203062490064    0.011466523184581622    0.01307972924228112    0.015244891693738482    
  0.018066030051398174    0.021670125724271194    0.02619649167301021    0.03178184469142538    0.03854687708918791    
  0.04658499825491071    0.05594763195004784    0.06661859801532544    0.07847517485905198    0.09124510771414983    
  0.10448096320142289    0.1175726135066696    0.12979873963468577    0.14039631623393534    0.1486298920485168    
  0.15386612311602482    0.1556646737979486    0.1503577276014256    0.1486298920485168    0.1436006419049346    
  0.1356951375904823    0.1255224824795817    0.11378667429381417    0.10121550954111974    0.08849642439459521    
  0.07621231035781685    0.06479309039552411    0.05450287117580434    0.045462830981115955    0.037691285118255154    
  0.03114097837351038    0.02572419560482192    0.02132712649431322    0.01782037135187797    0.01507141198913203    
  0.012958889688250177    0.011383103130449136    0.010268184238589786    0.009558159102845762    0.009213746403970007    
  0.009213746403969983    0.009558159102845732    0.010268184238589812    0.011383103130449141    0.012958889688250173    
  0.01507141198913208    0.017820371351877938    0.02132712649431322    0.025724195604821948    0.031140978373510403    
  0.037691285118255154    0.04546283098111596    0.05450287117580434    0.06479309039552411    0.07621231035781688    
  0.08849642439459518    0.10121550954111971    0.11378667429381421    0.1255224824795817    0.1356951375904823    
  0.14360064190493455    0.1486298920485168    0.1503577276014256    0.14201179235902445    0.14039631623393536    
  0.13569513759048235    0.12830752952542104    0.11880269452019915    0.10783469641165508    0.09607684964974837    
  0.08416484972186274    0.07263999209487604    0.06190511414204601    0.05221133541577679    0.043677119876399016    
  0.03632412223446797    0.030111862021302286    0.02496171257239363    0.020770488858364945    0.0174198316250306    
  0.014787432887751004    0.012760482078695172    0.011245946257805364    0.01017292341647951    0.009488959332864848    
  0.009157027717449787    0.009157027717449757    0.009488959332864798    0.010172923416479527    0.011245946257805374    
  0.012760482078695182    0.014787432887751037    0.017419831625030566    0.020770488858364945    0.024961712572393664    
  0.03011186202130231    0.036324122234468    0.04367711987639901    0.05221133541577678    0.06190511414204601    
  0.07263999209487604    0.08416484972186274    0.09607684964974837    0.10783469641165505    0.1188026945201991    
  0.12830752952542104    0.1356951375904823    0.14039631623393534    0.14201179235902445    0.13126829564803533    
  0.12979873963468574    0.1255224824795817    0.1188026945201991    0.11015495250905545    0.10016879199234503    
  0.08944910300868725    0.07856736591723361    0.06801301687627773    0.058154451551352244    0.049225648898486664    
  0.0413411298898316    0.034526859072744324    0.028751374742639512    0.02394781185849705    0.02002620067558418    
  0.01688160750239366    0.01440417994934297    0.012491749712313802    0.011059745611190377    0.010043581011132409    
  0.009395216128491563    0.009080410074732257    0.009080410074732238    0.009395216128491521    0.010043581011132447    
  0.01105974561119038    0.01249174971231379    0.014404179949343059    0.016881607502393602    0.020026200675584162    
  0.02394781185849708    0.028751374742639516    0.03452685907274436    0.041341129889831595    0.049225648898486664    
  0.058154451551352244    0.06801301687627773    0.07856736591723362    0.08944910300868719    0.10016879199234505    
  0.11015495250905545    0.1188026945201991    0.12552248247958167    0.12979873963468574    0.13126829564803533    
  0.11887341284211962    0.1175726135066696    0.11378667429381421    0.10783469641165508    0.100168791992345    
  0.0913046566026356    0.08177070016646375    0.0720670695353489    0.06262497513936247    0.05377319172693921    
  0.045725250474827325    0.03859059889987043    0.03240015763876946    0.027132992561821632    0.02273550586381057    
  0.01913212160197739    0.016232395503055976    0.013940170846814735    0.012165313167101208    0.010832971994566528    
  0.009885793191700517    0.009280757295131989    0.008986822749172816    0.008986822749172799    0.009280757295131963    
  0.009885793191700538    0.010832971994566546    0.012165313167101208    0.013940170846814795    0.01623239550305594    
  0.019132121601977397    0.022735505863810603    0.027132992561821646    0.0324001576387695    0.03859059889987043    
  0.04572525047482732    0.05377319172693919    0.0626249751393625    0.07206706953534889    0.08177070016646375    
  0.0913046566026356    0.10016879199234503    0.10783469641165505    0.11378667429381417    0.11757261350666956    
  0.11887341284211962    0.10560237114488921    0.10448096320142286    0.10121550954111971    0.09607684964974837    
  0.08944910300868726    0.08177070016646375    0.07349116010370359    0.06503696208045807    0.05677827560900838    
  0.04900132912903208    0.04189702728693011    0.03556882304327061    0.030052659653079024    0.025338425332378317    
  0.02138576380351349    0.018133238019273065    0.015504895059362053    0.013418805027377988    0.011797702527501805    
  0.010577178533312564    0.00970756405487519    0.009151211830103114    0.008880672607736433    0.008880672607736404    
  0.009151211830103081    0.009707564054875214    0.010577178533312574    0.011797702527501801    0.013418805027378019    
  0.015504895059362025    0.018133238019273062    0.021385763803513532    0.025338425332378334    0.030052659653079048    
  0.0355688230432706    0.0418970272869301    0.04900132912903208    0.05677827560900837    0.06503696208045809    
  0.07349116010370359    0.08177070016646375    0.08944910300868729    0.09607684964974832    0.10121550954111967    
  0.10448096320142293    0.10560237114488921    0.09218831991916547    0.09124510771414984    0.08849642439459515    
  0.08416484972186268    0.07856736591723361    0.07206706953534892    0.06503696208045809    0.05783165088555738    
  0.05076087520856442    0.04406791956254995    0.03792027209291352    0.032414615203369114    0.027591055573624512    
  0.02344907364360623    0.019960002936513094    0.017075179282789326    0.01473247886126688    0.012864256418756069    
  0.011406420062191641    0.010305111257335825    0.009518276558383333    0.009013720641224722    0.008767950096151677    
  0.008767950096151654    0.009013720641224693    0.009518276558383358    0.010305111257335825    0.011406420062191653    
  0.01286425641875611    0.014732478861266843    0.01707517928278933    0.01996000293651312    0.023449073643606235    
  0.027591055573624523    0.03241461520336913    0.03792027209291351    0.04406791956254995    0.05076087520856445    
  0.05783165088555738    0.06503696208045807    0.07206706953534892    0.0785673659172336    0.08416484972186272    
  0.08849642439459518    0.09124510771414984    0.09218831991916547    0.07925090698188565    0.07847517485905194    
  0.07621231035781688    0.072639992094876    0.06801301687627773    0.06262497513936248    0.05677827560900837    
  0.05076087520856437    0.044825939075672235    0.039175979911113816    0.033955605532349956    0.029253868077328028    
  0.02511309433761593    0.021539787293511387    0.018514434853010533    0.01599929069474147    0.013945124112206123    
  0.012298234713769752    0.011007394709786353    0.010028736709143424    0.009327233376604195    0.008875919615855512    
  0.008655483006443853    0.008655483006443828    0.00887591961585549    0.009327233376604207    0.010028736709143437    
  0.011007394709786358    0.012298234713769774    0.013945124112206093    0.015999290694741475    0.01851443485301055    
  0.021539787293511376    0.025113094337615955    0.029253868077328028    0.03395560553234996    0.039175979911113816    
  0.04482593907567227    0.05076087520856435    0.05677827560900837    0.06262497513936248    0.06801301687627773    
  0.07263999209487597    0.07621231035781688    0.07847517485905191    0.07925090698188565    0.06724364997140443    
  0.06661859801532546    0.06479309039552414    0.061905114142046025    0.05815445155135228    0.05377319172693927    
  0.049001329129032135    0.044067919562549976    0.039175979911113844    0.03449139333418069    0.03013725070597721    
  0.02619383017543121    0.022702948874180895    0.019674987832521806    0.017096977183995672    0.014940386918623585    
  0.013167867762991425    0.011738833216749515    0.01061391127473066    0.009758081236961735    0.009142390843121902    
  0.008744625419137623    0.00854961699617037    0.008549616996170345    0.0087446254191376    0.009142390843121915    
  0.00975808123696173    0.01061391127473066    0.011738833216749504    0.013167867762991437    0.014940386918623573    
  0.01709697718399569    0.01967498783252183    0.02270294887418093    0.0261938301754312    0.030137250705977198    
  0.03449139333418069    0.03917597991111389    0.04406791956254995    0.049001329129032115    0.05377319172693928    
  0.05815445155135225    0.061905114142046046    0.06479309039552412    0.06661859801532546    0.06724364997140443    
  0.05644158875008794    0.055947631950047816    0.054502871175804365    0.052211335415776744    0.04922564889848667    
  0.04572525047482734    0.041897027286930094    0.037920272092913494    0.03395560553234996    0.030137250705977205    
  0.026568306452995703    0.02331892679826471    0.02042765487548333    0.017906052319075987    0.01574580025834479    
  0.013926341019339565    0.012421025083824035    0.011200892940865584    0.01023676413416901    0.009501010429010743    
  0.008969750323619491    0.008624916505334496    0.008455123485983236    0.008455123485983212    0.008624916505334519    
  0.008969750323619498    0.009501010429010737    0.01023676413416901    0.011200892940865612    0.012421025083824005    
  0.013926341019339535    0.015745800258344815    0.017906052319075976    0.02042765487548337    0.023318926798264736    
  0.026568306452995682    0.030137250705977205    0.033955605532349976    0.03792027209291347    0.04189702728693009    
  0.04572525047482732    0.04922564889848667    0.052211335415776744    0.054502871175804324    0.05594763195004785    
  0.05644158875008794    0.046967939482718955    0.04658499825491078    0.04546283098111599    0.043677119876399016    
  0.041341129889831664    0.03859059889987047    0.03556882304327065    0.032414615203369114    0.02925386807732807    
  0.02619383017543122    0.023318926798264746    0.02068807311952074    0.018334603702487063    0.01626973293273496    
  0.014488859205759362    0.012978426466206778    0.011720865146501004    0.010696657072095078    0.009884744928922488    
  0.009263519078471266    0.00881343264781247    0.008519988750365949    0.008374906409344596    0.008374906409344584    
  0.008519988750365961    0.008813432647812482    0.009263519078471266    0.009884744928922488    0.010696657072095078    
  0.011720865146500998    0.012978426466206778    0.01448885920575937    0.016269732932734968    0.018334603702487122    
  0.02068807311952074    0.02331892679826473    0.02619383017543122    0.02925386807732806    0.03241461520336912    
  0.03556882304327064    0.03859059889987051    0.04134112988983162    0.043677119876398995    0.04546283098111599    
  0.04658499825491076    0.046967939482718955    0.038838143658038754    0.03854687708918789    0.03769128511825518    
  0.03632412223446797    0.03452685907274436    0.032400157638769515    0.030052659653079048    0.02759105557362454    
  0.025113094337615976    0.022702948874180878    0.020427654875483366    0.01833460370248712    0.016451320766541017    
  0.014788350107193914    0.01334443170114028    0.012111854036155466    0.011079921420745183    0.010235910711005585    
  0.009564819798253523    0.0090500759469726    0.008676144085921586    0.008431617636368113    0.008310408883132846    
  0.008310408883132822    0.008431617636368113    0.008676144085921596    0.0090500759469726    0.009564819798253523    
  0.010235910711005585    0.011079921420745183    0.01211185403615543    0.01334443170114028    0.014788350107193914    
  0.016451320766541058    0.01833460370248712    0.020427654875483352    0.022702948874180878    0.025113094337615976    
  0.02759105557362454    0.03005265965307906    0.03240015763876952    0.03452685907274436    0.03632412223446802    
  0.037691285118255174    0.038546877089187914    0.038838143658038754    0.03199937277728455    0.03178184469142539    
  0.031140978373510386    0.030111862021302314    0.028751374742639505    0.027132992561821622    0.02533842533237831    
  0.023449073643606218    0.021539787293511352    0.01967498783252179    0.017906052319076004    0.01626973293273496    
  0.014788350107193884    0.013472081900520544    0.012322537755851464    0.011336213527109357    0.010506715078625039    
  0.009825494975126858    0.009281891474016684    0.00886380657953008    0.008559665992396756    0.008360744432930452    
  0.008262183429475671    0.008262183429475671    0.008360744432930452    0.008559665992396803    0.00886380657953008    
  0.009281891474016672    0.009825494975126834    0.010506715078625026    0.011336213527109323    0.0123225377558515    
  0.013472081900520532    0.014788350107193919    0.01626973293273496    0.017906052319075983    0.0196749878325218    
  0.021539787293511383    0.02344907364360623    0.02533842533237831    0.027132992561821646    0.028751374742639512    
  0.03011186202130231    0.031140978373510396    0.031781844691425386    0.03199937277728455    0.026356282759766963    
  0.026196491673010195    0.025724195604821986    0.02496171257239363    0.023947811858497026    0.022735505863810585    
  0.02138576380351354    0.019960002936513094    0.018514434853010558    0.017096977183995648    0.015745800258344825    
  0.01448885920575938    0.01334443170114028    0.012322537755851452    0.011426720423845802    0.010655761354350538    
  0.010005206419207569    0.009468606802328146    0.009038376487501948    0.008706441883579432    0.008465045806210741    
  0.00830774158834793    0.00823015016881094    0.008230150168810868    0.00830774158834793    0.008465045806210764    
  0.00870644188357941    0.009038376487501948    0.009468606802328134    0.010005206419207581    0.010655761354350549    
  0.011426720423845814    0.012322537755851464    0.013344431701140304    0.014488859205759392    0.015745800258344822    
  0.017096977183995637    0.018514434853010582    0.01996000293651311    0.021385763803513504    0.02273550586381059    
  0.023947811858497044    0.024961712572393612    0.02572419560482201    0.026196491673010195    0.026356282759766963    
  0.02178579890751356    0.021670125724271214    0.021327126494313217    0.020770488858364924    0.02002620067558415    
  0.019132121601977373    0.01813323801927304    0.017075179282789343    0.015999290694741496    0.01494038691862355    
  0.01392634101933953    0.012978426466206802    0.012111854036155442    0.011336213527109357    0.010655761354350549    
  0.010069955664279033    0.009574760828910475    0.009164587562507192    0.00883395349707201    0.008578043474414378    
  0.008392323253331016    0.0082721821616853    0.008213414641862959    0.008213414641862937    0.008272182161685347    
  0.00839232325333104    0.008578043474414331    0.00883395349707201    0.009164587562507168    0.00957476082891044    
  0.010069955664279033    0.01065576135435056    0.011336213527109357    0.012111854036155476    0.012978426466206784    
  0.013926341019339513    0.01494038691862355    0.015999290694741503    0.01707517928278937    0.018133238019273044    
  0.019132121601977407    0.020026200675584183    0.02077048885836493    0.02132712649431322    0.021670125724271246    
  0.02178579890751356    0.01814863592586456    0.018066030051398205    0.017820371351877976    0.0174198316250306    
  0.016881607502393616    0.01623239550305596    0.015504895059362053    0.01473247886126688    0.013945124112206164    
  0.01316786776299143    0.012421025083824018    0.011720865146501063    0.01107992142074517    0.010506715078625026    
  0.010005206419207522    0.009574760828910464    0.009211350253175361    0.00890980854508542    0.008665883459458918    
  0.008476758585010674    0.008339995681013417    0.008252330072451656    0.008209884042566179    0.008209884042566179    
  0.008252330072451656    0.008339995681013464    0.008476758585010674    0.008665883459458918    0.00890980854508542    
  0.009211350253175314    0.00957476082891044    0.010005206419207522    0.010506715078625014    0.011079921420745195    
  0.011720865146501034    0.012421025083824005    0.013167867762991437    0.013945124112206157    0.014732478861266914    
  0.015504895059362067    0.016232395503056007    0.016881607502393627    0.017419831625030618    0.017820371351877994    
  0.018066030051398223    0.01814863592586456    0.015303085995756522    0.015244891693738447    0.01507141198913205    
  0.014787432887751037    0.014404179949343033    0.013940170846814764    0.01341880502737801    0.012864256418756027    
  0.012298234713769769    0.011738833216749468    0.011200892940865584    0.010696657072095068    0.010235910711005538    
  0.009825494975126846    0.009468606802328146    0.009164587562507145    0.008909808545085444    0.0086995839390517    
  0.00853010174867558    0.008399077095110561    0.008304814646524805    0.008244895097300276    0.008216136848986439    
  0.008216136848986392    0.008244895097300253    0.008304814646524852    0.008399077095110561    0.00853010174867558    
  0.008699583939051675    0.00890980854508542    0.009164587562507145    0.009468606802328156    0.009825494975126834    
  0.010235910711005575    0.010696657072095056    0.011200892940865584    0.011738833216749468    0.012298234713769781    
  0.012864256418756027    0.013418805027378    0.013940170846814799    0.014404179949343034    0.01478743288775103    
  0.01507141198913205    0.015244891693738438    0.015303085995756522    0.013120195715465766    0.013079729242281126    
  0.012958889688250225    0.012760482078695165    0.01249174971231379    0.012165313167101255    0.01179770252750179    
  0.011406420062191712    0.01100739470978641    0.01061391127473065    0.010236764134169003    0.00988474492892256    
  0.009564819798253557    0.009281891474016719    0.009038376487502007    0.008833953497071988    0.008665883459458918    
  0.00853010174867558    0.008422688034579332    0.008340790431873999    0.008282402368768869    0.008245519629754474    
  0.008227897541023476    0.008227897541023429    0.008245519629754568    0.008282402368768893    0.008340790431873952    
  0.008422688034579332    0.008530101748675533    0.008665883459458965    0.008833953497071964    0.009038376487501982    
  0.009281891474016696    0.00956481979825357    0.009884744928922547    0.01023676413416899    0.01061391127473065    
  0.01100739470978641    0.011406420062191742    0.011797702527501787    0.012165313167101267    0.012491749712313812    
  0.01276048207869516    0.01295888968825025    0.013079729242281138    0.013120195715465766    0.011494443920116122    
  0.011466523184581622    0.011383103130449119    0.011245946257805358    0.011059745611190356    0.01083297199456652    
  0.010577178533312574    0.010305111257335837    0.010028736709143444    0.00975808123696173    0.009501010429010743    
  0.009263519078471312    0.009050075946972625    0.008863806579530115    0.00870644188357941    0.008578043474414378    
  0.008476758585010699    0.008399077095110632    0.008340790431873952    0.008298156658684023    0.008268476611162128    
  0.008249890915991428    0.008241018432580856    0.008241018432580856    0.008249890915991428    0.008268476611162175    
  0.008298156658684023    0.008340790431873977    0.008399077095110586    0.008476758585010699    0.008578043474414354    
  0.008706441883579363    0.008863806579530068    0.009050075946972635    0.009263519078471302    0.009501010429010732    
  0.00975808123696173    0.010028736709143449    0.010305111257335884    0.01057717853331257    0.010832971994566537    
  0.011059745611190386    0.01124594625780537    0.011383103130449176    0.011466523184581634    0.011494443920116122    
  0.010345649931113886    0.010326203062490106    0.010268184238589807    0.01017292341647956    0.01004358101113241    
  0.009885793191700527    0.009707564054875219    0.009518276558383353    0.009327233376604271    0.00914239084312192    
  0.008969750323619515    0.008813432647812541    0.00867614408592162    0.00855966599239678    0.008465045806210788    
  0.008392323253331063    0.008339995681013441    0.008304814646524827    0.0082824023687688    0.008268476611162175    
  0.008259876764674228    0.008254800517947981    0.008252417058200076    0.00825241705820003    0.008254800517948028    
  0.008259876764674275    0.008268476611162128    0.0082824023687688    0.008304814646524805    0.008339995681013464    
  0.00839232325333097    0.008465045806210788    0.008559665992396768    0.008676144085921633    0.008813432647812529    
  0.008969750323619498    0.00914239084312192    0.009327233376604266    0.009518276558383392    0.009707564054875249    
  0.00988579319170054    0.01004358101113241    0.010172923416479586    0.010268184238589866    0.010326203062490096    
  0.010345649931113886    0.009614737269762972    0.009600495517706167    0.009558159102845696    0.009488959332864805    
  0.009395216128491509    0.009280757295131966    0.009151211830103086    0.00901372064122471    0.008875919615855507    
  0.008744625419137576    0.008624916505334484    0.008519988750365984    0.008431617636368103    0.008360744432930474    
  0.00830774158834793    0.008272182161685277    0.008252330072451703    0.0082448950973003    0.00824551962975452    
  0.008249890915991428    0.008254800517947981    0.008258515148756529    0.008260423425441752    0.008260423425441752    
  0.008258515148756529    0.008254800517947981    0.008249890915991428    0.008245519629754474    0.008244895097300276    
  0.008252330072451679    0.00827218216168523    0.008307741588347952    0.008360744432930452    0.008431617636368113    
  0.008519988750365996    0.008624916505334472    0.008744625419137576    0.008875919615855519    0.009013720641224751    
  0.009151211830103095    0.009280757295132001    0.009395216128491521    0.009488959332864807    0.009558159102845734    
  0.009600495517706175    0.009614737269762972    0.009260387230617279    0.00924861450379449    0.009213746403969963    
  0.00915702771744978    0.009080410074732252    0.008986822749172835    0.008880672607736428    0.00876795009615165    
  0.008655483006443823    0.008549616996170352    0.008455123485983236    0.008374906409344572    0.008310408883132846    
  0.008262183429475696    0.008230150168810915    0.008213414641862937    0.008209884042566154    0.008216136848986439    
  0.008227897541023335    0.008241018432580903    0.00825241705820003    0.008260423425441659    0.00826446400751404    
  0.008264464007513994    0.008260423425441706    0.008252417058199983    0.008241018432580809    0.008227897541023335    
  0.00821613684898637    0.008209884042566154    0.008213414641862937    0.008230150168810868    0.008262183429475684    
  0.008310408883132881    0.008374906409344584    0.008455123485983236    0.008549616996170352    0.008655483006443853    
  0.008767950096151689    0.00888067260773647    0.008986822749172844    0.009080410074732244    0.009157027717449775    
  0.00921374640397002    0.009248614503794468    0.009260387230617279    0.009260387230617282    0.009248614503794501    
  0.00921374640396998    0.00915702771744978    0.009080410074732247    0.00898682274917282    0.008880672607736458    
  0.008767950096151667    0.00865548300644384    0.008549616996170352    0.008455123485983224    0.008374906409344584    
  0.008310408883132869    0.00826218342947573    0.008230150168810893    0.008213414641862937    0.008209884042566179    
  0.008216136848986392    0.008227897541023429    0.008241018432580856    0.00825241705820003    0.008260423425441706    
  0.008264464007514087    0.008264464007513994    0.008260423425441752    0.008252417058199983    0.008241018432580809    
  0.008227897541023429    0.008216136848986345    0.008209884042566132    0.008213414641862912    0.008230150168810893    
  0.008262183429475671    0.008310408883132869    0.008374906409344561    0.008455123485983224    0.008549616996170345    
  0.00865548300644384    0.008767950096151677    0.008880672607736466    0.008986822749172844    0.009080410074732252    
  0.009157027717449752    0.009213746403970036    0.009248614503794488    0.009260387230617282    0.00961473726976295    
  0.009600495517706163    0.009558159102845697    0.009488959332864817    0.00939521612849152    0.009280757295131975    
  0.009151211830103085    0.009013720641224687    0.00887591961585549    0.008744625419137588    0.008624916505334496    
  0.008519988750366018    0.00843161763636809    0.00836074443293044    0.008307741588347952    0.00827218216168523    
  0.008252330072451656    0.008244895097300276    0.008245519629754568    0.008249890915991428    0.008254800517947934    
  0.008258515148756529    0.008260423425441706    0.008260423425441752    0.008258515148756576    0.008254800517947981    
  0.008249890915991428    0.00824551962975452    0.008244895097300276    0.008252330072451656    0.008272182161685206    
  0.00830774158834793    0.008360744432930427    0.008431617636368103    0.008519988750365984    0.00862491650533446    
  0.008744625419137588    0.008875919615855512    0.009013720641224722    0.009151211830103098    0.009280757295132001    
  0.009395216128491507    0.009488959332864817    0.009558159102845727    0.009600495517706144    0.00961473726976295    
  0.010345649931113877    0.010326203062490116    0.010268184238589804    0.010172923416479577    0.010043581011132428    
  0.009885793191700526    0.009707564054875236    0.00951827655838334    0.009327233376604249    0.00914239084312192    
  0.00896975032361951    0.008813432647812517    0.008676144085921633    0.00855966599239685    0.008465045806210764    
  0.00839232325333104    0.008339995681013464    0.008304814646524852    0.008282402368768847    0.008268476611162175    
  0.008259876764674275    0.008254800517947981    0.008252417058200076    0.008252417058200076    0.008254800517947981    
  0.008259876764674228    0.008268476611162128    0.0082824023687688    0.008304814646524805    0.008339995681013441    
  0.008392323253330993    0.008465045806210764    0.008559665992396803    0.008676144085921655    0.008813432647812517    
  0.008969750323619486    0.009142390843121915    0.009327233376604236    0.00951827655838338    0.009707564054875245    
  0.009885793191700543    0.010043581011132402    0.010172923416479594    0.010268184238589842    0.010326203062490102    
  0.010345649931113877    0.011494443920116136    0.011466523184581613    0.011383103130449147    0.011245946257805362    