#     DFTpy    
  CRYSTAL 
    
  PRIMVEC    
  4.454850264466221    -2.4476000000000004e-10    4.6392000000000004e-10    
  -2.4476000000000004e-10    4.454850264207361    2.2354000000000006e-10    
  8.477600000000001e-10    4.0856000000000003e-10    8.161372022314291    
  PRIMCOORD    
  4    1    
  Si    2.2274251321482406    2.227425133329501    2.5079426907432203    
  Si    8.2599e-10    -7.644400000000001e-10    1.5727433176704604    
  Si    1.2669000000000003e-10    5.773300000000001e-10    6.588628700014631    
  Si    2.2274251328160704    2.2274251316373204    5.653429336887721    
  BEGIN_BLOCK_DATAGRID_3D    
  3d_datagrid_density    
  BEGIN_DATAGRID_3D#0    
  46    46    81    
  0.0    0.0    0.0    
  4.454850281082897    -2.447600009129595e-10    4.639200017304305e-10    
  -2.447600009129595e-10    4.454850280824038    2.2354000083380854e-10    
  8.47760003162161e-10    4.0856000152393664e-10    8.161372052756363    
  0.18076847385729408    0.1787426330664058    0.17282258076269685    0.16346118597590928    0.15134923241355155    
  0.1373263461034539    0.12227557234626199    0.10702281384747511    0.09226014375716125    0.07850333826954985    
  0.06608385079312076    0.0551674915117097    0.045788250214242765    0.03788653479936676    0.03134472942065223    
  0.02601636843711245    0.021747274853455633    0.018388844573540973    0.015805666178391145    0.013880450429530393    
  0.012517932223858257    0.01164742993758103    0.01122323741505411    0.011223237415054084    0.011647429937581033    
  0.012517932223858236    0.01388045042953039    0.015805666178391145    0.018388844573540973    0.02174727485345565    
  0.02601636843711247    0.03134472942065223    0.03788653479936674    0.04578825021424277    0.05516749151170975    
  0.06608385079312079    0.07850333826954985    0.0922601437571613    0.10702281384747507    0.12227557234626199    
  0.13732634610345393    0.15134923241355155    0.16346118597590925    0.17282258076269683    0.17874263306640575    
  0.18076847385729408    0.17874263306640575    0.17674226006265664    0.17089730713586268    0.1616564007779428    
  0.14970261905557736    0.1358645936076216    0.12101236023885724    0.10595876458827976    0.09138468381737126    
  0.07779786087790423    0.06552537264616526    0.05473202241935599    0.045453276285483936    0.03763234636806843    
  0.03115471992051149    0.02587671640372069    0.021646470141773313    0.018317346504474936    0.015755722767727177    
  0.013845931880462245    0.012494034563931705    0.011630245880358494    0.011209326318471907    0.011209326318471878    
  0.011630245880358494    0.012494034563931705    0.013845931880462235    0.015755722767727187    0.01831734650447492    
  0.02164647014177333    0.025876716403720745    0.03115471992051148    0.03763234636806839    0.04545327628548398    
  0.054732022419356034    0.06552537264616527    0.07779786087790423    0.09138468381737132    0.10595876458827973    
  0.12101236023885723    0.1358645936076216    0.14970261905557733    0.1616564007779428    0.17089730713586268    
  0.17674226006265664    0.17874263306640575    0.17282258076269683    0.17089730713586276    0.16527348137790143    
  0.15638644988220682    0.14489583863915728    0.13159762233403613    0.11732390077867759    0.10284994075419873    
  0.08882465221576193    0.07573288261482197    0.06388913344297846    0.053455136006817575    0.04447037538582833    
  0.0368859928250638    0.030596405190816453    0.025466040252918633    0.021349791405189146    0.01810676644859384    
  0.015608533907269887    0.01374413214661206    0.012423483061441566    0.011579433253103876    0.011168129605183217    
  0.01116812960518321    0.011579433253103866    0.01242348306144156    0.013744132146612081    0.015608533907269904    
  0.018106766448593832    0.021349791405189174    0.025466040252918647    0.030596405190816425    0.03688599282506377    
  0.04447037538582836    0.05345513600681763    0.06388913344297847    0.07573288261482197    0.08882465221576191    
  0.10284994075419875    0.11732390077867753    0.13159762233403619    0.14489583863915725    0.1563864498822068    
  0.16527348137790146    0.17089730713586282    0.17282258076269683    0.16346118597590928    0.16165640077794283    
  0.1563864498822068    0.14806325595177702    0.13730682760653348    0.12486013213736631    0.11149563272189536    
  0.09793090412134714    0.08476649649696366    0.07245272640968303    0.06128481179299436    0.051419215988392934    
  0.042900867437345974    0.03569260170183404    0.02970247596221363    0.02480758416192961    0.020873478243427605    
  0.017768294345226286    0.015371717020981501    0.013580150738589938    0.01230961528642271    0.011497174845160973    
  0.01110124783217865    0.011101247832178635    0.011497174845160968    0.012309615286422706    0.013580150738589942    
  0.015371717020981501    0.01776829434522627    0.020873478243427612    0.02480758416192963    0.029702475962213617    
  0.035692601701834005    0.04290086743734603    0.05141921598839297    0.06128481179299437    0.07245272640968303    
  0.08476649649696368    0.09793090412134714    0.11149563272189536    0.12486013213736633    0.13730682760653348    
  0.14806325595177697    0.15638644988220682    0.16165640077794283    0.16346118597590928    0.15134923241355153    
  0.14970261905557736    0.14489583863915725    0.13730682760653348    0.12750058937131425    0.11614967702319713    
  0.10395029197142837    0.09154840140966164    0.07948567105929577    0.0681705138777048    0.057874160737108    
  0.048745492305177746    0.040834811008158375    0.03411847050150992    0.028521158513100185    0.02393592173855402    
  0.02024195168680414    0.01731895414541791    0.015056992048165263    0.013361936105179837    0.012157742740931149    
  0.01138706863905191    0.011011422995843883    0.011011422995843859    0.011387068639051891    0.012157742740931139    
  0.013361936105179852    0.015056992048165276    0.01731895414541794    0.020241951686804167    0.02393592173855404    
  0.028521158513100178    0.03411847050150987    0.04083481100815841    0.04874549230517778    0.057874160737108014    
  0.0681705138777048    0.07948567105929585    0.0915484014096616    0.10395029197142837    0.11614967702319717    
  0.12750058937131425    0.13730682760653348    0.14489583863915723    0.14970261905557736    0.15134923241355153    
  0.13732634610345384    0.1358645936076215    0.13159762233403607    0.12486013213736628    0.11614967702319716    
  0.1060558253828552    0.09518812774658994    0.08411361474561976    0.07331033737426965    0.06314156298695897    
  0.05385187994746748    0.04558033237184624    0.03838115018980148    0.03224399261670024    0.02711116516964555    
  0.02289336011316332    0.019485241166950103    0.016779769956953804    0.014678936293847814    0.013099555900354647    
  0.011974870413202077    0.011254190561503796    0.010902788522767113    0.010902788522767102    0.01125419056150379    
  0.011974870413202075    0.013099555900354647    0.01467893629384781    0.016779769956953787    0.019485241166950128    
  0.022893360113163348    0.027111165169645533    0.03224399261670021    0.03838115018980151    0.04558033237184629    
  0.05385187994746751    0.06314156298695897    0.07331033737426966    0.08411361474561975    0.09518812774658994    
  0.10605582538285523    0.11614967702319713    0.12486013213736624    0.13159762233403605    0.13586459360762154    
  0.13732634610345384    0.12227557234626206    0.12101236023885724    0.11732390077867762    0.11149563272189536    
  0.10395029197142844    0.09518812774658995    0.0857280664400922    0.07605657670765739    0.06658784787059599    
  0.057639873139991964    0.049429680505913884    0.042084612154875634    0.03566057094138186    0.030158700856038317    
  0.025538074119954752    0.02172714480108171    0.018636757345770343    0.016174027094337396    0.014253740633350597    
  0.012804450625107065    0.01176938998236478    0.011105106524180976    0.01078104525677079    0.010781045256770778    
  0.011105106524180952    0.011769389982364792    0.012804450625107048    0.014253740633350602    0.016174027094337403    
  0.01863675734577036    0.021727144801081722    0.025538074119954752    0.03015870085603827    0.035660570941381906    
  0.04208461215487565    0.049429680505913884    0.05763987313999194    0.06658784787059605    0.07605657670765742    
  0.0857280664400922    0.09518812774659002    0.10395029197142841    0.11149563272189532    0.11732390077867762    
  0.12101236023885727    0.12227557234626206    0.10702281384747504    0.1059587645882798    0.10284994075419875    
  0.09793090412134717    0.09154840140966164    0.0841136147456198    0.07605657670765739    0.06778573442544004    
  0.059653894143817936    0.051935441038294144    0.044820173992203796    0.03842255919283194    0.03279783359457632    
  0.027955927300975576    0.023870514593188216    0.020486687752366912    0.017731298153821243    0.015525896293514137    
  0.013798313655299965    0.012488866077448781    0.011550688386686053    0.010947541718068679    0.010653137515992464    
  0.01065313751599247    0.01094754171806869    0.01155068838668604    0.012488866077448781    0.013798313655299965    
  0.015525896293514137    0.01773129815382127    0.020486687752366946    0.0238705145931882    0.02795592730097554    
  0.03279783359457635    0.038422559192831995    0.0448201739922038    0.051935441038294144    0.05965389414381795    
  0.06778573442544004    0.07605657670765739    0.08411361474561987    0.0915484014096616    0.09793090412134717    
  0.10284994075419873    0.1059587645882798    0.10702281384747504    0.09226014375716127    0.09138468381737132    
  0.08882465221576187    0.08476649649696365    0.07948567105929581    0.07331033737426962    0.06658784787059599    
  0.05965389414381796    0.05280373057760822    0.0462705654269249    0.040218049778882506    0.03474735568555542    
  0.029911119879150915    0.025725151843960004    0.022174878807210727    0.019220140336236563    0.016803039060087843    
  0.01485938369400282    0.013329729577229237    0.012165409458538017    0.011328569579585024    0.010789596121960319    
  0.01052632857404027    0.010526328574040258    0.010789596121960341    0.011328569579585019    0.012165409458538022    
  0.013329729577229237    0.01485938369400281    0.01680303906008789    0.01922014033623657    0.0221748788072107    
  0.025725151843959987    0.02991111987915094    0.03474735568555544    0.04021804977888254    0.04627056542692491    
  0.05280373057760826    0.059653894143817936    0.06658784787059599    0.07331033737426966    0.07948567105929581    
  0.08476649649696363    0.08882465221576187    0.09138468381737137    0.09226014375716127    0.07850333826954985    
  0.07779786087790425    0.07573288261482193    0.07245272640968303    0.06817051387770476    0.06314156298695894    
  0.057639873139991964    0.05193544103829413    0.04627056542692489    0.04084003741532738    0.035782820469604334    
  0.03118691398551973    0.027100902825079667    0.023543740503275953    0.020509580491252347    0.017970760723683834    
  0.015883503648787937    0.014197307326161921    0.012864626436525448    0.011846444666501093    0.01111245591400813    
  0.010638751011519022    0.01040710051493443    0.010407100514934447    0.010638751011519051    0.01111245591400813    
  0.0118464446665011    0.012864626436525448    0.01419730732616191    0.01588350364878798    0.017970760723683837    
  0.02050958049125234    0.023543740503275935    0.0271009028250797    0.031186913985519735    0.035782820469604334    
  0.04084003741532738    0.04627056542692492    0.051935441038294144    0.05763987313999198    0.06314156298695899    
  0.06817051387770474    0.072452726409683    0.07573288261482193    0.07779786087790426    0.07850333826954985    
  0.06608385079312078    0.06552537264616524    0.06388913344297846    0.06128481179299434    0.05787416073710799    
  0.05385187994746745    0.0494296805059139    0.04482017399220378    0.040218049778882506    0.035782820469604376    
  0.03163044025560973    0.027836105376204522    0.024443234537196955    0.021471517454903465    0.018920962544828855    
  0.016774051386183132    0.01499966856030538    0.013560005448148744    0.01241818032751053    0.011543144388919903    
  0.010910495354916047    0.010501072884699722    0.010300444256685056    0.010300444256685092    0.010501072884699756    
  0.01091049535491606    0.011543144388919915    0.012418180327510506    0.013560005448148739    0.014999668560305426    
  0.016774051386183167    0.018920962544828876    0.021471517454903447    0.024443234537196983    0.02783610537620454    
  0.03163044025560969    0.035782820469604376    0.04021804977888253    0.0448201739922038    0.0494296805059139    
  0.05385187994746753    0.05787416073710795    0.06128481179299434    0.0638891334429784    0.06552537264616527    
  0.06608385079312078    0.05516749151170966    0.054732022419356055    0.05345513600681761    0.05141921598839298    
  0.04874549230517771    0.04558033237184628    0.04208461215487561    0.03842255919283198    0.034747355685555426    
  0.03118691398551971    0.027836105376204522    0.024757845971428986    0.021989585833769722    0.019549830092418695    
  0.017441965907718737    0.015656275033839914    0.014172452565364486    0.012963868925843426    0.012002763593248297    
  0.011264394708349123    0.01072882633634341    0.010380857959652014    0.0102097518816154    0.0102097518816154    
  0.010380857959652049    0.010728826336343388    0.01126439470834911    0.012002763593248322    0.012963868925843438    
  0.01417245256536451    0.015656275033839914    0.01744196590771871    0.019549830092418684    0.02198958583376975    
  0.024757845971429    0.027836105376204533    0.03118691398551971    0.034747355685555426    0.03842255919283201    
  0.04208461215487563    0.045580332371846326    0.04874549230517771    0.051419215988392934    0.05345513600681762    
  0.054732022419356034    0.05516749151170966    0.04578825021424276    0.04545327628548401    0.04447037538582834    
  0.042900867437346    0.04083481100815836    0.03838115018980146    0.03566057094138186    0.0327978335945763    
  0.02991111987915095    0.027100902825079667    0.02444323453719699    0.021989585833769747    0.019771162610514457    
  0.017804100042302796    0.016093281540757547    0.01463451996954925    0.01341601965647535    0.012420258888449987    
  0.011626862502143596    0.01101601076699705    0.010571227935607923    0.010280681636046937    0.010137099635912255    
  0.010137099635912255    0.010280681636046984    0.010571227935607901    0.011016010766997075    0.011626862502143596    
  0.01242025888845001    0.013416019656475361    0.014634519969549226    0.01609328154075757    0.017804100042302772    
  0.01977116261051448    0.021989585833769767    0.024443234537196983    0.027100902825079667    0.029911119879150943    
  0.03279783359457639    0.03566057094138188    0.03838115018980152    0.04083481100815836    0.042900867437345974    
  0.04447037538582836    0.045453276285484005    0.04578825021424276    0.03788653479936674    0.03763234636806845    
  0.03688599282506377    0.035692601701834005    0.03411847050150986    0.032243992616700204    0.030158700856038265    
  0.027955927300975552    0.02572515184395999    0.02354374050327598    0.021471517454903482    0.019549830092418664    
  0.017804100042302786    0.016247792928707407    0.014886092941893015    0.013718235954813494    0.012738305414444253    
  0.011935418249879882    0.01129481940584923    0.010800615248480753    0.010439220698890545    0.010201656995851124    
  0.01008357094279759    0.01008357094279759    0.01020165699585117    0.010439220698890568    0.010800615248480729    
  0.011294819405849242    0.011935418249879835    0.012738305414444276    0.013718235954813507    0.01488609294189299    
  0.016247792928707407    0.01780410004230282    0.019549830092418702    0.02147151745490348    0.02354374050327598    
  0.025725151843959997    0.02795592730097553    0.030158700856038317    0.032243992616700204    0.03411847050150987    
  0.03569260170183397    0.03688599282506373    0.037632346368068455    0.03788653479936674    0.03134472942065221    
  0.03115471992051149    0.03059640519081645    0.029702475962213624    0.028521158513100196    0.027111165169645568    
  0.025538074119954735    0.023870514593188202    0.022174878807210727    0.02050958049125236    0.018920962544828893    
  0.017441965907718755    0.016093281540757547    0.014886092941893025    0.013825267641036648    0.012911652629341894    
  0.012142621303014923    0.0115114768706185    0.011007532263766707    0.010618205284365701    0.010332502171260662    
  0.01014368428492499    0.010049355669590641    0.010049355669590664    0.010143684284925061    0.010332502171260685    
  0.010618205284365701    0.011007532263766707    0.011511476870618466    0.012142621303014946    0.012911652629341894    
  0.013825267641036636    0.014886092941893025    0.01609328154075757    0.017441965907718737    0.01892096254482889    
  0.02050958049125236    0.022174878807210734    0.023870514593188192    0.02553807411995476    0.027111165169645554    
  0.028521158513100203    0.0297024759622136    0.030596405190816415    0.031154719920511505    0.03134472942065221    
  0.02601636843711242    0.025876716403720766    0.025466040252918633    0.024807584161929613    0.023935921738554036    
  0.02289336011316333    0.0217271448010817    0.020486687752366964    0.01922014033623657    0.01797076072368385    
  0.016774051386183177    0.0156562750338399    0.014634519969549238    0.01371823595481353    0.012911652629341871    
  0.012215855689163094    0.011629447203230265    0.011147993022273336    0.010763764113668955    0.010467152259188251    
  0.010249504152523474    0.010105521573877672    0.010033492937375028    0.010033492937374981    0.010105521573877672    
  0.010249504152523356    0.010467152259188251    0.010763764113668932    0.011147993022273336    0.011629447203230241    
  0.012215855689163094    0.012911652629341894    0.01371823595481353    0.01463451996954925    0.0156562750338399    
  0.016774051386183184    0.01797076072368385    0.01922014033623659    0.020486687752366957    0.021727144801081736    
  0.022893360113163362    0.023935921738554036    0.024807584161929557    0.025466040252918633    0.025876716403720783    
  0.02601636843711242    0.021747274853455616    0.021646470141773354    0.02134979140518916    0.02087347824342761    
  0.0202419516868041    0.01948524116695013    0.018636757345770336    0.017731298153821278    0.016803039060087854    
  0.01588350364878797    0.014999668560305436    0.014172452565364558    0.013416019656475337    0.012738305414444253    
  0.012142621303014935    0.011629447203230218    0.011197404562902778    0.01084320951222816    0.010561445314659969    
  0.010345218286704403    0.010187858757486831    0.010084648749869625    0.010033344651136766    0.010033344651136743    
  0.010084648749869696    0.010187858757486831    0.010345218286704403    0.010561445314659969    0.01084320951222816    
  0.011197404562902778    0.011629447203230241    0.012142621303014946    0.012738305414444276    0.013416019656475361    
  0.014172452565364533    0.014999668560305407    0.01588350364878797    0.016803039060087864    0.01773129815382129    
  0.018636757345770368    0.01948524116695013    0.020241951686804108    0.020873478243427585    0.021349791405189146    
  0.021646470141773372    0.021747274853455616    0.01838884457354096    0.018317346504474964    0.018106766448593846    
  0.017768294345226306    0.01731895414541796    0.016779769956953794    0.016174027094337354    0.015525896293514167    
  0.01485938369400281    0.014197307326161927    0.013560005448148768    0.01296386892584345    0.012420258888449987    
  0.011935418249879894    0.011511476870618454    0.011147993022273336    0.010843209512228114    0.010594529403502357    
  0.010398383558268349    0.010250149014552224    0.010144651753855451    0.010077156976602162    0.010044260509604783    
  0.01004426050960483    0.010077156976602233    0.010144651753855451    0.010250149014552247    0.010398383558268349    
  0.010594529403502357    0.010843209512228114    0.01114799302227329    0.011511476870618488    0.011935418249879882    
  0.01242025888845    0.012963868925843426    0.013560005448148761    0.014197307326161927    0.014859383694002816    
  0.01552589629351415    0.01617402709433738    0.0167797699569538    0.01731895414541793    0.017768294345226265    
  0.018106766448593836    0.018317346504474984    0.01838884457354096    0.015805666178391114    0.015755722767727184    
  0.015608533907269852    0.015371717020981467    0.015056992048165229    0.01467893629384775    0.014253740633350527    
  0.01379831365529997    0.013329729577229207    0.012864626436525408    0.01241818032751053    0.01200276359324831    
  0.011626862502143585    0.01129481940584923    0.011007532263766707    0.010763764113668861    0.010561445314659922    
  0.010398383558268278    0.010272166618527274    0.010179617559289337    0.010116517717555677    0.010078088837261672    
  0.0100601106504333    0.0100601106504333    0.010078088837261766    0.010116517717555723    0.010179617559289337    
  0.010272166618527274    0.010398383558268278    0.010561445314659969    0.010763764113668861    0.011007532263766707    
  0.011294819405849218    0.011626862502143585    0.012002763593248297    0.012418180327510518    0.012864626436525408    
  0.013329729577229207    0.01379831365529997    0.014253740633350555    0.014678936293847776    0.015056992048165222    
  0.015371717020981408    0.015608533907269845    0.015755722767727187    0.015805666178391114    0.013880450429530334    
  0.013845931880462282    0.013744132146612102    0.013580150738589935    0.013361936105179785    0.013099555900354618    
  0.012804450625107001    0.012488866077448835    0.012165409458538069    0.011846444666501046    0.011543144388919938    
  0.011264394708349133    0.01101601076699704    0.010800615248480753    0.010618205284365677    0.010467152259188204    
  0.010345218286704427    0.010250149014552224    0.010179617559289313    0.010130744757103134    0.010099784767276887    
  0.01008246260323282    0.010074941131909569    0.010074941131909569    0.010082462603232867    0.01009978476727684    
  0.010130744757103134    0.010179617559289313    0.010250149014552224    0.010345218286704403    0.010467152259188227    
  0.010618205284365701    0.010800615248480729    0.011016010766997063    0.011264394708349145    0.01154314438891995    
  0.011846444666501046    0.012165409458538059    0.012488866077448828    0.01280445062510703    0.013099555900354635    
  0.013361936105179785    0.01358015073858988    0.013744132146612081    0.01384593188046227    0.013880450429530334    
  0.01251793222385822    0.012494034563931772    0.012423483061441618    0.012309615286422724    0.012157742740931118    
  0.011974870413202058    0.011769389982364762    0.011550688386686105    0.01132856957958503    0.011112455914008177    
  0.010910495354916117    0.010728826336343446    0.010571227935607889    0.010439220698890615    0.010332502171260662    
  0.010249504152523403    0.010187858757486902    0.010144651753855451    0.010116517717555817    0.010099784767276887    
  0.010090836287006357    0.01008661665366232    0.01008502251209724    0.01008502251209724    0.010086616653662414    
  0.01009083628700631    0.010099784767276934    0.01011651771755577    0.010144651753855405    0.010187858757486856    
  0.010249504152523403    0.010332502171260685    0.010439220698890592    0.010571227935607936    0.010728826336343422    
  0.010910495354916094    0.011112455914008177    0.01132856957958503    0.011550688386686088    0.011769389982364773    
  0.011974870413202113    0.01215774274093111    0.01230961528642268    0.012423483061441589    0.012494034563931763    
  0.01251793222385822    0.011647429937581038    0.011630245880358506    0.01157943325310386    0.011497174845161023    
  0.011387068639051904    0.011254190561503773    0.011105106524180935    0.010947541718068696    0.010789596121960341    
  0.010638751011519051    0.010501072884699756    0.010380857959652037    0.010280681636046994    0.010201656995851146    
  0.010143684284925037    0.010105521573877695    0.010084648749869649    0.010077156976602209    0.010078088837261719    
  0.010082462603232914    0.010086616653662367    0.010089015786318488    0.01008987695266922    0.01008987695266922    
  0.010089015786318675    0.010086616653662367    0.010082462603232867    0.010078088837261719    0.010077156976602209    
  0.010084648749869602    0.010105521573877648    0.010143684284925037    0.01020165699585117    0.01028068163604696    
  0.010380857959652049    0.010501072884699744    0.010638751011519051    0.010789596121960324    0.010947541718068707    
  0.011105106524180976    0.011254190561503813    0.011387068639051898    0.011497174845160961    0.011579433253103854    
  0.011630245880358502    0.011647429937581038    0.011223237415054092    0.011209326318471957    0.01116812960518329    
  0.01110124783217869    0.011011422995843918    0.010902788522767125    0.010781045256770778    0.01065313751599254    
  0.010526328574040317    0.010407100514934493    0.01030044425668515    0.010209751881615459    0.010137099635912267    
  0.010083570942797614    0.010049355669590664    0.010033492937374981    0.01003334465113679    0.010044260509604783    
  0.010060110650433347    0.010074941131909616    0.010085022512097194    0.01008987695266922    0.01009136027740844    
  0.010091360277408394    0.010089876952669267    0.01008502251209724    0.010074941131909569    0.010060110650433347    
  0.01004426050960483    0.01003334465113679    0.010033492937374981    0.01004935566959071    0.010083570942797614    
  0.010137099635912267    0.010209751881615435    0.010300444256685139    0.010407100514934493    0.010526328574040329    
  0.010653137515992546    0.010781045256770795    0.010902788522767132    0.011011422995843905    0.01110124783217866    
  0.01116812960518326    0.011209326318471954    0.011223237415054092    0.011223237415054097    0.011209326318471961    
  0.011168129605183286    0.011101247832178711    0.011011422995843905    0.010902788522767095    0.010781045256770785    
  0.01065313751599255    0.010526328574040312    0.010407100514934483    0.010300444256685174    0.010209751881615412    
  0.010137099635912243    0.01008357094279759    0.01004935566959071    0.010033492937374981    0.01003334465113679    
  0.010044260509604783    0.010060110650433347    0.010074941131909569    0.01008502251209724    0.01008987695266922    
  0.010091360277408394    0.010091360277408487    0.010089876952669267    0.01008502251209724    0.010074941131909616    
  0.010060110650433347    0.01004426050960483    0.01003334465113686    0.010033492937375004    0.010049355669590735    
  0.01008357094279759    0.010137099635912243    0.010209751881615423    0.01030044425668515    0.010407100514934476    
  0.010526328574040317    0.010653137515992558    0.010781045256770814    0.010902788522767125    0.011011422995843918    
  0.01110124783217866    0.011168129605183277    0.011209326318471949    0.011223237415054097    0.011647429937581024    
  0.011630245880358525    0.011579433253103868    0.011497174845161003    0.011387068639051886    0.01125419056150379    
  0.011105106524180924    0.010947541718068679    0.01078959612196033    0.010638751011519046    0.010501072884699756    
  0.010380857959652049    0.010280681636046948    0.010201656995851124    0.010143684284925037    0.010105521573877672    
  0.010084648749869602    0.01007715697660214    0.010078088837261672    0.01008246260323296    0.010086616653662367    
  0.010089015786318534    0.01008987695266922    0.010089876952669267    0.010089015786318581    0.01008661665366232    
  0.010082462603232914    0.010078088837261719    0.01007715697660214    0.010084648749869649    0.010105521573877648    
  0.010143684284925037    0.010201656995851124    0.01028068163604696    0.010380857959652037    0.010501072884699734    
  0.010638751011519057    0.010789596121960319    0.01094754171806869    0.011105106524180959    0.01125419056150382    
  0.011387068639051912    0.011497174845160952    0.011579433253103854    0.011630245880358523    0.011647429937581024    
  0.012517932223858219    0.012494034563931807    0.012423483061441577    0.012309615286422724    0.012157742740931135    
  0.011974870413202063    0.011769389982364762    0.0115506883866861    0.011328569579585024    0.011112455914008177    
  0.010910495354916117    0.010728826336343446    0.010571227935607889    0.010439220698890615    0.010332502171260685    
  0.010249504152523474    0.010187858757486878    0.010144651753855498    0.010116517717555723    0.01009978476727684    
  0.010090836287006263    0.010086616653662367    0.01008502251209724    0.01008502251209724    0.010086616653662414    
  0.01009083628700631    0.010099784767276887    0.010116517717555723    0.010144651753855451    0.010187858757486856    
  0.01024950415252338    0.010332502171260685    0.010439220698890615    0.010571227935607923    0.010728826336343446    
  0.010910495354916082    0.01111245591400817    0.011328569579585036    0.0115506883866861    0.011769389982364785    
  0.01197487041320208    0.012157742740931135    0.012309615286422692    0.01242348306144156    0.012494034563931765    
  0.012517932223858219    0.013880450429530357    0.013845931880462273    0.013744132146612102    0.013580150738589918    