#     DFTpy    
  CRYSTAL 
    
  PRIMVEC    
  3.9726242049106006    -2.1826000000000003e-10    4.1370000000000003e-10    
  -2.1826000000000003e-10    3.972624204679761    1.9934000000000003e-10    
  7.559900000000002e-10    3.643300000000001e-10    7.277924535362741    
  PRIMCOORD    
  4    1    
  Si    1.9863121023796104    1.9863121034330105    2.2364643582400903    
  Si    7.365800000000001e-10    -6.816900000000001e-10    1.4024979069947905    
  Si    1.1297000000000002e-10    5.148400000000002e-10    5.875426624239851    
  Si    1.9863121029751605    1.9863121019240104    5.0414601818637905    
  BEGIN_BLOCK_DATAGRID_3D    
  3d_datagrid_density    
  BEGIN_DATAGRID_3D#0    
  41    41    73    
  0.0    0.0    0.0    
  3.972624219728565    -2.18260000814114e-10    4.137000015431089e-10    
  -2.18260000814114e-10    3.972624219497725    1.9934000074354203e-10    
  7.559900028198573e-10    3.6433000135895794e-10    7.277924562509539    
  0.29367238590384975    0.28995256601797437    0.2791220417129454    0.2621145448381778    0.24032514221400766    
  0.21541231491349888    0.18908224916792002    0.16288734772512295    0.13807202301748675    0.11549535616847059    
  0.09563796590367359    0.07866835576930438    0.06452860244874585    0.05301200709389963    0.043828347502645054    
  0.03666126720483196    0.03121494765901865    0.02724137562365577    0.024547037796235405    0.02299021081842639    
  0.022481591597518717    0.02299021081842641    0.024547037796235408    0.02724137562365574    0.03121494765901865    
  0.036661267204831954    0.04382834750264502    0.05301200709389962    0.06452860244874586    0.0786683557693044    
  0.09563796590367359    0.11549535616847059    0.13807202301748675    0.16288734772512295    0.18908224916792007    
  0.21541231491349888    0.24032514221400772    0.26211454483817787    0.27912204171294547    0.28995256601797437    
  0.29367238590384975    0.28995256601797437    0.2862874999554359    0.27561713645073876    0.2588627656926538    
  0.23739890893466292    0.21285727649317393    0.18691502353824854    0.16109818100199008    0.13663131580877838    
  0.11436162753628658    0.09476494891435042    0.07801009443290173    0.06404256835181141    0.052660745581113486    
  0.043580125712249874    0.036490029989989174    0.03109978855750064    0.027165680799895717    0.02449743829762516    
  0.022955492259824312    0.022451712336623002    0.022955492259824344    0.02449743829762519    0.027165680799895692    
  0.03109978855750064    0.036490029989989174    0.043580125712249854    0.05266074558111346    0.06404256835181141    
  0.07801009443290176    0.0947649489143504    0.11436162753628655    0.13663131580877838    0.16109818100199008    
  0.1869150235382486    0.21285727649317399    0.237398908934663    0.2588627656926538    0.27561713645073876    
  0.28628749995543584    0.28995256601797437    0.27912204171294547    0.27561713645073876    0.26541502611348655    
  0.24939998677867814    0.228885683458479    0.20542500014033818    0.18061024837554415    0.15589111043507678    
  0.13243537491506863    0.11105672621669103    0.09221769368262035    0.07608795201115175    0.06262245491820985    
  0.051633764130977575    0.04285372198959798    0.03598815176080391    0.0307614426399029    0.026942389610626904    
  0.024350157264852356    0.022851490322885887    0.022361767287469254    0.022851490322885918    0.02435015726485238    
  0.026942389610626876    0.0307614426399029    0.03598815176080391    0.04285372198959794    0.051633764130977554    
  0.06262245491820985    0.0760879520111517    0.09221769368262034    0.11105672621669103    0.13243537491506863    
  0.15589111043507678    0.18061024837554418    0.20542500014033813    0.22888568345847907    0.2493999867786782    
  0.26541502611348644    0.2756171364507388    0.27912204171294547    0.26211454483817787    0.2588627656926539    
  0.24939998677867814    0.23455018041361927    0.21552887156566874    0.19376337362956042    0.17071266375703278    
  0.14770824776830543    0.12583152991179644    0.10584610008833334    0.08819474139632219    0.07304790360876488    
  0.0603737470075342    0.050005552191484816    0.0417000866283893    0.035189095728834094    0.03022080315226476    
  0.026583640062489037    0.024111467927524596    0.02268100894622872    0.022213395171947214    0.022681008946228726    
  0.02411146792752462    0.02658364006248902    0.03022080315226476    0.035189095728834066    0.04170008662838929    
  0.05000555219148479    0.060373747007534215    0.07304790360876484    0.08819474139632222    0.10584610008833331    
  0.12583152991179644    0.14770824776830546    0.17071266375703278    0.19376337362956042    0.21552887156566883    
  0.23455018041361927    0.2493999867786782    0.2588627656926538    0.26211454483817787    0.24032514221400775    
  0.23739890893466292    0.22888568345847896    0.21552887156566874    0.1984151635125559    0.1788101028978493    
  0.15800386059063629    0.13718057970124362    0.11731521887014697    0.0991098141892808    0.08298195963020709    
  0.06910102406262963    0.05744918348450166    0.047884060248822254    0.040193572526318305    0.034142872952922766    
  0.029510936601895223    0.026111100766197708    0.023795656779974205    0.022454082760528345    0.022015223036175386    
  0.022454082760528377    0.023795656779974236    0.026111100766197676    0.029510936601895223    0.03414287295292274    
  0.04019357252631827    0.04788406024882223    0.057449183484501676    0.06910102406262959    0.08298195963020709    
  0.09910981418928079    0.11731521887014697    0.13718057970124362    0.1580038605906363    0.17881010289784932    
  0.19841516351255595    0.21552887156566874    0.22888568345847896    0.23739890893466292    0.24032514221400775    
  0.21541231491349888    0.21285727649317399    0.20542500014033818    0.1937633736295604    0.17881010289784938    
  0.16164823870340952    0.14338104649802572    0.12503099054928565    0.10745571593028777    0.09128740900427329    
  0.07691213055741224    0.06449384366702404    0.05402707852605038    0.04539529625667891    0.03842170202505483    
  0.032909984006674296    0.02867419002392647    0.025555347299490418    0.023425966190574528    0.022189884497887124    
  0.02178510772237771    0.022189884497887155    0.02342596619057456    0.02555534729949041    0.02867419002392647    
  0.03290998400667428    0.038421702025054814    0.04539529625667889    0.054027078526050376    0.06449384366702401    
  0.07691213055741222    0.09128740900427328    0.10745571593028777    0.1250309905492857    0.14338104649802583    
  0.16164823870340955    0.1788101028978494    0.1937633736295604    0.20542500014033813    0.21285727649317399    
  0.21541231491349888    0.18908224916792007    0.18691502353824863    0.18061024837554415    0.17071266375703278    
  0.1580038605906363    0.1433810464980258    0.12776034108255815    0.11200200308076862    0.09684271728415272    
  0.08283799010268951    0.07033463497814764    0.059485303617787755    0.050294247774994374    0.042671224971557876    
  0.03647691003758034    0.03155572893159208    0.027757901884718463    0.024952173059052653    0.02303111388740735    
  0.021913320084034797    0.021546754322181824    0.021913320084034797    0.023031113887407372    0.024952173059052632    
  0.027757901884718463    0.03155572893159206    0.03647691003758033    0.04267122497155786    0.05029424777499436    
  0.059485303617787734    0.07033463497814764    0.08283799010268952    0.09684271728415272    0.11200200308076864    
  0.12776034108255818    0.14338104649802583    0.15800386059063637    0.17071266375703278    0.18061024837554415    
  0.18691502353824854    0.18908224916792007    0.16288734772512295    0.16109818100199003    0.15589111043507672    
  0.14770824776830543    0.13718057970124362    0.12503099054928565    0.11200200308076858    0.09880099479826504    
  0.08604510809865525    0.07420801332331142    0.06359011229129745    0.05432759928257494    0.0464324792927273    
  0.039840708684843185    0.034450280237450295    0.03014508190230343    0.026809244608750175    0.02433685297229335    
  0.022638913141320514    0.021648199881006504    0.02132273082865511    0.02164819988100653    0.022638913141320535    
  0.024336852972293335    0.026809244608750175    0.030145081902303403    0.03445028023745027    0.039840708684843164    
  0.046432479292727265    0.05432759928257491    0.06359011229129745    0.07420801332331142    0.08604510809865525    
  0.09880099479826505    0.11200200308076867    0.1250309905492857    0.13718057970124367    0.14770824776830546    
  0.15589111043507672    0.16109818100199005    0.16288734772512295    0.1380720230174868    0.1366313158087784    
  0.13243537491506863    0.12583152991179644    0.1173152188701469    0.10745571593028772    0.09684271728415268    
  0.08604510809865523    0.07556568290891301    0.06579462061340353    0.056982294813931786    0.049246275459884234    
  0.04260567957792423    0.037021568802461206    0.03242618910180194    0.028738137878371938    0.025870528621490183    
  0.023739005579225196    0.022270711376643822    0.021411388130396232    0.02112851446888696    0.02141138813039626    
  0.02227071137664382    0.02373900557922519    0.025870528621490183    0.028738137878371938    0.03242618910180194    
  0.03702156880246118    0.04260567957792423    0.04924627545988416    0.056982294813931765    0.06579462061340356    
  0.07556568290891301    0.08604510809865523    0.09684271728415275    0.10745571593028774    0.11731521887014694    
  0.12583152991179644    0.1324353749150686    0.13663131580877835    0.1380720230174868    0.11549535616847059    
  0.11436162753628652    0.11105672621669109    0.10584610008833337    0.09910981418928079    0.0912874090042733    
  0.08283799010268948    0.07420801332331142    0.0657946206134035    0.05790807130189014    0.05075038865729985    
  0.044421787171756114    0.03894845043456137    0.03431357694069422    0.030477617491333594    0.02738658011764722    
  0.024976392713989406    0.023180344360816257    0.021939521628837336    0.021211111977565488    0.020970843380504752    
  0.021211111977565495    0.021939521628837354    0.02318034436081621    0.024976392713989406    0.027386580117647205    
  0.03047761749133358    0.034313576940694195    0.03894845043456137    0.044421787171756086    0.05075038865729985    
  0.05790807130189017    0.0657946206134035    0.07420801332331142    0.08283799010268954    0.0912874090042733    
  0.09910981418928078    0.10584610008833331    0.11105672621669109    0.11436162753628655    0.11549535616847059    
  0.09563796590367356    0.09476494891435043    0.09221769368262035    0.08819474139632223    0.0829819596302071    
  0.07691213055741226    0.07033463497814764    0.0635901122912975    0.056982294813931786    0.05075038865729989    
  0.04505426545843678    0.039979943492988806    0.035559779463780826    0.03179386187826833    0.028662715986399655    
  0.026131559108208042    0.02415324741735834    0.022675588811644335    0.021651953061773418    0.021049394472842965    
  0.020850284272283946    0.02104939447284299    0.021651953061773418    0.02267558881164431    0.02415324741735834    
  0.026131559108207976    0.028662715986399655    0.03179386187826832    0.0355597794637808    0.03997994349298877    
  0.04505426545843676    0.05075038865729986    0.056982294813931786    0.06359011229129752    0.07033463497814771    
  0.0769121305574123    0.0829819596302071    0.08819474139632222    0.09221769368262034    0.0947649489143504    
  0.09563796590367356    0.07866835576930443    0.07801009443290177    0.07608795201115177    0.07304790360876494    
  0.06910102406262969    0.0644938436670241    0.05948530361778777    0.05432759928257496    0.04924627545988423    
  0.04442178717175616    0.03997994349298888    0.03599534995642887    0.032503892308511376    0.029515743571781626    
  0.027023016466823462    0.025002715990439316    0.023419922818084266    0.022234760280993273    0.021411670285110082    
  0.02092610322826661    0.020765445566615668    0.020926103228266574    0.021411670285110013    0.022234760280993228    
  0.023419922818084266    0.025002715990439295    0.027023016466823452    0.02951574357178161    0.032503892308511355    
  0.03599534995642884    0.03997994349298885    0.04442178717175612    0.04924627545988423    0.05432759928257501    
  0.05948530361778777    0.06449384366702407    0.06910102406262965    0.0730479036087649    0.07608795201115175    
  0.07801009443290177    0.07866835576930443    0.06452860244874589    0.06404256835181145    0.06262245491820985    
  0.0603737470075342    0.057449183484501676    0.05402707852605035    0.05029424777499439    0.04643247929272724    
  0.04260567957792419    0.03894845043456142    0.03555977946378085    0.03250389230851136    0.029816244215488678    
  0.027510436149984153    0.02558320592553027    0.024017806407322564    0.02278807193686014    0.021864594048566607    
  0.02122164598802035    0.020841725034211164    0.02071592610319433    0.02084172503421113    0.021221645988020305    
  0.021864594048566586    0.02278807193686014    0.024017806407322557    0.02558320592553027    0.027510436149984146    
  0.029816244215488678    0.03250389230851134    0.035559779463780826    0.0389484504345614    0.04260567957792419    
  0.04643247929272727    0.05029424777499438    0.054027078526050376    0.057449183484501676    0.0603737470075342    
  0.06262245491820988    0.06404256835181142    0.06452860244874589    0.05301200709389958    0.052660745581113486    
  0.05163376413097762    0.05000555219148484    0.047884060248822274    0.04539529625667887    0.042671224971557856    
  0.03984070868484316    0.03702156880246117    0.03431357694069427    0.03179386187826839    0.029515743571781564    
  0.027510436149984097    0.025790255589290243    0.02435236802355137    0.02318293473978526    0.022261881642321336    
  0.021568078480819562    0.02108383223815395    0.02079729784703216    0.020702376500951004    0.020797297847032076    
  0.021083832238153927    0.021568078480819562    0.022261881642321336    0.02318293473978526    0.02435236802355139    
  0.025790255589290236    0.02751043614998408    0.029515743571781546    0.031793861878268354    0.034313576940694264    
  0.03702156880246117    0.039840708684843185    0.04267122497155788    0.04539529625667887    0.047884060248822254    
  0.0500055521914848    0.05163376413097761    0.052660745581113465    0.05301200709389958    0.043828347502645075    
  0.04358012571224992    0.042853721989597963    0.041700086628389255    0.04019357252631832    0.03842170202505479    
  0.03647691003758033    0.0344502802374503    0.03242618910180194    0.03047761749133361    0.028662715986399655    
  0.027023016466823428    0.025583205925530237    0.02435236802355134    0.023326767192219756    0.022494025983982136    
  0.021837968276753304    0.021342985264286896    0.020996891069110367    0.02079186511138807    0.02072391417575027    
  0.020791865111388034    0.020996891069110332    0.021342985264286896    0.021837968276753304    0.022494025983982136    
  0.023326767192219773    0.024352368023551334    0.025583205925530258    0.02702301646682335    0.02866271598639962    
  0.030477617491333597    0.03242618910180194    0.03445028023745033    0.03647691003758036    0.03842170202505479    
  0.040193572526318264    0.04170008662838927    0.04285372198959794    0.043580125712249874    0.043828347502645075    
  0.03666126720483195    0.03649002998998923    0.03598815176080389    0.03518909572883405    0.03414287295292277    
  0.03290998400667428    0.031555728931592045    0.030145081902303437    0.028738137878371976    0.02738658011764724    
  0.02613155910820803    0.025002715990439295    0.02401780640732258    0.02318293473978521    0.022494025983982112    
  0.021939939676940405    0.021506660471060732    0.021181210699489438    0.0209540310409266    0.020819449380224266    
  0.02077482818944044    0.020819449380224266    0.0209540310409266    0.021181210699489413    0.021506660471060732    
  0.0219399396769405    0.022494025983982112    0.02318293473978521    0.024017806407322605    0.02500271599043927    
  0.026131559108207976    0.027386580117647264    0.028738137878371976    0.030145081902303448    0.03155572893159207    
  0.03290998400667429    0.03414287295292278    0.035189095728834045    0.03598815176080391    0.036490029989989174    
  0.03666126720483195    0.0312149476590187    0.031099788557500677    0.0307614426399029    0.030220803152264743    
  0.02951093660189524    0.028674190023926478    0.02775790188471846    0.02680924460875019    0.025870528621490137    
  0.024976392713989427    0.02415324741735834    0.023419922818084256    0.022788071936860187    0.022261881642321346    
  0.02183796827675328    0.021506660471060684    0.021254964276549024    0.021070245437404087    0.020943071530098466    
  0.02086812755369667    0.020843299927726093    0.020868127553696623    0.02094307153009844    0.021070245437404087    
  0.021254964276549024    0.021506660471060708    0.02183796827675328    0.022261881642321346    0.0227880719368602    
  0.02341992281808422    0.024153247417358307    0.02497639271398942    0.025870528621490137    0.026809244608750223    
  0.027757901884718487    0.028674190023926502    0.029510936601895233    0.03022080315226476    0.030761442639902895    
  0.031099788557500625    0.0312149476590187    0.027241375623655747    0.02716568079989576    0.02694238961062692    
  0.026583640062489013    0.026111100766197645    0.02555534729949047    0.02495217305905266    0.02433685297229334    
  0.023739005579225137    0.02318034436081624    0.022675588811644335    0.022234760280993204    0.021864594048566596    
  0.021568078480819444    0.021342985264286837    0.021181210699489368    0.021070245437404017    0.020996591889070656    
  0.020949452571600285    0.020922629028781094    0.020913825827412483    0.02092262902878114    0.020949452571600285    
  0.020996591889070635    0.021070245437404017    0.021181210699489285    0.021342985264286837    0.021568078480819493    
  0.021864594048566565    0.022234760280993138    0.0226755888116443    0.023180344360816257    0.023739005579225137    
  0.024336852972293353    0.024952173059052674    0.02555534729949042    0.02611110076619763    0.026583640062489002    
  0.026942389610626893    0.027165680799895717    0.027241375623655747    0.024547037796235398    0.024497438297625237    
  0.024350157264852405    0.024111467927524555    0.02379565677997425    0.02342596619057453    0.02303111388740737    
  0.02263891314132055    0.02227071137664383    0.02193952162883739    0.021651953061773418    0.021411670285109978    
  0.021221645988020375    0.021083832238153927    0.020996891069110343    0.020954031040926635    0.02094307153009851    
  0.02094945257160031    0.020960663340817302    0.020969188665056142    0.020972197579827507    0.020969188665056142    
  0.020960663340817254    0.02094945257160026    0.02094307153009851    0.02095403104092654    0.020996891069110367    
  0.02108383223815395    0.02122164598802035    0.021411670285109954    0.021651953061773394    0.02193952162883737    
  0.02227071137664383    0.022638913141320608    0.023031113887407393    0.023425966190574535    0.023795656779974233    
  0.02411146792752456    0.024350157264852405    0.024497438297625178    0.024547037796235398    0.022990210818426407    
  0.022955492259824423    0.02285149032288595    0.02268100894622871    0.02245408276052842    0.022189884497887127    
  0.021913320084034807    0.021648199881006566    0.021411388130396298    0.021211111977565558    0.02104939447284299    
  0.020926103228266574    0.02084172503421113    0.02079729784703215    0.020791865111388044    0.020819449380224207    
  0.020868127553696644    0.02092262902878128    0.020969188665056163    0.020999242270343627    0.02100946354581319    
  0.020999242270343603    0.020969188665056118    0.020922629028781232    0.020868127553696644    0.020819449380224266    
  0.02079186511138807    0.02079729784703217    0.02084172503421115    0.02092610322826649    0.021049394472842965    
  0.021211111977565495    0.021411388130396298    0.021648199881006563    0.021913320084034817    0.02218988449788716    
  0.022454082760528425    0.022681008946228706    0.02285149032288595    0.022955492259824364    0.022990210818426407    
  0.022481591597518676    0.022451712336623016    0.02236176728746921    0.022213395171947214    0.0220152230361754    
  0.021785107722377656    0.021546754322181793    0.02132273082865506    0.021128514468886923    0.020970843380504776    
  0.020850284272283956    0.020765445566615675    0.020715926103194355    0.020702376500950945    0.02072391417575033    
  0.020774828189440358    0.020843299927726114    0.020913825827412507    0.020972197579827344    0.02100946354581319    
  0.021022104196171173    0.021009463545813165    0.020972197579827368    0.02091382582741253    0.020843299927726114    
  0.020774828189440323    0.020723914175750317    0.020702376500951004    0.020715926103194355    0.02076544556661559    
  0.0208502842722839    0.020970843380504776    0.021128514468886923    0.021322730828655094    0.021546754322181803    
  0.021785107722377697    0.022015223036175365    0.022213395171947235    0.022361767287469227    0.02245171233662295    
  0.022481591597518676    0.022990210818426404    0.022955492259824472    0.022851490322885994    0.02268100894622871    
  0.0224540827605284    0.02218988449788713    0.021913320084034793    0.02164819988100654    0.02141138813039626    
  0.02121111197756555    0.02104939447284301    0.02092610322826656    0.02084172503421121    0.0207972978470321    
  0.02079186511138807    0.02081944938022425    0.020868127553696693    0.020922629028781257    0.020969188665056163    
  0.02099924227034365    0.02100946354581321    0.020999242270343676    0.020969188665056118    0.020922629028781208    
  0.020868127553696693    0.02081944938022424    0.020791865111388117    0.020797297847032124    0.020841725034211184    
  0.020926103228266497    0.021049394472842976    0.02121111197756555    0.02141138813039626    0.02164819988100658    
  0.021913320084034824    0.022189884497887172    0.02245408276052839    0.02268100894622872    0.022851490322885987    
  0.022955492259824396    0.022990210818426404    0.0245470377962354    0.024497438297625268    0.0243501572648524    
  0.024111467927524576    0.023795656779974254    0.023425966190574545    0.023031113887407362    0.022638913141320542    
  0.02227071137664385    0.02193952162883739    0.021651953061773442    0.021411670285110013    0.021221645988020375    
  0.02108383223815395    0.020996891069110298    0.0209540310409266    0.020943071530098535    0.02094945257160038    
  0.020960663340817323    0.020969188665056142    0.020972197579827483    0.020969188665056142    0.020960663340817254    
  0.02094945257160033    0.020943071530098535    0.02095403104092666    0.020996891069110367    0.021083832238153882    
  0.02122164598802041    0.021411670285109964    0.021651953061773407    0.021939521628837395    0.02227071137664385    
  0.022638913141320566    0.023031113887407386    0.023425966190574576    0.023795656779974247    0.024111467927524614    
  0.024350157264852398    0.024497438297625195    0.0245470377962354    0.02724137562365574    0.027165680799895803    
  0.026942389610626904    0.026583640062488978    0.026111100766197628    0.025555347299490418    0.02495217305905265    
  0.02433685297229334    0.02373900557922516    0.023180344360816292    0.02267558881164437    0.022234760280993193    
  0.02186459404856659    0.02156807848081947    0.02134298526428686    0.021181210699489368    0.02107024543740404    
  0.020996591889070704    0.02094945257160026    0.020922629028781208    0.020913825827412507    0.020922629028781208    
  0.020949452571600215    0.020996591889070704    0.02107024543740404    0.021181210699489285    0.02134298526428686    
  0.02156807848081947    0.02186459404856663    0.02223476028099316    0.02267558881164431    0.02318034436081625    
  0.02373900557922516    0.024336852972293346    0.024952173059052677    0.02555534729949044    0.0261111007661976    
  0.026583640062489002    0.026942389610626904    0.027165680799895734    0.02724137562365574    0.0312149476590187    
  0.031099788557500677    0.0307614426399029    0.030220803152264743    0.02951093660189524    0.028674190023926478    
  0.02775790188471846    0.02680924460875019    0.025870528621490137    0.024976392713989427    0.02415324741735834    
  0.023419922818084256    0.022788071936860187    0.022261881642321346    0.02183796827675328    0.021506660471060684    
  0.021254964276549024    0.021070245437404087    0.020943071530098466    0.02086812755369667    0.020843299927726093    
  0.020868127553696623    0.02094307153009844    0.021070245437404087    0.021254964276549024    0.021506660471060708    
  0.02183796827675328    0.022261881642321346    0.0227880719368602    0.02341992281808422    0.024153247417358307    
  0.02497639271398942    0.025870528621490137    0.026809244608750223    0.027757901884718487    0.028674190023926502    
  0.029510936601895233    0.03022080315226476    0.030761442639902895    0.031099788557500625    0.0312149476590187    
  0.036661267204831954    0.036490029989989195    0.0359881517608039    0.035189095728834045    0.034142872952922766    
  0.032909984006674324    0.031555728931592066    0.030145081902303403    0.02873813787837195    0.02738658011764724    
  0.026131559108208025    0.025002715990439312    0.02401780640732258    0.023182934739785208    0.022494025983982088    
  0.021939939676940544    0.02150666047106066    0.021181210699489413    0.02095403104092667    0.020819449380224193    
  0.020774828189440417    0.020819449380224193    0.02095403104092661    0.02118121069948938    0.02150666047106066    
  0.021939939676940558    0.022494025983982136    0.023182934739785225    0.024017806407322567    0.025002715990439257    
  0.026131559108207986    0.027386580117647254    0.02873813787837195    0.030145081902303424    0.03155572893159206    
  0.032909984006674296    0.034142872952922745    0.03518909572883406    0.035988151760803874    0.036490029989989174    
  0.036661267204831954    0.04382834750264503    0.04358012571224988    0.04285372198959798    0.04170008662838923    
  0.04019357252631832    0.038421702025054794    0.03647691003758035    0.034450280237450295    0.03242618910180197    
  0.030477617491333615    0.02866271598639964    0.027023016466823393    0.025583205925530293    0.024352368023551375    
  0.023326767192219756    0.022494025983982112    0.02183796827675327    0.021342985264286896    0.020996891069110367    
  0.020791865111388023    0.02072391417575041    0.020791865111388034    0.020996891069110322    0.021342985264286882    
  0.02183796827675327    0.022494025983982112    0.023326767192219773    0.02435236802355139    0.025583205925530254    
  0.02702301646682337    0.02866271598639962    0.030477617491333594    0.03242618910180197    0.03445028023745036    
  0.03647691003758037    0.038421702025054794    0.040193572526318284    0.04170008662838922    0.04285372198959797    
  0.04358012571224986    0.04382834750264503    0.05301200709389958    0.052660745581113506    0.05163376413097763    
  0.05000555219148478    0.047884060248822254    0.04539529625667886    0.04267122497155787    0.039840708684843164    
  0.03702156880246121    0.03431357694069425    0.031793861878268354    0.029515743571781584    0.027510436149984097    
  0.025790255589290285    0.024352368023551393    0.023182934739785166    0.022261881642321346    0.021568078480819517    
  0.021083832238153976    0.02079729784703217    0.020702376500951004    0.02079729784703216    0.02108383223815395    
  0.021568078480819517    0.022261881642321346    0.023182934739785218    0.02435236802355139    0.025790255589290278    
  0.027510436149984094    0.029515743571781546    0.031793861878268326    0.03431357694069424    0.03702156880246121    
  0.03984070868484318    0.042671224971557876    0.04539529625667889    0.04788406024882227    0.050005552191484816    
  0.05163376413097762    0.05266074558111344    0.05301200709389958    0.06452860244874585    0.06404256835181145    
  0.06262245491820985    0.060373747007534215    0.057449183484501676    0.05402707852605033    0.05029424777499438    
  0.04643247929272724    0.04260567957792419    0.038948450434561396    0.03555977946378088    0.03250389230851137    
  0.0298162442154887    0.02751043614998413    0.02558320592553027    0.024017806407322557    0.022788071936860166    
  0.021864594048566614    0.021221645988020375    0.020841725034211105    0.02071592610319433    0.02084172503421113    
  0.02122164598802034    0.021864594048566572    0.022788071936860166    0.024017806407322557    0.025583205925530265    
  0.02751043614998414    0.029816244215488688    0.03250389230851134    0.03555977946378085    0.03894845043456138    
  0.04260567957792419    0.04643247929272727    0.050294247774994354    0.05402707852605035    0.05744918348450166    
  0.06037374700753423    0.06262245491820988    0.06404256835181141    0.06452860244874585    0.0786683557693044    
  0.0780100944329018    0.07608795201115179    0.0730479036087649    0.06910102406262963    0.06449384366702404    
  0.059485303617787755    0.05432759928257496    0.04924627545988426    0.04442178717175619    0.039979943492988876    
  0.03599534995642894    0.032503892308511376    0.02951574357178162    0.027023016466823462    0.025002715990439295    
  0.02341992281808429    0.022234760280993252    0.021411670285110065    0.02092610322826659    0.020765445566615685    