#     DFTpy    
  CRYSTAL 
    
  PRIMVEC    
  3.8348453307518504    -2.1069000000000002e-10    3.9936000000000006e-10    
  -2.1069000000000002e-10    3.8348453305290207    1.9243000000000003e-10    
  7.297700000000001e-10    3.5170000000000004e-10    7.025510967662301    
  PRIMCOORD    
  4    1    
  Si    1.9174226653028605    1.9174226663197307    2.1588991203820505    
  Si    7.110300000000002e-10    -6.580500000000001e-10    1.3538563610874603    
  Si    1.0906000000000002e-10    4.969800000000001e-10    5.671654602589921    
  Si    1.9174226658777507    1.9174226648630606    4.866611851856952    
  BEGIN_BLOCK_DATAGRID_3D    
  3d_datagrid_density    
  BEGIN_DATAGRID_3D#0    
  37    37    73    
  0.0    0.0    0.0    
  3.834845345055897    -2.1069000078587775e-10    3.993600014896205e-10    
  -2.1069000078587775e-10    3.834845344833067    1.9243000071776762e-10    
  7.297700027220561e-10    3.5170000131184774e-10    7.0255109938675915    
  0.33717334684208544    0.332134863319325    0.3175044256959965    0.29470616904877506    0.2659406352235107    
  0.23381043613964994    0.20083052499829057    0.16904595129885427    0.1398888764516616    0.1142212947039283    
  0.09243558341010087    0.07454695765113219    0.060288732070046765    0.049229728214310535    0.040896948684664605    
  0.0348662707274662    0.030802462679631586    0.02846393982846193    0.027701496593914444    0.02846393982846195    
  0.030802462679631586    0.034866270727466245    0.04089694868466462    0.049229728214310514    0.060288732070046765    
  0.07454695765113221    0.09243558341010087    0.11422129470392833    0.1398888764516616    0.1690459512988543    
  0.20083052499829057    0.23381043613964983    0.2659406352235107    0.29470616904877506    0.3175044256959965    
  0.33213486331932496    0.33717334684208544    0.3321348633193249    0.3271811488088543    0.31280013757033426    
  0.2903981600336065    0.2621404987488836    0.23057966761599819    0.1981769350163563    0.16693304456734076    
  0.13825246657797677    0.11298588778516709    0.09152607738180277    0.07389494780691303    0.05983486495014231    
  0.04892396273849637    0.04069800553996893    0.034740790062377985    0.0307239175925566    0.028411199911115577    
  0.027656948584371226    0.028411199911115608    0.030723917592556594    0.03474079006237801    0.04069800553996894    
  0.048923962738496356    0.05983486495014229    0.07389494780691304    0.09152607738180277    0.11298588778516709    
  0.13825246657797677    0.1669330445673408    0.1981769350163563    0.2305796676159981    0.2621404987488836    
  0.2903981600336066    0.31280013757033426    0.3271811488088543    0.3321348633193249    0.3175044256959966    
  0.3128001375703343    0.29915021026233324    0.2779028326198332    0.25111647450914704    0.22119912820781462    
  0.19046128064262008    0.1607802361321738    0.13348214746811327    0.10938346745505961    0.0888750826301544    
  0.07199586674891213    0.05851352666250833    0.048033583512499235    0.04011807038727881    0.03437442151263026    
  0.030494274743927494    0.028256942591388053    0.027526672393128362    0.028256942591388088    0.030494274743927498    
  0.034374421512630295    0.04011807038727883    0.04803358351249921    0.05851352666250833    0.07199586674891217    
  0.0888750826301544    0.10938346745505961    0.13348214746811327    0.16078023613217376    0.19046128064262008    
  0.22119912820781457    0.25111647450914704    0.27790283261983323    0.29915021026233324    0.3128001375703343    
  0.3175044256959966    0.29470616904877506    0.2903981600336066    0.2779028326198331    0.25846197028451545    
  0.23395689218591748    0.20657309398029453    0.178399184793674    0.15113352202343847    0.12598581963614888    
  0.103715882909683    0.08470401287580843    0.06900897952676212    0.056435276939153574    0.046631703738579444    
  0.03920308504904057    0.033795081021267395    0.03013082799837233    0.02801320593275496    0.027321165657131188    
  0.02801320593275496    0.030130827998372314    0.03379508102126741    0.03920308504904058    0.046631703738579444    
  0.056435276939153574    0.06900897952676215    0.08470401287580843    0.10371588290968302    0.12598581963614888    
  0.15113352202343847    0.178399184793674    0.20657309398029441    0.23395689218591748    0.25846197028451545    
  0.2779028326198331    0.2903981600336066    0.29470616904877506    0.26594063522351075    0.2621404987488836    
  0.2511164745091471    0.2339568921859175    0.2123070476349189    0.18807620846409856    0.1630907158315924    
  0.13884135338726022    0.11639911276872546    0.09644858058882778    0.07934652307351914    0.06516746945262193    
  0.05375787630533157    0.044821216423164154    0.038018156398313505    0.03304378249834894    0.02966068527851431    
  0.027700219391462166    0.02705862345753476    0.02770021939146219    0.02966068527851431    0.033043782498348974    
  0.038018156398313505    0.044821216423164154    0.05375787630533157    0.06516746945262197    0.07934652307351914    
  0.0964485805888278    0.11639911276872546    0.1388413533872602    0.1630907158315924    0.1880762084640985    
  0.2123070476349189    0.23395689218591756    0.2511164745091471    0.2621404987488836    0.26594063522351075    
  0.23381043613964994    0.23057966761599819    0.22119912820781457    0.20657309398029447    0.1880762084640985    
  0.16731514168271538    0.14583923867910553    0.12492380240324956    0.10549310709327203    0.08814537810809639    
  0.07320200123031226    0.06074564919189374    0.05066422037046088    0.042721117304163427    0.03663997065870255    
  0.03217091628566639    0.02911906985641006    0.02734551701521866    0.026764241914589634    0.027345517015218677    
  0.02911906985641006    0.0321709162856664    0.03663997065870257    0.04272111730416343    0.050664220370460866    
  0.06074564919189374    0.07320200123031226    0.08814537810809639    0.105493107093272    0.12492380240324956    
  0.14583923867910553    0.1673151416827153    0.1880762084640985    0.20657309398029441    0.22119912820781457    
  0.23057966761599816    0.23381043613964994    0.20083052499829057    0.1981769350163563    0.1904612806426201    
  0.178399184793674    0.16309071583159232    0.1458392386791055    0.12791983374428115    0.11039629664407946    
  0.09404795113026665    0.0793837658090314    0.06668285791394167    0.056028741850841016    0.04734652626376119    
  0.04045887588198191    0.035152998318466785    0.03123364726967675    0.028546676650590453    0.026980961109805263    
  0.026467088119771866    0.026980961109805263    0.028546676650590453    0.031233647269676784    0.03515299831846675    
  0.04045887588198189    0.04734652626376118    0.05602874185084102    0.06668285791394168    0.0793837658090314    
  0.09404795113026665    0.11039629664407946    0.12791983374428115    0.1458392386791055    0.16309071583159232    
  0.17839918479367406    0.1904612806426201    0.19817693501635625    0.20083052499829057    0.16904595129885425    
  0.16693304456734082    0.16078023613217374    0.15113352202343847    0.13884135338726009    0.1249238024032495    
  0.11039629664407946    0.09612144614405403    0.08274070496456747    0.07067685573887443    0.06016500889330416    
  0.051284319542230325    0.043991199761481206    0.038162557929970996    0.03364457441207741    0.03029155756451811    
  0.02798500127622947    0.026637729323333543    0.02619496823281949    0.026637729323333567    0.02798500127622948    
  0.030291557564518137    0.03364457441207738    0.03816255792997102    0.043991199761481206    0.051284319542230325    
  0.06016500889330418    0.07067685573887439    0.08274070496456747    0.09612144614405402    0.11039629664407946    
  0.12492380240324948    0.13884135338726009    0.1511335220234385    0.16078023613217374    0.1669330445673408    
  0.16904595129885425    0.1398888764516616    0.13825246657797685    0.13348214746811327    0.1259858196361489    
  0.11639911276872543    0.10549310709327205    0.09404795113026668    0.08274070496456752    0.07208516303295105    
  0.06242410459085558    0.053950210420992774    0.046735067144418746    0.040759798389858284    0.03594753996279917    
  0.03219527733420519    0.029399264772351323    0.027470384954499112    0.026341250291350718    0.025969682616595956    
  0.026341250291350756    0.027470384954499112    0.029399264772351393    0.03219527733420519    0.03594753996279917    
  0.04075979838985829    0.046735067144418746    0.053950210420992774    0.06242410459085557    0.07208516303295105    
  0.08274070496456751    0.09404795113026669    0.10549310709327203    0.11639911276872543    0.12598581963614888    
  0.13348214746811327    0.13825246657797685    0.1398888764516616    0.11422129470392826    0.11298588778516712    
  0.10938346745505957    0.10371588290968298    0.09644858058882774    0.08814537810809642    0.07938376580903136    
  0.07067685573887439    0.06242410459085552    0.05489639818163858    0.048247552293547755    0.042539714371481276    
  0.03777147559569248    0.03390170282163098    0.03086751264272145    0.028598527100375234    0.02702922452411727    
  0.026108555073173924    0.0258051424766068    0.026108555073173965    0.027029224524117282    0.028598527100375252    
  0.030867512642721442    0.033901702821631005    0.03777147559569248    0.042539714371481276    0.048247552293547755    
  0.054896398181638564    0.06242410459085552    0.07067685573887438    0.07938376580903136    0.08814537810809642    
  0.09644858058882774    0.10371588290968295    0.10938346745505959    0.11298588778516709    0.11422129470392826    
  0.09243558341010086    0.09152607738180277    0.0888750826301544    0.08470401287580843    0.07934652307351912    
  0.07320200123031227    0.06668285791394168    0.060165008893304193    0.05395021042099281    0.048247552293547796    
  0.04317718286552517    0.038790922142599917    0.03509705030811669    0.03207789828042838    0.029698585169846713    
  0.02791351328588796    0.026675913200937974    0.025948267523099193    0.025708113237411363    0.025948267523099214    
  0.026675913200937974    0.027913513285888016    0.029698585169846713    0.03207789828042838    0.03509705030811669    
  0.03879092214259991    0.04317718286552517    0.04824755229354779    0.05395021042099281    0.060165008893304193    
  0.06668285791394168    0.07320200123031226    0.07934652307351912    0.08470401287580841    0.0888750826301544    
  0.09152607738180277    0.09243558341010086    0.07454695765113219    0.07389494780691308    0.07199586674891212    
  0.06900897952676215    0.06516746945262193    0.060745649191893736    0.05602874185084102    0.05128431954223036    
  0.04673506714441868    0.04253971437148125    0.03879092214259986    0.035530076905000034    0.03276782378295572    
  0.03049793085190621    0.028701851304985378    0.027350979373904565    0.026413042481708324    0.025861038125473745    
  0.025678743921911572    0.025861038125473745    0.026413042481708324    0.02735097937390459    0.028701851304985378    
  0.030497930851906264    0.03276782378295572    0.035530076905    0.03879092214259986    0.042539714371481255    
  0.04673506714441867    0.05128431954223038    0.05602874185084102    0.06074564919189374    0.06516746945262193    
  0.06900897952676215    0.07199586674891213    0.0738949478069131    0.07454695765113219    0.060288732070046765    
  0.059834864950142355    0.058513526662508315    0.05643527693915364    0.053757876305331555    0.05066422037046093    
  0.04734652626376119    0.04399119976148123    0.04075979838985827    0.0377714755956925    0.035097050308116697    
  0.03276782378295577    0.030791455293395005    0.02916407765068485    0.027874516720628593    0.026904856036860613    
  0.02623316755578106    0.025839186789355074    0.025709396684765552    0.02583918678935511    0.02623316755578106    
  0.026904856036860658    0.027874516720628593    0.029164077650684874    0.030791455293395005    0.03276782378295576    
  0.035097050308116697    0.037771475595692494    0.04075979838985827    0.04399119976148123    0.04734652626376119    
  0.05066422037046091    0.053757876305331555    0.056435276939153595    0.058513526662508315    0.059834864950142376    
  0.060288732070046765    0.0492297282143105    0.04892396273849645    0.048033583512499214    0.04663170373857945    
  0.04482121642316414    0.04272111730416346    0.04045887588198194    0.038162557929971024    0.03594753996279913    
  0.03390170282163108    0.03207789828042833    0.030497930851906246    0.02916407765068483    0.028070218303668133    
  0.027207246760475153    0.026563188585227278    0.026122358884328532    0.025867364479672757    0.025784170579598083    
  0.025867364479672826    0.026122358884328577    0.026563188585227278    0.027207246760475153    0.02807021830366811    
  0.02916407765068483    0.030497930851906205    0.03207789828042833    0.03390170282163107    0.03594753996279913    
  0.03816255792997102    0.04045887588198194    0.04272111730416346    0.04482121642316415    0.04663170373857945    
  0.04803358351249922    0.048923962738496446    0.0492297282143105    0.04089694868466462    0.04069800553996897    
  0.04011807038727875    0.03920308504904052    0.03801815639831349    0.03663997065870252    0.03515299831846683    
  0.0336445744120774    0.03219527733420527    0.030867512642721466    0.029698585169846727    0.028701851304985423    
  0.027874516720628593    0.027207246760475246    0.026690317236412586    0.026313864555428654    0.026064788656416735    
  0.02592608897961727    0.025882030678232137    0.025926088979617342    0.026064788656416735    0.02631386455542869    
  0.026690317236412586    0.02720724676047528    0.027874516720628593    0.028701851304985378    0.029698585169846727    
  0.03086751264272143    0.03219527733420527    0.0336445744120774    0.03515299831846683    0.036639970658702524    
  0.03801815639831349    0.03920308504904052    0.04011807038727875    0.040698005539969    0.04089694868466462    
  0.0348662707274662    0.034740790062378    0.0343744215126303    0.0337950810212674    0.03304378249834894    
  0.03217091628566639    0.03123364726967682    0.030291557564518207    0.02939926477235135    0.028598527100375252    
  0.027913513285887936    0.02735097937390459    0.026904856036860682    0.026563188585227254    0.026313864555428678    
  0.02614570932085967    0.026045496077750287    0.02599632756781132    0.025982191018679903    0.02599632756781134    
  0.026045496077750287    0.026145709320859717    0.026313864555428633    0.026563188585227302    0.026904856036860682    
  0.02735097937390454    0.02791351328588794    0.02859852710037521    0.029399264772351334    0.030291557564518238    
  0.03123364726967682    0.0321709162856664    0.033043782498348946    0.033795081021267395    0.034374421512630295    
  0.03474079006237802    0.0348662707274662    0.030802462679631545    0.03072391759255667    0.03049427474392747    
  0.03013082799837232    0.029660685278514294    0.029119069856410034    0.028546676650590443    0.02798500127622955    
  0.027470384954499084    0.027029224524117282    0.026675913200937904    0.026413042481708313    0.02623316755578099    
  0.026122358884328532    0.02606478865641669    0.026045496077750287    0.026049698688584533    0.026061652330855303    
  0.02606753990652189    0.026061652330855323    0.026049698688584533    0.026045496077750266    0.02606478865641669    
  0.026122358884328577    0.026233167555781    0.02641304248170828    0.026675913200937904    0.027029224524117258    
  0.02747038495449909    0.02798500127622955    0.028546676650590443    0.029119069856410034    0.029660685278514305    
  0.030130827998372297    0.030494274743927477    0.03072391759255667    0.030802462679631545    0.02846393982846194    
  0.028411199911115632    0.02825694259138807    0.0280132059327549    0.02770021939146219    0.027345517015218614    
  0.026980961109805295    0.026637729323333557    0.026341250291350756    0.026108555073174014    0.02594826752309917    
  0.025861038125473745    0.02583918678935512    0.025867364479672875    0.025926088979617342    0.025996327567811294    
  0.026061652330855348    0.026108059815427246    0.026124916645634783    0.026108059815427246    0.026061652330855348    
  0.025996327567811294    0.025926088979617342    0.025867364479672934    0.02583918678935512    0.025861038125473745    
  0.02594826752309917    0.026108555073174    0.026341250291350756    0.02663772932333356    0.02698096110980528    
  0.027345517015218625    0.027700219391462184    0.028013205932754928    0.028256942591388078    0.028411199911115632    
  0.02846393982846194    0.02770149659391441    0.027656948584371246    0.027526672393128317    0.02732116565713122    
  0.02705862345753473    0.026764241914589634    0.026467088119771894    0.026194968232819495    0.025969682616595907    
  0.025805142476606827    0.025708113237411283    0.025678743921911596    0.02570939668476559    0.025784170579598083    
  0.025882030678232044    0.025982191018679858    0.026067539906521938    0.02612491664563471    0.02614518728084703    
  0.026124916645634735    0.026067539906521938    0.025982191018679858    0.025882030678232044    0.025784170579598153    
  0.02570939668476559    0.025678743921911596    0.025708113237411283    0.0258051424766068    0.025969682616595907    
  0.02619496823281949    0.026467088119771894    0.02676424191458962    0.02705862345753473    0.027321165657131188    
  0.027526672393128317    0.02765694858437128    0.02770149659391441    0.028463939828461914    0.028411199911115636    
  0.028256942591388043    0.02801320593275491    0.02770021939146219    0.027345517015218607    0.026980961109805277    
  0.02663772932333354    0.026341250291350756    0.026108555073174014    0.025948267523099214    0.025861038125473745    
  0.025839186789355095    0.02586736447967286    0.025926088979617387    0.025996327567811294    0.026061652330855348    
  0.02610805981542722    0.026124916645634783    0.026108059815427246    0.026061652330855348    0.025996327567811294    
  0.025926088979617387    0.025867364479672934    0.025839186789355095    0.025861038125473725    0.025948267523099214    
  0.026108555073174    0.026341250291350756    0.02663772932333355    0.026980961109805277    0.027345517015218614    
  0.02770021939146218    0.0280132059327549    0.028256942591388043    0.028411199911115625    0.028463939828461914    
  0.030802462679631538    0.03072391759255666    0.03049427474392747    0.030130827998372314    0.029660685278514305    
  0.029119069856410024    0.028546676650590443    0.02798500127622955    0.02747038495449909    0.027029224524117282    
  0.026675913200937904    0.026413042481708313    0.02623316755578099    0.026122358884328543    0.02606478865641669    
  0.026045496077750287    0.026049698688584533    0.026061652330855303    0.02606753990652189    0.026061652330855323    
  0.026049698688584533    0.026045496077750266    0.02606478865641669    0.026122358884328626    0.026233167555781013    
  0.02641304248170828    0.026675913200937904    0.027029224524117258    0.027470384954499084    0.02798500127622955    
  0.028546676650590443    0.029119069856410034    0.029660685278514294    0.030130827998372314    0.03049427474392748    
  0.03072391759255667    0.030802462679631538    0.03486627072746621    0.034740790062378006    0.03437442151263027    
  0.0337950810212674    0.03304378249834898    0.03217091628566639    0.031233647269676805    0.03029155756451818    
  0.029399264772351316    0.028598527100375262    0.027913513285887922    0.02735097937390454    0.026904856036860682    
  0.026563188585227278    0.026313864555428678    0.026145709320859693    0.02604549607775031    0.025996327567811294    
  0.025982191018679903    0.025996327567811294    0.026045496077750335    0.02614570932085967    0.02631386455542869    
  0.026563188585227278    0.026904856036860682    0.02735097937390452    0.02791351328588792    0.02859852710037522    
  0.029399264772351323    0.030291557564518186    0.031233647269676812    0.032170916285666415    0.03304378249834897    
  0.03379508102126738    0.03437442151263027    0.034740790062378006    0.03486627072746621    0.04089694868466462    
  0.040698005539968975    0.04011807038727875    0.03920308504904054    0.03801815639831349    0.03663997065870252    
  0.03515299831846683    0.0336445744120774    0.03219527733420527    0.030867512642721466    0.029698585169846727    
  0.028701851304985423    0.027874516720628593    0.0272072467604752    0.026690317236412586    0.026313864555428654    
  0.026064788656416735    0.02592608897961727    0.025882030678232137    0.025926088979617342    0.026064788656416735    
  0.02631386455542869    0.026690317236412586    0.02720724676047526    0.027874516720628593    0.028701851304985378    
  0.029698585169846727    0.03086751264272143    0.03219527733420527    0.033644574412077424    0.03515299831846683    
  0.036639970658702545    0.03801815639831349    0.0392030850490405    0.04011807038727875    0.04069800553996898    
  0.04089694868466462    0.04922972821431049    0.048923962738496425    0.04803358351249924    0.04663170373857943    
  0.044821216423164126    0.04272111730416345    0.04045887588198193    0.03816255792997103    0.03594753996279917    
  0.033901702821631    0.03207789828042834    0.03049793085190625    0.02916407765068483    0.028070218303668133    
  0.027207246760475153    0.026563188585227264    0.0261223588843286    0.025867364479672816    0.025784170579598083    
  0.0258673644796729    0.0261223588843286    0.026563188585227264    0.027207246760475177    0.028070218303668085    
  0.02916407765068485    0.030497930851906246    0.03207789828042834    0.033901702821630984    0.03594753996279917    
  0.03816255792997103    0.04045887588198193    0.042721117304163454    0.044821216423164126    0.04663170373857944    
  0.048033583512499235    0.04892396273849644    0.04922972821431049    0.060288732070046765    0.059834864950142355    
  0.058513526662508315    0.056435276939153615    0.053757876305331555    0.05066422037046093    0.04734652626376119    
  0.04399119976148123    0.04075979838985827    0.0377714755956925    0.035097050308116697    0.03276782378295578    
  0.030791455293395005    0.02916407765068485    0.027874516720628593    0.026904856036860637    0.02623316755578106    
  0.025839186789355074    0.025709396684765552    0.02583918678935511    0.02623316755578106    0.026904856036860658    
  0.027874516720628593    0.029164077650684874    0.030791455293395005    0.03276782378295576    0.035097050308116697    
  0.037771475595692494    0.04075979838985828    0.04399119976148123    0.04734652626376119    0.05066422037046091    
  0.053757876305331555    0.056435276939153595    0.058513526662508315    0.05983486495014237    0.060288732070046765    
  0.07454695765113216    0.0738949478069131    0.07199586674891212    0.06900897952676215    0.0651674694526219    
  0.0607456491918937    0.05602874185084102    0.05128431954223034    0.04673506714441868    0.042539714371481276    
  0.038790922142599917    0.03553007690500002    0.03276782378295571    0.030497930851906198    0.028701851304985343    
  0.02735097937390452    0.0264130424817083    0.025861038125473676    0.025678743921911596    0.025861038125473794    
  0.02641304248170828    0.02735097937390454    0.028701851304985378    0.03049793085190625    0.03276782378295571    
  0.035530076904999965    0.03879092214259985    0.04253971437148128    0.04673506714441868    0.05128431954223033    
  0.05602874185084102    0.06074564919189372    0.0651674694526219    0.06900897952676215    0.07199586674891212    
  0.07389494780691312    0.07454695765113216    0.09243558341010086    0.09152607738180277    0.0888750826301544    
  0.08470401287580843    0.07934652307351912    0.07320200123031227    0.06668285791394168    0.060165008893304193    
  0.05395021042099281    0.048247552293547796    0.04317718286552517    0.038790922142599917    0.03509705030811669    
  0.03207789828042838    0.029698585169846713    0.02791351328588796    0.026675913200937974    0.025948267523099193    
  0.025708113237411363    0.025948267523099214    0.026675913200937974    0.027913513285888016    0.029698585169846713    
  0.03207789828042838    0.03509705030811669    0.03879092214259991    0.04317718286552517    0.04824755229354779    
  0.05395021042099281    0.060165008893304193    0.06668285791394168    0.07320200123031226    0.07934652307351912    
  0.08470401287580843    0.0888750826301544    0.09152607738180277    0.09243558341010086    0.11422129470392826    
  0.11298588778516712    0.10938346745505954    0.10371588290968298    0.09644858058882774    0.08814537810809644    
  0.07938376580903136    0.07067685573887439    0.062424104590855505    0.054896398181638564    0.04824755229354775    
  0.042539714371481276    0.03777147559569249    0.03390170282163098    0.03086751264272145    0.028598527100375234    
  0.02702922452411727    0.026108555073173924    0.025805142476606792    0.026108555073173965    0.02702922452411727    
  0.028598527100375252    0.03086751264272145    0.033901702821631005    0.03777147559569249    0.042539714371481276    
  0.04824755229354775    0.05489639818163856    0.062424104590855505    0.07067685573887439    0.07938376580903136    
  0.08814537810809643    0.09644858058882774    0.10371588290968295    0.10938346745505957    0.11298588778516709    
  0.11422129470392826    0.1398888764516616    0.13825246657797685    0.13348214746811327    0.1259858196361489    
  0.11639911276872543    0.10549310709327205    0.09404795113026668    0.08274070496456752    0.07208516303295105    
  0.06242410459085558    0.053950210420992774    0.046735067144418746    0.040759798389858284    0.03594753996279917    
  0.03219527733420519    0.029399264772351323    0.027470384954499112    0.026341250291350725    0.025969682616595956    
  0.026341250291350756    0.027470384954499112    0.029399264772351393    0.03219527733420519    0.03594753996279917    
  0.04075979838985829    0.046735067144418746    0.053950210420992774    0.06242410459085557    0.07208516303295105    
  0.08274070496456751    0.09404795113026669    0.10549310709327203    0.11639911276872543    0.12598581963614888    
  0.13348214746811327    0.13825246657797685    0.1398888764516616    0.16904595129885425    0.16693304456734082    
  0.1607802361321738    0.15113352202343847    0.13884135338726014    0.12492380240324956    0.11039629664407946    
  0.09612144614405403    0.08274070496456748    0.07067685573887439    0.06016500889330413    0.05128431954223032    
  0.04399119976148115    0.038162557929970996    0.033644574412077376    0.03029155756451817    0.027985001276229538    
  0.026637729323333505    0.02619496823281948    0.026637729323333522    0.027985001276229538    0.030291557564518186    
  0.033644574412077376    0.03816255792997097    0.04399119976148115    0.05128431954223032    0.06016500889330413    
  0.07067685573887438    0.08274070496456748    0.09612144614405399    0.11039629664407946    0.12492380240324953    
  0.1388413533872601    0.15113352202343847    0.1607802361321738    0.1669330445673408    0.16904595129885425    
  0.20083052499829057    0.1981769350163563    0.1904612806426201    0.178399184793674    0.16309071583159232    
  0.1458392386791055    0.12791983374428115    0.11039629664407946    0.09404795113026665    0.0793837658090314    
  0.06668285791394167    0.056028741850841016    0.04734652626376118    0.04045887588198191    0.035152998318466785    
  0.03123364726967675    0.028546676650590453    0.026980961109805263    0.02646708811977187    0.026980961109805263    
  0.028546676650590453    0.031233647269676784    0.03515299831846678    0.040458875881981896    0.04734652626376119    
  0.05602874185084102    0.06668285791394168    0.0793837658090314    0.09404795113026665    0.11039629664407946    
  0.12791983374428115    0.1458392386791055    0.16309071583159232    0.178399184793674    0.1904612806426201    
  0.19817693501635625    0.20083052499829057    0.23381043613964989    0.23057966761599819    0.22119912820781454    
  0.2065730939802945    0.1880762084640985    0.1673151416827154    0.1458392386791055    0.12492380240324953    
  0.105493107093272    0.08814537810809646    0.07320200123031226    0.0607456491918937    0.05066422037046093    
  0.04272111730416344    0.03663997065870259    0.0321709162856664    0.029119069856410017    0.027345517015218625    
  0.026764241914589627    0.027345517015218635    0.029119069856410006    0.032170916285666436    0.036639970658702586    
  0.04272111730416344    0.05066422037046093    0.06074564919189372    0.07320200123031226    0.08814537810809644    
  0.105493107093272    0.1249238024032495    0.1458392386791055    0.16731514168271533    0.1880762084640985    
  0.20657309398029441    0.22119912820781454    0.23057966761599816    0.23381043613964989    0.26594063522351075    
  0.2621404987488836    0.2511164745091471    0.23395689218591756    0.2123070476349189    0.18807620846409856    
  0.1630907158315924    0.13884135338726022    0.11639911276872546    0.09644858058882778    0.07934652307351914    
  0.06516746945262193    0.053757876305331555    0.04482121642316414    0.038018156398313505    0.033043782498348946    
  0.029660685278514315    0.02770021939146219    0.02705862345753476    0.02770021939146219    0.02966068527851431    
  0.033043782498348974    0.038018156398313505    0.044821216423164154    0.053757876305331555    0.06516746945262197    
  0.07934652307351914    0.0964485805888278    0.11639911276872546    0.1388413533872602    0.1630907158315924    