#     DFTpy    
  CRYSTAL 
    
  PRIMVEC    
  3.283729834116861    -1.8041000000000003e-10    3.4196000000000003e-10    
  -1.8041000000000003e-10    3.2837298339260506    1.6477000000000002e-10    
  6.248900000000001e-10    3.0115000000000004e-10    6.0158566968605305    
  PRIMCOORD    
  4    1    
  Si    1.6418649169958703    1.6418649178665903    1.8486381689499003    
  Si    6.088500000000001e-10    -5.634800000000001e-10    1.1592901774581201    
  Si    9.338000000000002e-11    4.2556e-10    4.8565665159901705    
  Si    1.6418649174881301    1.6418649166192603    4.167218531829611    
  BEGIN_BLOCK_DATAGRID_3D    
  3d_datagrid_density    
  BEGIN_DATAGRID_3D#0    
  33    33    61    
  0.0    0.0    0.0    
  3.283729846365236    -1.8041000067293278e-10    3.419600012755174e-10    
  -1.8041000067293278e-10    3.2837298461744253    1.6477000061459526e-10    
  6.248900023308517e-10    3.011500011232953e-10    6.015856719299791    
  0.5799703664226035    0.5709191356842205    0.5446721875051278    0.5038832935341002    0.45263674750491867    
  0.39574905789816983    0.3378602538227856    0.28271076352046987    0.2328500955103791    0.18970441217156295    
  0.15379583673779745    0.12499294494264516    0.10276807703857523    0.0864360845565243    0.07533049801725879    
  0.06890726841307009    0.0668081627452373    0.06890726841307009    0.07533049801725879    0.0864360845565243    
  0.10276807703857523    0.12499294494264516    0.15379583673779745    0.18970441217156295    0.2328500955103791    
  0.28271076352046987    0.3378602538227856    0.39574905789816983    0.45263674750491867    0.5038832935341002    
  0.5446721875051278    0.5709191356842205    0.5799703664226035    0.5709191356842206    0.5620490061657256    
  0.5363248294642966    0.49634072182344646    0.4460908584514213    0.3902887797670538    0.33347913162910414    
  0.27932813339053475    0.2303363023973802    0.1879052479899451    0.15255498461624986    0.12416988427511604    
  0.10224750732162816    0.08612777009371883    0.07516299877402366    0.06882053134677085    0.06674778871219444    
  0.06882053134677085    0.07516299877402366    0.08612777009371883    0.10224750732162816    0.12416988427511604    
  0.15255498461624986    0.1879052479899451    0.2303363023973802    0.27932813339053475    0.33347913162910414    
  0.3902887797670538    0.4460908584514213    0.49634072182344646    0.5363248294642966    0.5620490061657256    
  0.5709191356842206    0.5446721875051279    0.5363248294642965    0.5121109179686613    0.4744547510799815    
  0.4270913076301995    0.3744349986007287    0.3207516656541485    0.26949109977076546    0.22301318533418454    
  0.18265159411219895    0.14892282345247487    0.1217570788505157    0.10072259506250429    0.08522870004808117    
  0.07467992660868118    0.06857597502011939    0.06658102296653898    0.06857597502011939    0.07467992660868118    
  0.08522870004808117    0.10072259506250429    0.1217570788505157    0.14892282345247487    0.18265159411219895    
  0.22301318533418454    0.26949109977076546    0.3207516656541485    0.3744349986007287    0.4270913076301995    
  0.4744547510799815    0.5121109179686613    0.5363248294642965    0.5446721875051279    0.5038832935341002    
  0.49634072182344646    0.4744547510799815    0.4403941736641585    0.3974977572124747    0.34971562518126087    
  0.30087674687614835    0.25409276632865196    0.2115089680109113    0.1743610988648272    0.14316550482880097    
  0.11792214831202738    0.09830150432710906    0.0838116556747125    0.07393223590778789    0.06821177246827564    
  0.06634169461419323    0.06821177246827564    0.07393223590778789    0.0838116556747125    0.09830150432710906    
  0.11792214831202738    0.14316550482880097    0.1743610988648272    0.2115089680109113    0.25409276632865196    
  0.30087674687614835    0.34971562518126087    0.3974977572124747    0.4403941736641585    0.4744547510799815    
  0.49634072182344646    0.5038832935341002    0.45263674750491867    0.4460908584514212    0.4270913076301996    
  0.3974977572124747    0.3601630964722159    0.3184604252835886    0.2756709711566036    0.23448318940004795    
  0.1967791093261196    0.16367990156642792    0.13570502277410765    0.11293553575231245    0.09515628664120593    
  0.08198496257901222    0.07298697320671764    0.06777083069134167    0.06606463995399567    0.06777083069134167    
  0.07298697320671764    0.08198496257901222    0.09515628664120593    0.11293553575231245    0.13570502277410765    
  0.16367990156642792    0.1967791093261196    0.23448318940004795    0.2756709711566036    0.3184604252835886    
  0.3601630964722159    0.3974977572124747    0.4270913076301996    0.4460908584514212    0.45263674750491867    
  0.39574905789816983    0.3902887797670536    0.3744349986007286    0.34971562518126087    0.31846042528358853    
  0.28341821868755684    0.24727499368625866    0.21225918697136376    0.17996862361576466    0.1514013167233093    
  0.1270754257545726    0.10714704462995032    0.09150777208832342    0.07987984072721814    0.0719154294282983    
  0.06728960813802198    0.06577484683823048    0.06728960813802198    0.0719154294282983    0.07987984072721814    
  0.09150777208832342    0.10714704462995032    0.1270754257545726    0.1514013167233093    0.17996862361576466    
  0.21225918697136376    0.24727499368625866    0.28341821868755684    0.31846042528358853    0.34971562518126087    
  0.3744349986007286    0.3902887797670536    0.39574905789816983    0.33786025382278556    0.3334791316291041    
  0.32075166565414837    0.30087674687614835    0.27567097115660355    0.2472749936862587    0.21779585206036486    
  0.18901311736110887    0.16224391168089328    0.13835729849227746    0.11785432959524476    0.10094336246511847    
  0.08760031480743469    0.07763717615348925    0.0707884010109573    0.0667986361656003    0.06548977990413093    
  0.0667986361656003    0.0707884010109573    0.07763717615348925    0.08760031480743469    0.10094336246511847    
  0.11785432959524476    0.13835729849227746    0.16224391168089328    0.18901311736110887    0.21779585206036486    
  0.2472749936862587    0.27567097115660355    0.30087674687614835    0.32075166565414837    0.3334791316291041    
  0.33786025382278556    0.28271076352046975    0.27932813339053464    0.26949109977076546    0.25409276632865196    
  0.23448318940004795    0.21225918697136376    0.18901311736110887    0.16612222479266353    0.14464328431013002    
  0.12531117975306222    0.10858552080902274    0.09469416790409475    0.08366805702175799    0.07539074865839673    
  0.06967213577922911    0.06632617001160762    0.06522558319615605    0.06632617001160762    0.06967213577922911    
  0.07539074865839673    0.08366805702175799    0.09469416790409475    0.10858552080902274    0.12531117975306222    
  0.14464328431013002    0.16612222479266353    0.18901311736110887    0.21225918697136376    0.23448318940004795    
  0.25409276632865196    0.26949109977076546    0.27932813339053464    0.28271076352046975    0.23285009551037908    
  0.2303363023973801    0.22301318533418454    0.21150896801091126    0.1967791093261196    0.17996862361576468    
  0.16224391168089333    0.14464328431013002    0.12799157444482773    0.11288580412051788    0.09971889844013586    
  0.08870522395972542    0.07990248379851408    0.07324839349383837    0.06861996365745149    0.06589606410414865    
  0.06499697915020045    0.06589606410414865    0.06861996365745149    0.07324839349383837    0.07990248379851408    
  0.08870522395972542    0.09971889844013586    0.11288580412051788    0.12799157444482773    0.14464328431013002    
  0.16224391168089333    0.17996862361576468    0.1967791093261196    0.21150896801091126    0.22301318533418454    
  0.2303363023973801    0.23285009551037908    0.18970441217156295    0.18790524798994507    0.18265159411219903    
  0.17436109886482712    0.1636799015664279    0.15140131672330942    0.13835729849227746    0.12531117975306227    
  0.11288580412051794    0.10154115385979458    0.09158580073045508    0.08319630755985698    0.07643561749973063    
  0.0712805885763086    0.06766473388559463    0.065522162269526    0.06481219820729184    0.065522162269526    
  0.06766473388559463    0.0712805885763086    0.07643561749973063    0.08319630755985698    0.09158580073045508    
  0.10154115385979458    0.11288580412051794    0.12531117975306227    0.13835729849227746    0.15140131672330942    
  0.1636799015664279    0.17436109886482712    0.18265159411219903    0.18790524798994507    0.18970441217156295    
  0.1537958367377975    0.15255498461624986    0.14892282345247487    0.143165504828801    0.13570502277410765    
  0.12707542575457267    0.11785432959524485    0.10858552080902283    0.09971889844013596    0.0915858007304551    
  0.08440597694896194    0.0783075081553374    0.07334613741372592    0.06952522000691427    0.06682108614719351    
  0.06520811924770856    0.0646717820166365    0.06520811924770856    0.06682108614719351    0.06952522000691427    
  0.07334613741372592    0.0783075081553374    0.08440597694896194    0.0915858007304551    0.09971889844013596    
  0.10858552080902283    0.11785432959524485    0.12707542575457267    0.13570502277410765    0.143165504828801    
  0.14892282345247487    0.15255498461624986    0.1537958367377975    0.12499294494264514    0.12416988427511594    
  0.1217570788505157    0.11792214831202738    0.11293553575231241    0.10714704462995031    0.10094336246511847    
  0.09469416790409475    0.08870522395972537    0.08319630755985688    0.0783075081553373    0.07412081399782416    
  0.0706802860602228    0.06800476507877784    0.06609734420336517    0.06495480092137286    0.06457424152220094    
  0.06495480092137286    0.06609734420336517    0.06800476507877784    0.0706802860602228    0.07412081399782416    
  0.0783075081553373    0.08319630755985688    0.08870522395972537    0.09469416790409475    0.10094336246511847    
  0.10714704462995031    0.11293553575231241    0.11792214831202738    0.1217570788505157    0.12416988427511594    
  0.12499294494264514    0.10276807703857521    0.10224750732162818    0.10072259506250432    0.09830150432710905    
  0.0951562866412059    0.09150777208832338    0.08760031480743477    0.08366805702175806    0.07990248379851414    
  0.07643561749973067    0.07334613741372592    0.0706802860602228    0.06847039732357739    0.0667408059763985    
  0.06550532812923932    0.06476653811421385    0.0645210134277903    0.06476653811421385    0.06550532812923932    
  0.0667408059763985    0.06847039732357739    0.0706802860602228    0.07334613741372592    0.07643561749973067    
  0.07990248379851414    0.08366805702175806    0.08760031480743477    0.09150777208832338    0.0951562866412059    
  0.09830150432710905    0.10072259506250432    0.10224750732162818    0.10276807703857521    0.0864360845565243    
  0.08612777009371882    0.08522870004808115    0.0838116556747125    0.08198496257901222    0.07987984072721818    
  0.07763717615348924    0.07539074865839676    0.07324839349383835    0.07128058857630869    0.06952522000691427    
  0.0680047650787778    0.06674080597639846    0.0657545881678668    0.06505778666524538    0.06464737562483999    
  0.06451249080119657    0.06464737562483999    0.06505778666524538    0.0657545881678668    0.06674080597639846    
  0.0680047650787778    0.06952522000691427    0.07128058857630869    0.07324839349383835    0.07539074865839676    
  0.07763717615348924    0.07987984072721818    0.08198496257901222    0.0838116556747125    0.08522870004808115    
  0.08612777009371882    0.0864360845565243    0.07533049801725869    0.07516299877402363    0.07467992660868115    
  0.07393223590778784    0.07298697320671756    0.07191542942829832    0.07078840101095737    0.06967213577922908    
  0.06861996365745146    0.06766473388559457    0.06682108614719347    0.06609734420336508    0.06550532812923927    
  0.06505778666524528    0.06475722863523181    0.06459051476267944    0.0645380460042439    0.06459051476267944    
  0.06475722863523181    0.06505778666524528    0.06550532812923927    0.06609734420336508    0.06682108614719347    
  0.06766473388559457    0.06861996365745146    0.06967213577922908    0.07078840101095737    0.07191542942829832    
  0.07298697320671756    0.07393223590778784    0.07467992660868115    0.07516299877402363    0.07533049801725869    
  0.06890726841307009    0.0688205313467709    0.06857597502011943    0.06821177246827564    0.06777083069134163    
  0.067289608138022    0.06679863616560036    0.06632617001160766    0.06589606410414864    0.06552216226952604    
  0.06520811924770856    0.06495480092137286    0.0647665381142138    0.06464737562483999    0.06459051476267944    
  0.06457422971820503    0.06457267637254628    0.06457422971820503    0.06459051476267944    0.06464737562483999    
  0.0647665381142138    0.06495480092137286    0.06520811924770856    0.06552216226952604    0.06589606410414864    
  0.06632617001160766    0.06679863616560036    0.067289608138022    0.06777083069134163    0.06821177246827564    
  0.06857597502011943    0.0688205313467709    0.06890726841307009    0.0668081627452371    0.06674778871219435    
  0.06658102296653892    0.06634169461419309    0.06606463995399557    0.06577484683823048    0.06548977990413091    
  0.06522558319615612    0.0649969791502004    0.0648121982072918    0.0646717820166363    0.06457424152220088    
  0.06452101342779026    0.06451249080119657    0.06453804600424394    0.06457267637254624    0.06458835093570892    
  0.06457267637254624    0.06453804600424394    0.06451249080119657    0.06452101342779026    0.06457424152220088    
  0.0646717820166363    0.0648121982072918    0.0649969791502004    0.06522558319615612    0.06548977990413091    
  0.06577484683823048    0.06606463995399557    0.06634169461419309    0.06658102296653892    0.06674778871219435    
  0.0668081627452371    0.06890726841307009    0.0688205313467709    0.06857597502011943    0.06821177246827564    
  0.06777083069134163    0.067289608138022    0.06679863616560036    0.06632617001160766    0.06589606410414864    
  0.06552216226952604    0.06520811924770856    0.06495480092137286    0.0647665381142138    0.06464737562483999    
  0.06459051476267944    0.06457422971820503    0.06457267637254628    0.06457422971820503    0.06459051476267944    
  0.06464737562483999    0.0647665381142138    0.06495480092137286    0.06520811924770856    0.06552216226952604    
  0.06589606410414864    0.06632617001160766    0.06679863616560036    0.067289608138022    0.06777083069134163    
  0.06821177246827564    0.06857597502011943    0.0688205313467709    0.06890726841307009    0.07533049801725869    
  0.07516299877402363    0.07467992660868115    0.07393223590778784    0.07298697320671756    0.07191542942829832    
  0.07078840101095737    0.06967213577922908    0.06861996365745146    0.06766473388559457    0.06682108614719347    
  0.06609734420336508    0.06550532812923927    0.06505778666524528    0.06475722863523181    0.06459051476267944    
  0.0645380460042439    0.06459051476267944    0.06475722863523181    0.06505778666524528    0.06550532812923927    
  0.06609734420336508    0.06682108614719347    0.06766473388559457    0.06861996365745146    0.06967213577922908    
  0.07078840101095737    0.07191542942829832    0.07298697320671756    0.07393223590778784    0.07467992660868115    
  0.07516299877402363    0.07533049801725869    0.0864360845565243    0.08612777009371882    0.08522870004808115    
  0.0838116556747125    0.08198496257901222    0.07987984072721818    0.07763717615348924    0.07539074865839676    
  0.07324839349383835    0.07128058857630869    0.06952522000691427    0.0680047650787778    0.06674080597639846    
  0.0657545881678668    0.06505778666524538    0.06464737562483999    0.06451249080119657    0.06464737562483999    
  0.06505778666524538    0.0657545881678668    0.06674080597639846    0.0680047650787778    0.06952522000691427    
  0.07128058857630869    0.07324839349383835    0.07539074865839676    0.07763717615348924    0.07987984072721818    
  0.08198496257901222    0.0838116556747125    0.08522870004808115    0.08612777009371882    0.0864360845565243    
  0.10276807703857521    0.10224750732162818    0.10072259506250432    0.09830150432710905    0.0951562866412059    
  0.09150777208832338    0.08760031480743477    0.08366805702175806    0.07990248379851414    0.07643561749973067    
  0.07334613741372592    0.0706802860602228    0.06847039732357739    0.0667408059763985    0.06550532812923932    
  0.06476653811421385    0.0645210134277903    0.06476653811421385    0.06550532812923932    0.0667408059763985    
  0.06847039732357739    0.0706802860602228    0.07334613741372592    0.07643561749973067    0.07990248379851414    
  0.08366805702175806    0.08760031480743477    0.09150777208832338    0.0951562866412059    0.09830150432710905    
  0.10072259506250432    0.10224750732162818    0.10276807703857521    0.12499294494264514    0.12416988427511594    
  0.1217570788505157    0.11792214831202738    0.11293553575231241    0.10714704462995031    0.10094336246511847    
  0.09469416790409475    0.08870522395972537    0.08319630755985688    0.0783075081553373    0.07412081399782416    
  0.0706802860602228    0.06800476507877784    0.06609734420336517    0.06495480092137286    0.06457424152220094    
  0.06495480092137286    0.06609734420336517    0.06800476507877784    0.0706802860602228    0.07412081399782416    
  0.0783075081553373    0.08319630755985688    0.08870522395972537    0.09469416790409475    0.10094336246511847    
  0.10714704462995031    0.11293553575231241    0.11792214831202738    0.1217570788505157    0.12416988427511594    
  0.12499294494264514    0.1537958367377975    0.15255498461624986    0.14892282345247487    0.143165504828801    
  0.13570502277410765    0.12707542575457267    0.11785432959524485    0.10858552080902283    0.09971889844013596    
  0.0915858007304551    0.08440597694896194    0.0783075081553374    0.07334613741372592    0.06952522000691427    
  0.06682108614719351    0.06520811924770856    0.0646717820166365    0.06520811924770856    0.06682108614719351    
  0.06952522000691427    0.07334613741372592    0.0783075081553374    0.08440597694896194    0.0915858007304551    
  0.09971889844013596    0.10858552080902283    0.11785432959524485    0.12707542575457267    0.13570502277410765    
  0.143165504828801    0.14892282345247487    0.15255498461624986    0.1537958367377975    0.18970441217156295    
  0.18790524798994507    0.18265159411219903    0.17436109886482712    0.1636799015664279    0.15140131672330942    
  0.13835729849227746    0.12531117975306227    0.11288580412051794    0.10154115385979458    0.09158580073045508    
  0.08319630755985698    0.07643561749973063    0.0712805885763086    0.06766473388559463    0.065522162269526    
  0.06481219820729184    0.065522162269526    0.06766473388559463    0.0712805885763086    0.07643561749973063    
  0.08319630755985698    0.09158580073045508    0.10154115385979458    0.11288580412051794    0.12531117975306227    
  0.13835729849227746    0.15140131672330942    0.1636799015664279    0.17436109886482712    0.18265159411219903    
  0.18790524798994507    0.18970441217156295    0.23285009551037908    0.2303363023973801    0.22301318533418454    
  0.21150896801091126    0.1967791093261196    0.17996862361576468    0.16224391168089333    0.14464328431013002    
  0.12799157444482773    0.11288580412051788    0.09971889844013586    0.08870522395972542    0.07990248379851408    
  0.07324839349383837    0.06861996365745149    0.06589606410414865    0.06499697915020045    0.06589606410414865    
  0.06861996365745149    0.07324839349383837    0.07990248379851408    0.08870522395972542    0.09971889844013586    
  0.11288580412051788    0.12799157444482773    0.14464328431013002    0.16224391168089333    0.17996862361576468    
  0.1967791093261196    0.21150896801091126    0.22301318533418454    0.2303363023973801    0.23285009551037908    
  0.28271076352046975    0.27932813339053464    0.26949109977076546    0.25409276632865196    0.23448318940004795    
  0.21225918697136376    0.18901311736110887    0.16612222479266353    0.14464328431013002    0.12531117975306222    
  0.10858552080902274    0.09469416790409475    0.08366805702175799    0.07539074865839673    0.06967213577922911    
  0.06632617001160762    0.06522558319615605    0.06632617001160762    0.06967213577922911    0.07539074865839673    
  0.08366805702175799    0.09469416790409475    0.10858552080902274    0.12531117975306222    0.14464328431013002    
  0.16612222479266353    0.18901311736110887    0.21225918697136376    0.23448318940004795    0.25409276632865196    
  0.26949109977076546    0.27932813339053464    0.28271076352046975    0.33786025382278556    0.3334791316291041    
  0.32075166565414837    0.30087674687614835    0.27567097115660355    0.2472749936862587    0.21779585206036486    
  0.18901311736110887    0.16224391168089328    0.13835729849227746    0.11785432959524476    0.10094336246511847    
  0.08760031480743469    0.07763717615348925    0.0707884010109573    0.0667986361656003    0.06548977990413093    
  0.0667986361656003    0.0707884010109573    0.07763717615348925    0.08760031480743469    0.10094336246511847    
  0.11785432959524476    0.13835729849227746    0.16224391168089328    0.18901311736110887    0.21779585206036486    
  0.2472749936862587    0.27567097115660355    0.30087674687614835    0.32075166565414837    0.3334791316291041    
  0.33786025382278556    0.39574905789816983    0.3902887797670536    0.3744349986007286    0.34971562518126087    
  0.31846042528358853    0.28341821868755684    0.24727499368625866    0.21225918697136376    0.17996862361576466    
  0.1514013167233093    0.1270754257545726    0.10714704462995032    0.09150777208832342    0.07987984072721814    
  0.0719154294282983    0.06728960813802198    0.06577484683823048    0.06728960813802198    0.0719154294282983    
  0.07987984072721814    0.09150777208832342    0.10714704462995032    0.1270754257545726    0.1514013167233093    
  0.17996862361576466    0.21225918697136376    0.24727499368625866    0.28341821868755684    0.31846042528358853    
  0.34971562518126087    0.3744349986007286    0.3902887797670536    0.39574905789816983    0.45263674750491867    
  0.4460908584514212    0.4270913076301996    0.3974977572124747    0.3601630964722159    0.3184604252835886    
  0.2756709711566036    0.23448318940004795    0.1967791093261196    0.16367990156642792    0.13570502277410765    
  0.11293553575231245    0.09515628664120593    0.08198496257901222    0.07298697320671764    0.06777083069134167    
  0.06606463995399567    0.06777083069134167    0.07298697320671764    0.08198496257901222    0.09515628664120593    
  0.11293553575231245    0.13570502277410765    0.16367990156642792    0.1967791093261196    0.23448318940004795    
  0.2756709711566036    0.3184604252835886    0.3601630964722159    0.3974977572124747    0.4270913076301996    
  0.4460908584514212    0.45263674750491867    0.5038832935341002    0.49634072182344646    0.4744547510799815    
  0.4403941736641585    0.3974977572124747    0.34971562518126087    0.30087674687614835    0.25409276632865196    
  0.2115089680109113    0.1743610988648272    0.14316550482880097    0.11792214831202738    0.09830150432710906    
  0.0838116556747125    0.07393223590778789    0.06821177246827564    0.06634169461419323    0.06821177246827564    
  0.07393223590778789    0.0838116556747125    0.09830150432710906    0.11792214831202738    0.14316550482880097    
  0.1743610988648272    0.2115089680109113    0.25409276632865196    0.30087674687614835    0.34971562518126087    
  0.3974977572124747    0.4403941736641585    0.4744547510799815    0.49634072182344646    0.5038832935341002    
  0.5446721875051279    0.5363248294642965    0.5121109179686613    0.4744547510799815    0.4270913076301995    
  0.3744349986007287    0.3207516656541485    0.26949109977076546    0.22301318533418454    0.18265159411219895    
  0.14892282345247487    0.1217570788505157    0.10072259506250429    0.08522870004808117    0.07467992660868118    
  0.06857597502011939    0.06658102296653898    0.06857597502011939    0.07467992660868118    0.08522870004808117    
  0.10072259506250429    0.1217570788505157    0.14892282345247487    0.18265159411219895    0.22301318533418454    
  0.26949109977076546    0.3207516656541485    0.3744349986007287    0.4270913076301995    0.4744547510799815    
  0.5121109179686613    0.5363248294642965    0.5446721875051279    0.5709191356842206    0.5620490061657256    
  0.5363248294642966    0.49634072182344646    0.4460908584514213    0.3902887797670538    0.33347913162910414    
  0.27932813339053475    0.2303363023973802    0.1879052479899451    0.15255498461624986    0.12416988427511604    
  0.10224750732162816    0.08612777009371883    0.07516299877402366    0.06882053134677085    0.06674778871219444    
  0.06882053134677085    0.07516299877402366    0.08612777009371883    0.10224750732162816    0.12416988427511604    
  0.15255498461624986    0.1879052479899451    0.2303363023973802    0.27932813339053475    0.33347913162910414    
  0.3902887797670538    0.4460908584514213    0.49634072182344646    0.5363248294642966    0.5620490061657256    
  0.5709191356842206    0.5799703664226035    0.5709191356842205    0.5446721875051278    0.5038832935341002    
  0.45263674750491867    0.39574905789816983    0.3378602538227856    0.28271076352046987    0.2328500955103791    
  0.18970441217156295    0.15379583673779745    0.12499294494264516    0.10276807703857523    0.0864360845565243    
  0.07533049801725879    0.06890726841307009    0.0668081627452373    0.06890726841307009    0.07533049801725879    
  0.0864360845565243    0.10276807703857523    0.12499294494264516    0.15379583673779745    0.18970441217156295    
  0.2328500955103791    0.28271076352046987    0.3378602538227856    0.39574905789816983    0.45263674750491867    
  0.5038832935341002    0.5446721875051278    0.5709191356842205    0.5799703664226035    0.5808281160357542    
  0.5718852915358631    0.5459271261501153    0.5055136099558097    0.454616438134342    0.39796228917004783    
  0.3401492869058314    0.2849261858885197    0.23488697595959326    0.19151692747678697    0.15538950665205314    
  0.12640128629024613    0.104028157282861    0.08757687861144169    0.0763767873397146    0.06988968770680522    
  0.06776764038626487    0.06988968770680522    0.0763767873397146    0.08757687861144169    0.104028157282861    
  0.12640128629024613    0.15538950665205314    0.19151692747678697    0.23488697595959326    0.2849261858885197    
  0.3401492869058314    0.39796228917004783    0.454616438134342    0.5055136099558097    0.5459271261501153    
  0.5718852915358631    0.5808281160357542    0.5718852915358631    0.5631184064180014    0.5376688579596478    
  0.4980404679127322    0.4481191232128984    0.39253215924424195    0.3357844363507664    0.28155122747317207    
  0.23237729112337988    0.1897222971287551    0.15415585336795992    0.12558840866364698    0.10351979353629363    
  0.08728159526205873    0.0762224168034643    0.06981597770425986    0.06772024336905307    0.06981597770425986    
  0.0762224168034643    0.08728159526205873    0.10351979353629363    0.12558840866364698    0.15415585336795992    
  0.1897222971287551    0.23237729112337988    0.28155122747317207    0.3357844363507664    0.39253215924424195    
  0.4481191232128984    0.4980404679127322    0.5376688579596478    0.5631184064180014    0.5718852915358631    
  0.5459271261501154    0.5376688579596478    0.5136907814474564    0.47633651500678426    0.4292446608012976    
  0.3767535344915099    0.3230952221064126    0.271730657205749    0.22506309607638417    0.18448090907427594    
  0.15054489476991484    0.1232058698221703    0.1020309927595397    0.08642094873902693    0.0757780806439133    
  0.06960996190520877    0.06759192504879374    0.06960996190520877    0.0757780806439133    0.08642094873902693    
  0.1020309927595397    0.1232058698221703    0.15054489476991484    0.18448090907427594    0.22506309607638417    
  0.271730657205749    0.3230952221064126    0.3767535344915099    0.4292446608012976    0.47633651500678426    
  0.5136907814474564    0.5376688579596478    0.5459271261501154    0.5055136099558097    0.4980404679127322    
  0.47633651500678426    0.44250339980889963    0.3998003828571345    0.35211606991253974    0.3032546459495888    
  0.2563419561078736    0.21356471465690402    0.1762072426767445    0.1448214821380234    0.11941996683392722    
  0.09966801149144228    0.0850655805773839    0.07509287391097409    0.06930839850470119    0.06741530269209141    
  0.06930839850470119    0.07509287391097409    0.0850655805773839    0.09966801149144228    0.11941996683392722    
  0.1448214821380234    0.1762072426767445    0.21356471465690402    0.2563419561078736    0.3032546459495888    
  0.35211606991253974    0.3998003828571345    0.44250339980889963    0.47633651500678426    0.4980404679127322    
  0.5055136099558097    0.45461643813434205    0.4481191232128984    0.4292446608012977    0.39980038285713443    
  0.36257831197913787    0.3209064899001805    0.2780517137838756    0.23671974776242002    0.1988303593208671    
  0.1655442323035622    0.13740514161802228    0.11449783389939032    0.09659887464560914    0.08331998753809482    
  0.0742309067692019    0.06895216918198642    0.06722355734096884    0.06895216918198642    0.0742309067692019    
  0.08331998753809482    0.09659887464560914    0.11449783389939032    0.13740514161802228    0.1655442323035622    