#     DFTpy    
  CRYSTAL 
    
  PRIMVEC    
  3.0081720857993606    -1.6527000000000001e-10    3.1327000000000005e-10    
  -1.6527000000000001e-10    3.0081720856245604    1.5095000000000003e-10    
  5.724600000000001e-10    2.7588000000000003e-10    5.511029561459651    
  PRIMCOORD    
  4    1    
  Si    1.5040860428423701    1.5040860436400307    1.69350769323383    
  Si    5.577500000000001e-10    -5.161900000000001e-10    1.0620070856434602    
  Si    8.555000000000002e-11    3.8985000000000005e-10    4.449022472690291    
  Si    1.5040860432933303    1.5040860424973705    3.8175218718159307    
  BEGIN_BLOCK_DATAGRID_3D    
  3d_datagrid_density    
  BEGIN_DATAGRID_3D#0    
  31    31    55    
  0.0    0.0    0.0    
  3.0081720970198997    -1.6527000061646027e-10    3.1327000116850314e-10    
  -1.6527000061646027e-10    3.0081720968451    1.509500005630464e-10    
  5.724600021352868e-10    2.758800010290377e-10    5.5110295820158965    
  0.74089335455289    0.7292437290622551    0.6956910312269724    0.6440478824077104    0.5796254662088964    
  0.5082141987739903    0.4352840877018129    0.36546110539032234    0.30220399208175597    0.24765408705346956    
  0.20270155886918811    0.1672776726833481    0.1407784570844297    0.12246511426188333    0.11172662785961585    
  0.10818821735227394    0.1117266278596158    0.1224651142618833    0.1407784570844297    0.16727767268334798    
  0.20270155886918803    0.24765408705346947    0.30220399208175586    0.36546110539032234    0.4352840877018129    
  0.5082141987739903    0.5796254662088964    0.6440478824077103    0.6956910312269724    0.7292437290622551    
  0.74089335455289    0.7292437290622551    0.717860752672945    0.6850614016059454    0.634536670742263    
  0.5714446062064784    0.5014350123350699    0.42987344466368244    0.36131694735385833    0.2991784372673731    
  0.24556819164777044    0.20136133360796593    0.1664940797328815    0.1403849213602025    0.12232475094430108    
  0.11172802679697794    0.10823526122132805    0.11172802679697792    0.12232475094430115    0.1403849213602025    
  0.16649407973288144    0.2013613336079659    0.24556819164777044    0.2991784372673731    0.3613169473538583    
  0.42987344466368244    0.5014350123350699    0.5714446062064784    0.634536670742263    0.6850614016059455    
  0.7178607526729451    0.7292437290622551    0.6956910312269723    0.6850614016059455    0.6543968617051523    
  0.6070587050505909    0.5477821773955343    0.48181720331892486    0.41421995114530336    0.3493350676294457    
  0.2904338761914922    0.23953584797070693    0.19747707294917313    0.16421279401891323    0.13922827586862094    
  0.12189946521113629    0.11171291848858719    0.10835232910337285    0.11171291848858719    0.12189946521113629    
  0.13922827586862094    0.16421279401891317    0.19747707294917305    0.23953584797070682    0.2904338761914922    
  0.34933506762944566    0.41421995114530336    0.48181720331892475    0.5477821773955343    0.6070587050505909    
  0.6543968617051523    0.6850614016059456    0.6956910312269723    0.6440478824077105    0.634536670742263    
  0.6070587050505909    0.5645234345369856    0.5110658086247295    0.45133643647203114    0.38989478933542504    
  0.33072279505123986    0.27684817680272295    0.23014619520720192    0.19140301026210155    0.16061433085453936    
  0.13737223907422422    0.12118122265096587    0.11163484318306466    0.10848085604297375    0.11163484318306466    
  0.12118122265096587    0.13737223907422422    0.16061433085453927    0.1914030102621015    0.23014619520720192    
  0.27684817680272283    0.3307227950512398    0.38989478933542504    0.4513364364720311    0.5110658086247295    
  0.5645234345369856    0.6070587050505909    0.634536670742263    0.6440478824077105    0.5796254662088965    
  0.5714446062064786    0.5477821773955344    0.5110658086247296    0.4647589248113904    0.4127946314077793    
  0.35908954938156734    0.30712499362482065    0.25958816529885964    0.21816626955181753    0.18359480322345803    
  0.15593212497604253    0.1349049409770165    0.12017070529857565    0.11144824615777256    0.10856080131960753    
  0.1114482461577726    0.12017070529857564    0.1349049409770165    0.1559321249760424    0.18359480322345795    
  0.21816626955181748    0.25958816529885964    0.30712499362482065    0.35908954938156734    0.4127946314077791    
  0.4647589248113904    0.5110658086247295    0.5477821773955345    0.5714446062064786    0.5796254662088965    
  0.5082141987739904    0.5014350123350699    0.48181720331892475    0.45133643647203114    0.41279463140777917    
  0.36937073881881183    0.3242575869698224    0.2803415215116764    0.23989830273462168    0.20439706163001817    
  0.17452445378675158    0.1504135621076339    0.13193278701581007    0.11889281175090641    0.11113646398218374    
  0.1085627679534822    0.11113646398218377    0.11889281175090641    0.13193278701581007    0.15041356210763385    
  0.17452445378675147    0.20439706163001817    0.23989830273462168    0.2803415215116764    0.3242575869698224    
  0.3693707388188117    0.41279463140777917    0.45133643647203114    0.48181720331892486    0.5014350123350699    
  0.5082141987739904    0.4352840877018129    0.42987344466368244    0.41421995114530336    0.389894789335425    
  0.35908954938156723    0.3242575869698223    0.2878626200353623    0.252168167072591    0.21901148100927764    
  0.18963209797299246    0.16466744715359719    0.14432123999858393    0.12858714667466536    0.11740500476469347    
  0.11072067170130427    0.10849716034838605    0.11072067170130427    0.11740500476469351    0.12858714667466536    
  0.14432123999858382    0.16466744715359705    0.18963209797299244    0.21901148100927764    0.252168167072591    
  0.2878626200353623    0.3242575869698222    0.3590895493815673    0.389894789335425    0.41421995114530336    
  0.42987344466368244    0.4352840877018129    0.3654611053903224    0.3613169473538583    0.3493350676294457    
  0.33072279505123986    0.3071249936248206    0.28034152151167646    0.25216816707259104    0.2242847705664856    
  0.1981097040253225    0.17466040900222213    0.1545218462445877    0.13795005215001768    0.1250299766471151    
  0.11578951814873888    0.1102420605945987    0.10839270949880792    0.11024206059459873    0.11578951814873885    
  0.1250299766471151    0.1379500521500176    0.15452184624458765    0.1746604090022221    0.1981097040253225    
  0.2242847705664856    0.25216816707259104    0.28034152151167635    0.30712499362482065    0.33072279505123986    
  0.34933506762944566    0.36131694735385833    0.3654611053903224    0.30220399208175586    0.29917843726737314    
  0.2904338761914922    0.27684817680272283    0.2595881652988596    0.23989830273462173    0.2190114810092775    
  0.19810970402532246    0.17824497616879562    0.16023226025787152    0.14459748746725137    0.13162253427894022    
  0.12144359309339625    0.11413216479087816    0.10973068506435885    0.10826136035315918    0.10973068506435889    
  0.1141321647908781    0.12144359309339625    0.13162253427894008    0.14459748746725135    0.16023226025787146    
  0.17824497616879562    0.1981097040253225    0.2190114810092776    0.23989830273462165    0.2595881652988597    
  0.27684817680272283    0.2904338761914922    0.29917843726737314    0.30220399208175586    0.2476540870534696    
  0.24556819164777044    0.23953584797070693    0.23014619520720192    0.21816626955181742    0.2043970616300182    
  0.18963209797299257    0.17466040900222218    0.1602322602578715    0.14698107628727555    0.13536195378955235    
  0.1256531237887091    0.11800670152158424    0.11250393648467741    0.10918850327252695    0.10808136763182376    
  0.109188503272527    0.11250393648467741    0.11800670152158424    0.12565312378870902    0.1353619537895523    
  0.1469810762872755    0.1602322602578715    0.17466040900222216    0.18963209797299257    0.20439706163001814    
  0.21816626955181742    0.23014619520720195    0.23953584797070693    0.24556819164777055    0.2476540870534696    
  0.2027015588691881    0.20136133360796585    0.19747707294917308    0.1914030102621015    0.18359480322345795    
  0.17452445378675155    0.16466744715359719    0.15452184624458776    0.14459748746725143    0.13536195378955235    
  0.12718259565423295    0.12030522756206001    0.11487294210871626    0.11096065174472328    0.1086039295054064    
  0.10781716099737436    0.10860392950540654    0.1109606517447233    0.11487294210871626    0.12030522756205997    
  0.12718259565423287    0.1353619537895523    0.14459748746725143    0.15452184624458776    0.16466744715359719    
  0.17452445378675144    0.183594803223458    0.1914030102621015    0.1974770729491731    0.20136133360796593    
  0.2027015588691881    0.167277672683348    0.1664940797328814    0.16421279401891317    0.16061433085453933    
  0.15593212497604236    0.15041356210763374    0.14432123999858387    0.1379500521500176    0.13162253427894016    
  0.12565312378870905    0.12030522756206001    0.11576868864370636    0.1121636229957034    0.1095579684324116    
  0.10798558499288934    0.10746031890981493    0.10798558499288942    0.1095579684324116    0.1121636229957034    
  0.11576868864370632    0.12030522756205991    0.1256531237887089    0.13162253427894013    0.1379500521500176    
  0.14432123999858387    0.15041356210763374    0.15593212497604236    0.1606143308545393    0.16421279401891323    
  0.1664940797328815    0.167277672683348    0.14077845708442965    0.14038492136020242    0.13922827586862085    
  0.13737223907422408    0.13490494097701644    0.13193278701581002    0.1285871466746654    0.12502997664711502    
  0.12144359309339615    0.11800670152158417    0.11487294210871626    0.11216362299570337    0.1099711296341661    
  0.10836294561443209    0.10738299164627506    0.10705410863199932    0.1073829916462751    0.10836294561443206    
  0.1099711296341661    0.11216362299570332    0.11487294210871622    0.11800670152158411    0.12144359309339615    
  0.12502997664711507    0.1285871466746654    0.13193278701580993    0.13490494097701647    0.1373722390742241    
  0.13922827586862088    0.1403849213602025    0.14077845708442965    0.12246511426188335    0.12232475094430108    
  0.12189946521113615    0.12118122265096587    0.12017070529857561    0.11889281175090645    0.11740500476469351    
  0.11578951814873885    0.1141321647908781    0.11250393648467746    0.11096065174472328    0.10955796843241158    
  0.10836294561443216    0.10744821796603525    0.10687478247903873    0.10667970131276609    0.1068747824790388    
  0.10744821796603525    0.10836294561443216    0.10955796843241163    0.11096065174472318    0.11250393648467741    
  0.1141321647908781    0.11578951814873883    0.11740500476469351    0.11889281175090638    0.12017070529857558    
  0.12118122265096581    0.12189946521113633    0.12232475094430109    0.12246511426188335    0.11172662785961594    
  0.11172802679697794    0.11171291848858723    0.11163484318306462    0.1114482461577726    0.11113646398218387    
  0.11072067170130442    0.11024206059459876    0.10973068506435889    0.10918850327252698    0.10860392950540654    
  0.10798558499288952    0.10738299164627506    0.10687478247903878    0.10653706063708444    0.10641910365863319    
  0.10653706063708453    0.10687478247903878    0.10738299164627506    0.10798558499288952    0.10860392950540644    
  0.109188503272527    0.10973068506435889    0.1102420605945988    0.11072067170130442    0.11113646398218377    
  0.11144824615777264    0.11163484318306462    0.1117129184885873    0.111728026796978    0.11172662785961594    
  0.10818821735227396    0.10823526122132805    0.1083523291033728    0.10848085604297372    0.1085608013196075    
  0.10856276795348226    0.10849716034838602    0.10839270949880782    0.10826136035315923    0.10808136763182381    
  0.10781716099737446    0.10746031890981507    0.10705410863199943    0.10667970131276612    0.10641910365863305    
  0.10632630103534574    0.10641910365863312    0.10667970131276609    0.10705410863199943    0.10746031890981497    
  0.10781716099737441    0.10808136763182385    0.10826136035315918    0.10839270949880782    0.10849716034838602    
  0.10856276795348216    0.1085608013196075    0.10848085604297379    0.10835232910337289    0.10823526122132815    
  0.10818821735227396    0.11172662785961587    0.11172802679697799    0.11171291848858717    0.11163484318306459    
  0.11144824615777257    0.11113646398218387    0.11072067170130442    0.11024206059459876    0.10973068506435889    
  0.10918850327252702    0.1086039295054064    0.10798558499288952    0.10738299164627506    0.10687478247903882    
  0.10653706063708451    0.10641910365863319    0.10653706063708451    0.10687478247903878    0.10738299164627506    
  0.10798558499288945    0.10860392950540644    0.109188503272527    0.10973068506435894    0.11024206059459873    
  0.11072067170130442    0.11113646398218377    0.11144824615777264    0.11163484318306457    0.1117129184885872    
  0.11172802679697803    0.11172662785961587    0.1224651142618833    0.12232475094430105    0.12189946521113626    
  0.12118122265096581    0.12017070529857551    0.11889281175090641    0.11740500476469351    0.11578951814873878    
  0.11413216479087812    0.11250393648467737    0.11096065174472328    0.1095579684324116    0.10836294561443219    
  0.10744821796603529    0.1068747824790388    0.10667970131276615    0.10687478247903885    0.10744821796603525    
  0.10836294561443219    0.1095579684324116    0.11096065174472328    0.11250393648467741    0.11413216479087812    
  0.11578951814873881    0.11740500476469351    0.11889281175090631    0.12017070529857551    0.12118122265096581    
  0.1218994652111363    0.12232475094430115    0.1224651142618833    0.14077845708442965    0.14038492136020242    
  0.13922827586862085    0.13737223907422408    0.13490494097701644    0.13193278701581002    0.1285871466746654    
  0.12502997664711502    0.12144359309339615    0.11800670152158417    0.11487294210871626    0.11216362299570337    
  0.1099711296341661    0.10836294561443209    0.10738299164627506    0.10705410863199932    0.1073829916462751    
  0.10836294561443206    0.1099711296341661    0.11216362299570332    0.11487294210871622    0.11800670152158411    
  0.12144359309339615    0.12502997664711507    0.1285871466746654    0.13193278701580993    0.13490494097701647    
  0.1373722390742241    0.13922827586862088    0.1403849213602025    0.14077845708442965    0.16727767268334798    
  0.16649407973288136    0.16421279401891314    0.16061433085453922    0.15593212497604234    0.1504135621076338    
  0.14432123999858384    0.13795005215001763    0.13162253427894016    0.12565312378870905    0.12030522756205991    
  0.11576868864370636    0.11216362299570341    0.10955796843241156    0.10798558499288934    0.10746031890981496    
  0.1079855849928894    0.10955796843241156    0.11216362299570341    0.11576868864370632    0.12030522756205987    
  0.12565312378870896    0.13162253427894008    0.1379500521500176    0.14432123999858384    0.1504135621076338    
  0.15593212497604236    0.16061433085453922    0.16421279401891317    0.16649407973288138    0.16727767268334798    
  0.20270155886918814    0.2013613336079659    0.1974770729491731    0.1914030102621015    0.183594803223458    
  0.17452445378675155    0.1646674471535973    0.1545218462445877    0.14459748746725137    0.13536195378955235    
  0.12718259565423287    0.12030522756206007    0.11487294210871626    0.11096065174472332    0.1086039295054064    
  0.10781716099737439    0.10860392950540648    0.11096065174472332    0.11487294210871626    0.12030522756206007    
  0.12718259565423287    0.1353619537895523    0.14459748746725137    0.15452184624458776    0.1646674471535973    
  0.17452445378675147    0.18359480322345798    0.19140301026210146    0.1974770729491731    0.20136133360796596    
  0.20270155886918814    0.24765408705346956    0.24556819164777044    0.23953584797070682    0.23014619520720186    
  0.21816626955181748    0.2043970616300182    0.18963209797299246    0.1746604090022221    0.16023226025787152    
  0.14698107628727555    0.13536195378955235    0.1256531237887091    0.11800670152158431    0.1125039364846775    
  0.10918850327252691    0.10808136763182376    0.10918850327252705    0.11250393648467746    0.11800670152158431    
  0.12565312378870902    0.1353619537895523    0.14698107628727555    0.16023226025787152    0.17466040900222207    
  0.18963209797299246    0.20439706163001808    0.21816626955181753    0.23014619520720186    0.23953584797070682    
  0.24556819164777044    0.24765408705346956    0.30220399208175597    0.29917843726737314    0.2904338761914921    
  0.27684817680272283    0.2595881652988596    0.23989830273462168    0.2190114810092776    0.19810970402532244    
  0.1782449761687957    0.1602322602578715    0.14459748746725137    0.13162253427894016    0.12144359309339615    
  0.1141321647908781    0.10973068506435889    0.10826136035315916    0.10973068506435889    0.11413216479087807    
  0.12144359309339615    0.13162253427894013    0.1445974874672513    0.1602322602578715    0.17824497616879567    
  0.19810970402532244    0.2190114810092776    0.23989830273462173    0.25958816529885964    0.27684817680272283    
  0.2904338761914921    0.2991784372673732    0.30220399208175597    0.36546110539032234    0.36131694735385833    
  0.3493350676294457    0.3307227950512398    0.30712499362482054    0.2803415215116764    0.252168167072591    
  0.2242847705664856    0.19810970402532252    0.17466040900222216    0.1545218462445877    0.13795005215001768    
  0.12502997664711515    0.11578951814873888    0.1102420605945987    0.10839270949880782    0.11024206059459876    
  0.11578951814873888    0.12502997664711515    0.1379500521500176    0.1545218462445877    0.17466040900222213    
  0.19810970402532252    0.2242847705664856    0.252168167072591    0.28034152151167635    0.3071249936248206    
  0.3307227950512398    0.34933506762944566    0.36131694735385833    0.36546110539032234    0.4352840877018129    
  0.42987344466368244    0.41421995114530336    0.389894789335425    0.35908954938156723    0.3242575869698223    
  0.2878626200353623    0.252168167072591    0.21901148100927764    0.18963209797299246    0.16466744715359719    
  0.14432123999858393    0.12858714667466536    0.11740500476469347    0.11072067170130427    0.10849716034838605    
  0.11072067170130427    0.11740500476469351    0.12858714667466536    0.14432123999858382    0.16466744715359705    
  0.18963209797299244    0.21901148100927764    0.252168167072591    0.2878626200353623    0.3242575869698222    
  0.3590895493815673    0.389894789335425    0.41421995114530336    0.42987344466368244    0.4352840877018129    
  0.5082141987739903    0.5014350123350699    0.48181720331892486    0.45133643647203114    0.41279463140777906    
  0.36937073881881183    0.3242575869698224    0.28034152151167646    0.23989830273462168    0.20439706163001814    
  0.17452445378675155    0.15041356210763393    0.1319327870158101    0.11889281175090645    0.11113646398218381    
  0.10856276795348223    0.11113646398218381    0.11889281175090641    0.1319327870158101    0.1504135621076338    
  0.1745244537867515    0.2043970616300181    0.23989830273462168    0.28034152151167646    0.3242575869698224    
  0.36937073881881183    0.4127946314077791    0.45133643647203114    0.48181720331892486    0.5014350123350699    
  0.5082141987739903    0.5796254662088965    0.5714446062064786    0.5477821773955343    0.5110658086247295    
  0.4647589248113904    0.4127946314077792    0.3590895493815673    0.30712499362482065    0.25958816529885964    
  0.21816626955181753    0.18359480322345798    0.15593212497604247    0.13490494097701652    0.12017070529857561    
  0.11144824615777256    0.10856080131960753    0.1114482461577726    0.12017070529857561    0.13490494097701647    
  0.15593212497604236    0.1835948032234579    0.21816626955181756    0.25958816529885964    0.3071249936248207    
  0.3590895493815673    0.4127946314077791    0.4647589248113905    0.5110658086247295    0.5477821773955344    
  0.5714446062064786    0.5796254662088965    0.6440478824077105    0.634536670742263    0.6070587050505908    
  0.5645234345369856    0.5110658086247295    0.45133643647203114    0.38989478933542504    0.3307227950512398    
  0.27684817680272283    0.23014619520720192    0.1914030102621016    0.1606143308545393    0.13737223907422422    
  0.12118122265096587    0.11163484318306462    0.10848085604297378    0.11163484318306466    0.12118122265096587    
  0.13737223907422422    0.16061433085453922    0.1914030102621015    0.23014619520720195    0.27684817680272283    
  0.33072279505123975    0.38989478933542504    0.4513364364720311    0.5110658086247295    0.5645234345369856    
  0.6070587050505909    0.6345366707422633    0.6440478824077105    0.6956910312269724    0.6850614016059456    
  0.6543968617051524    0.6070587050505909    0.5477821773955344    0.48181720331892486    0.41421995114530336    
  0.3493350676294457    0.29043387619149225    0.23953584797070682    0.19747707294917305    0.16421279401891328    
  0.13922827586862088    0.1218994652111363    0.11171291848858714    0.10835232910337285    0.11171291848858719    
  0.1218994652111363    0.13922827586862088    0.16421279401891314    0.19747707294917305    0.23953584797070682    
  0.2904338761914922    0.3493350676294457    0.41421995114530336    0.48181720331892475    0.5477821773955344    
  0.6070587050505909    0.6543968617051524    0.6850614016059456    0.6956910312269724    0.7292437290622551    
  0.717860752672945    0.6850614016059455    0.634536670742263    0.5714446062064785    0.5014350123350699    
  0.42987344466368244    0.36131694735385833    0.2991784372673731    0.2455681916477705    0.20136133360796601    
  0.1664940797328815    0.1403849213602025    0.12232475094430112    0.11172802679697792    0.10823526122132801    
  0.1117280267969779    0.12232475094430116    0.1403849213602025    0.1664940797328814    0.20136133360796593    
  0.24556819164777044    0.2991784372673731    0.36131694735385833    0.42987344466368244    0.5014350123350699    
  0.5714446062064785    0.6345366707422629    0.6850614016059455    0.7178607526729449    0.7292437290622551    
  0.74089335455289    0.7292437290622551    0.6956910312269724    0.6440478824077104    0.5796254662088964    
  0.5082141987739903    0.4352840877018129    0.36546110539032234    0.30220399208175597    0.24765408705346956    
  0.20270155886918811    0.1672776726833481    0.1407784570844297    0.12246511426188333    0.11172662785961585    
  0.10818821735227394    0.1117266278596158    0.1224651142618833    0.1407784570844297    0.16727767268334798    
  0.20270155886918803    0.24765408705346947    0.30220399208175586    0.36546110539032234    0.4352840877018129    
  0.5082141987739903    0.5796254662088964    0.6440478824077103    0.6956910312269724    0.7292437290622551    
  0.74089335455289    0.7331051043006872    0.7220281511367487    0.6899986513556561    0.6403542877974367    
  0.5778966989398521    0.5080797193917438    0.4362644300684651    0.36712053706908837    0.3042041307179475    
  0.2497578558944067    0.2047691906042278    0.16925599265506852    0.14267333806993257    0.12430564822366712    
  0.11354023754905176    0.10999407457463317    0.11354023754905176    0.12430564822366709    0.14267333806993257    
  0.16925599265506847    0.2047691906042277    0.24975785589440663    0.3042041307179475    0.3671205370690883    
  0.4362644300684651    0.5080797193917436    0.5778966989398521    0.6403542877974367    0.6899986513556561    
  0.7220281511367488    0.7331051043006872    0.7220281511367486    0.7111839733524961    0.6798187449267664    
  0.6311788942649837    0.569944676521155    0.5014483258253247    0.4309491984595701    0.3630408203562659    
  0.30122497798243053    0.24770806611756044    0.20346005346694626    0.16850186967081437    0.14230904230272526    
  0.124194263056061    0.1135700822311725    0.11006927763126756    0.1135700822311725    0.12419426305606103    
  0.14230904230272526    0.16850186967081432    0.2034600534669462    0.24770806611756038    0.30122497798243053    
  0.3630408203562658    0.4309491984595701    0.5014483258253246    0.569944676521155    0.6311788942649837    
  0.6798187449267665    0.7111839733524962    0.7220281511367486    0.6899986513556561    0.6798187449267665    
  0.650353922213268    0.6046003963544486    0.5468988139221402    0.4822315441411069    0.4155562061965265    
  0.35123566890583763    0.29260855546637354    0.24177700613446626    0.19966502712155998    0.16630687674521746    
  0.14123899065538598    0.12385523979404799    0.11363985388151233    0.11027043626540706    0.11363985388151233    
  0.12385523979404792    0.14123899065538598    0.16630687674521738    0.19966502712155992    0.24177700613446626    
  0.2926085554663735    0.35123566890583763    0.4155562061965265    0.4822315441411068    0.5468988139221403    
  0.6046003963544486    0.6503539222132682    0.6798187449267665    0.6899986513556561    0.6403542877974367    
  0.6311788942649839    0.6046003963544485    0.5632636635417894    0.5110145030653668    0.45230005753667196    
  0.391592577218959    0.33287131640966383    0.27920575651464    0.23253698290482575    0.1937287288707361    
  0.16284621663805687    0.13952363212792165    0.12327815307165799    0.1137011465950776    0.11053720055643684    
  0.1137011465950776    0.12327815307165801    0.13952363212792165    0.16284621663805676    0.19372872887073606    
  0.2325369829048257    0.27920575651464    0.33287131640966383    0.391592577218959    0.45230005753667185    
  0.5110145030653668    0.5632636635417894    0.6046003963544486    0.6311788942649837    0.6403542877974367    
  0.5778966989398522    0.569944676521155    0.5468988139221403    0.5110145030653668    0.46556349415751136    
  0.4143361232712071    0.36117553371147854    0.30954516804881027    0.26215318312180097    0.2207367294572383    
  0.1860960866004157    0.15834632406527688    0.13724537279434926    0.1224583795188284    0.11370343343510848    
  0.11080472652969668    0.1137034334351085    0.1224583795188284    0.13724537279434926    0.1583463240652767    
  0.1860960866004156    0.2207367294572383    0.26215318312180097    0.30954516804881027    0.36117553371147854    
  0.414336123271207    0.46556349415751147    0.5110145030653668    0.5468988139221403    0.569944676521155    
  0.5778966989398522    0.5080797193917437    0.5014483258253246    0.4822315441411068    0.45230005753667185    
  0.414336123271207    0.3714231968810066    0.32669579127963    0.2830167255842437    0.24267024275735952    
  0.20716194804661972    0.17722860613860428    0.15304522673064647    0.13450083919873018    0.12141072515545985    
  0.11362014039534747    0.11103388223576878    0.11362014039534744    0.1214107251554598    0.13450083919873018    
  0.1530452267306464    0.1772286061386042    0.20716194804661972    0.2426702427573595    0.2830167255842437    
  0.32669579127963    0.3714231968810065    0.414336123271207    0.45230005753667185    0.4822315441411068    
  0.5014483258253247    0.5080797193917437    0.4362644300684651    0.43094919845957    0.41555620619652645    
  0.39159257721895896    0.3611755337114784    0.3266957912796299    0.2905741674209204    0.2550527053828061    
  0.2219708611404219    0.1925923573068795    0.1675887719109865    0.14719106886072905    0.13140547099731303    
  0.12017632132526414    0.113456492013051    0.11121939718218521    0.11345649201305105    0.1201763213252642    
  0.13140547099731303    0.147191068860729    0.16758877191098642    0.19259235730687949    0.2219708611404219    
  0.2550527053828061    0.2905741674209204    0.3266957912796298    0.3611755337114785    0.3915925772189589    
  0.41555620619652645    0.43094919845957    0.4362644300684651    0.3671205370690884    0.36304082035626584    
  0.3512356689058376    0.3328713164096639    0.3095451680488102    0.28301672558424373    0.2550527053828061    
  0.2273161030053575    0.20122284369372434    0.1778019316873088    0.1576565974511227    0.14105790830625314    
  0.12809925604614492    0.11881586750908733    0.11323311062166601    0.1113698916529526    0.11323311062166605    
  0.11881586750908724    0.12809925604614492    0.141057908306253    0.15765659745112268    0.17780193168730873    
  0.20122284369372434    0.22731610300535746    0.2550527053828061    0.2830167255842437    0.30954516804881027    
  0.3328713164096639    0.3512356689058376    0.36304082035626584    0.3671205370690884    0.30420413071794744    
  0.3012249779824306    0.2926085554663735    0.27920575651464    0.26215318312180097    0.24267024275735952    
  0.2219708611404218    0.20122284369372428    0.18146978908179054    0.16352558734176223    0.1479208809668784    
  0.13494453422989988    0.12474094087665472    0.11739323064957286    0.11295965098516382    0.11147750765733704    
  0.11295965098516386    0.11739323064957276    0.12474094087665472    0.13494453422989974    0.14792088096687833    
  0.16352558734176212    0.18146978908179043    0.2012228436937243    0.2219708611404218    0.24267024275735943    
  0.262153183121801    0.27920575651464    0.2926085554663735    0.30122497798243064    0.30420413071794744    
  0.2497578558944067    0.24770806611756038    0.24177700613446626    0.23253698290482575    0.22073672945723827    
  0.20716194804661972    0.19259235730687962    0.1778019316873088    0.16352558734176217    0.15038519677192955    