#     DFTpy    
  CRYSTAL 
    
  PRIMVEC    
  3.4903981453549804    -1.9177000000000003e-10    3.6348000000000007e-10    
  -1.9177000000000003e-10    3.490398145152161    1.7514000000000005e-10    
  6.642200000000001e-10    3.2011000000000005e-10    6.394477048411191    
  PRIMCOORD    
  4    1    
  Si    1.7451990726109903    1.7451990735365204    1.9649860257369602    
  Si    6.471600000000001e-10    -5.989400000000001e-10    1.2322524963191201    
  Si    9.926000000000003e-11    4.5234000000000017e-10    5.162224548465071    
  Si    1.7451990731342402    1.7451990722106905    4.429491026839861    
  BEGIN_BLOCK_DATAGRID_3D    
  3d_datagrid_density    
  BEGIN_DATAGRID_3D#0    
  37    37    61    
  0.0    0.0    0.0    
  3.4903981583742323    -1.9177000071530578e-10    3.634800013557874e-10    
  -1.9177000071530578e-10    3.4903981581714123    1.7514000065327558e-10    
  6.642200024775534e-10    3.2011000119401644e-10    6.3944770722627124    
  0.4767980413396534    0.47021799516509527    0.4511749304042534    0.42158956072383325    0.38418821016845933    
  0.3420279476891906    0.29809447967008645    0.2549942143391741    0.21473277233291274    0.17860957358245474    
  0.14726246716052993    0.12083294398538298    0.09915988184335658    0.08191966734702238    0.06869940178663415    
  0.05904418918780872    0.05251445125347021    0.04875063327874997    0.04752222001836487    0.04875063327874994    
  0.05251445125347021    0.059044189187808745    0.06869940178663415    0.0819196673470224    0.09915988184335658    
  0.12083294398538298    0.14726246716052993    0.17860957358245477    0.21473277233291274    0.2549942143391742    
  0.29809447967008645    0.34202794768919054    0.38418821016845933    0.4215895607238332    0.4511749304042534    
  0.47021799516509527    0.4767980413396534    0.47021799516509527    0.46375116229811986    0.4450359562820255    
  0.4159592552642397    0.3791961623378687    0.3377430538433816    0.2945257655824607    0.25210182279268295    
  0.2124454855320353    0.1768428806199416    0.14593183294632633    0.11986023530589207    0.09847453760794235    
  0.0814579095784158    0.06840401304727421    0.05886534492296743    0.05241055502356454    0.04868790607879567    
  0.047472529524782925    0.048687906078795654    0.05241055502356453    0.05886534492296746    0.06840401304727421    
  0.08145790957841573    0.09847453760794235    0.11986023530589206    0.14593183294632633    0.1768428806199416    
  0.2124454855320353    0.25210182279268295    0.2945257655824607    0.3377430538433816    0.3791961623378687    
  0.4159592552642397    0.4450359562820255    0.46375116229811986    0.47021799516509527    0.45117493040425344    
  0.44503595628202564    0.42726906527379194    0.3996609741947095    0.3647377591277123    0.32532213660011855    
  0.2841703633099281    0.24370143973305072    0.20579931443717472    0.1717096903433713    0.14206745233327583    
  0.11703682568176524    0.0964854168288624    0.08011650757065643    0.06754375156418203    0.05834189359879376    
  0.052103780997399006    0.048500273393138414    0.04732265664635297    0.0485002733931384    0.05210378099739899    
  0.05834189359879379    0.06754375156418203    0.08011650757065641    0.09648541682886243    0.11703682568176518    
  0.14206745233327583    0.17170969034337133    0.20579931443717472    0.24370143973305078    0.2841703633099281    
  0.32532213660011855    0.3647377591277123    0.3996609741947095    0.42726906527379194    0.44503595628202564    
  0.45117493040425344    0.42158956072383325    0.4159592552642397    0.3996609741947095    0.3743210599902981    
  0.34223324262311094    0.3059565567916046    0.2679938071520381    0.2305563610325573    0.19538866957802345    
  0.16366815144964905    0.1360173291596749    0.11261984651098954    0.09337401254937709    0.07801545006679772    
  0.06619137868614729    0.057513262489464125    0.05161249395845761    0.048194903412688846    0.047076317489667126    
  0.04819490341268884    0.05161249395845761    0.05751326248946416    0.06619137868614729    0.07801545006679772    
  0.09337401254937709    0.11261984651098954    0.1360173291596749    0.16366815144964908    0.19538866957802345    
  0.2305563610325573    0.2679938071520381    0.3059565567916046    0.34223324262311094    0.3743210599902981    
  0.3996609741947095    0.41595925526423966    0.42158956072383325    0.38418821016845933    0.3791961623378687    
  0.3647377591277123    0.34223324262311094    0.3136852257853823    0.28133070048234105    0.2473671540242841    
  0.2137537842142545    0.1820588719534008    0.15336483092421394    0.12826682102505083    0.10696401190026952    
  0.08938985710803518    0.07532182972671109    0.06445267199973871    0.056443013647401875    0.050974084172197356    
  0.04779547177965163    0.04675299471158405    0.04779547177965163    0.05097408417219732    0.05644301364740191    
  0.06445267199973871    0.07532182972671106    0.08938985710803518    0.1069640119002695    0.12826682102505083    
  0.15336483092421396    0.1820588719534008    0.21375378421425445    0.2473671540242841    0.28133070048234105    
  0.31368522578538227    0.3422332426231109    0.3647377591277123    0.3791961623378687    0.38418821016845933    
  0.34202794768919065    0.33774305384338166    0.3253221366001186    0.3059565567916046    0.2813307004823411    
  0.25333466367739416    0.22383829952976622    0.1945259840693578    0.16676602549452196    0.14152379285919703    
  0.11935093072182565    0.10045408857508396    0.08480140425878947    0.07221714882230207    0.06244734893798817    
  0.05520998725308511    0.050242898864646716    0.04734384513336468    0.04639080458035528    0.04734384513336462    
  0.050242898864646716    0.055209987253085124    0.06244734893798817    0.07221714882230204    0.08480140425878953    
  0.10045408857508391    0.11935093072182565    0.14152379285919703    0.16676602549452196    0.19452598406935787    
  0.22383829952976622    0.25333466367739416    0.2813307004823411    0.3059565567916046    0.3253221366001186    
  0.33774305384338166    0.34202794768919065    0.29809447967008645    0.2945257655824607    0.2841703633099282    
  0.2679938071520381    0.2473671540242841    0.22383829952976622    0.1989504816422409    0.1741079915809744    
  0.1504679965394881    0.12886494836672888    0.10979429515781626    0.09346125852524718    0.07986425977804842    
  0.06887383756321062    0.06029117090294349    0.053893988523118705    0.04947803926592539    0.046888937238230136    
  0.04603566721211355    0.04688893723823011    0.04947803926592539    0.05389398852311868    0.06029117090294348    
  0.06887383756321061    0.07986425977804842    0.09346125852524716    0.10979429515781626    0.1288649483667289    
  0.1504679965394881    0.17410799158097448    0.19895048164224086    0.22383829952976622    0.2473671540242841    
  0.2679938071520381    0.2841703633099282    0.2945257655824607    0.29809447967008645    0.2549942143391742    
  0.25210182279268295    0.24370143973305078    0.2305563610325574    0.2137537842142546    0.19452598406935787    
  0.17410799158097445    0.153633074749546    0.13404847163352723    0.11605356070847507    0.10008054934631003    
  0.0863254343911319    0.07481000380675984    0.06544586623566769    0.058085640452896825    0.052563469818180844    
  0.04872897106389846    0.046470828638500654    0.04572488686968251    0.046470828638500626    0.04872897106389846    
  0.052563469818180844    0.058085640452896846    0.06544586623566777    0.07481000380675984    0.08632543439113184    
  0.10008054934631003    0.11605356070847507    0.13404847163352723    0.15363307474954602    0.17410799158097445    
  0.1945259840693578    0.21375378421425464    0.23055636103255736    0.24370143973305078    0.25210182279268295    
  0.2549942143391742    0.21473277233291274    0.2124454855320353    0.20579931443717472    0.19538866957802345    
  0.18205887195340087    0.16676602549452205    0.1504679965394881    0.13404847163352718    0.11825725515895892    
  0.1036631649487735    0.09063319420402287    0.07934799146576292    0.06984496904315812    0.062069106654611496    
  0.055917118139383076    0.051272012266606964    0.04802914033076073    0.04611222072273199    0.04547780464758199    
  0.04611222072273199    0.04802914033076073    0.051272012266606944    0.055917118139383076    0.062069106654611524    
  0.06984496904315812    0.0793479914657629    0.09063319420402287    0.1036631649487735    0.11825725515895892    
  0.13404847163352723    0.1504679965394881    0.16676602549452194    0.18205887195340087    0.1953886695780234    
  0.20579931443717472    0.21244548553203527    0.21473277233291274    0.17860957358245477    0.1768428806199416    
  0.17170969034337133    0.1636681514496491    0.15336483092421405    0.14152379285919714    0.1288649483667289    
  0.11605356070847507    0.1036631649487735    0.0921425302325598    0.08179482251856016    0.07278090142999566    
  0.06514675208163426    0.05886269877272219    0.05386070307278322    0.0500628297450521    0.047399952587457266    
  0.04582161683547704    0.045298622036639424    0.04582161683547697    0.047399952587457266    0.05006282974505205    
  0.05386070307278322    0.05886269877272224    0.06514675208163426    0.07278090142999565    0.08179482251856016    
  0.0921425302325598    0.1036631649487735    0.11605356070847513    0.1288649483667289    0.14152379285919703    
  0.15336483092421405    0.1636681514496491    0.17170969034337133    0.1768428806199416    0.17860957358245477    
  0.14726246716052993    0.14593183294632636    0.14206745233327586    0.13601732915967493    0.12826682102505085    
  0.1193509307218257    0.10979429515781622    0.10008054934630997    0.09063319420402285    0.08179482251856011    
  0.07380829078349065    0.06681197606781397    0.06085487753284777    0.055925355947163254    0.05198145230995076    
  0.04897372814062222    0.04685826756535445    0.04560227258487581    0.04518582588219596    0.04560227258487581    
  0.04685826756535445    0.048973728140622196    0.05198145230995076    0.0559253559471633    0.06085487753284777    
  0.06681197606781397    0.07380829078349065    0.08179482251856011    0.09063319420402285    0.10008054934631001    
  0.10979429515781622    0.1193509307218257    0.12826682102505085    0.13601732915967488    0.14206745233327586    
  0.14593183294632636    0.14726246716052993    0.12083294398538298    0.119860235305892    0.11703682568176521    
  0.1126198465109895    0.10696401190026952    0.10045408857508384    0.09346125852524713    0.08632543439113173    
  0.0793479914657629    0.07278090142999555    0.0668119760678139    0.0615561983338086    0.057061455426665    
  0.053327521378075615    0.05032940644316915    0.04803580728566191    0.04641889584726393    0.045457625061387855    
  0.04513872984275733    0.045457625061387855    0.04641889584726393    0.04803580728566186    0.0503294064431691    
  0.053327521378075664    0.057061455426665    0.0615561983338086    0.0668119760678139    0.07278090142999555    
  0.0793479914657629    0.08632543439113177    0.09346125852524713    0.10045408857508385    0.10696401190026952    
  0.11261984651098951    0.11703682568176521    0.119860235305892    0.12083294398538298    0.09915988184335651    
  0.09847453760794223    0.09648541682886243    0.09337401254937709    0.08938985710803513    0.08480140425878947    
  0.07986425977804834    0.07481000380675978    0.06984496904315811    0.06514675208163428    0.060854877532847726    
  0.05706145542666505    0.05381005259047057    0.051105766942330905    0.048932072462245874    0.04726652111288364    
  0.04608991754385815    0.04538902156834557    0.045156223091046936    0.04538902156834557    0.04608991754385815    
  0.0472665211128836    0.048932072462245874    0.051105766942330905    0.05381005259047057    0.057061455426665    
  0.060854877532847726    0.06514675208163426    0.06984496904315811    0.07481000380675977    0.07986425977804831    
  0.08480140425878947    0.08938985710803513    0.09337401254937705    0.09648541682886241    0.09847453760794224    
  0.09915988184335651    0.08191966734702243    0.08145790957841578    0.08011650757065644    0.07801545006679775    
  0.07532182972671114    0.07221714882230211    0.06887383756321057    0.06544586623566769    0.062069106654611524    
  0.05886269877272224    0.055925355947163274    0.05332752137807573    0.05110576694233095    0.049265420420365975    
  0.0477917436630614    0.04666408251514722    0.04586613904612597    0.04538925567129396    0.04523046534681167    
  0.04538925567129396    0.04586613904612597    0.04666408251514722    0.0477917436630614    0.04926542042036593    
  0.05110576694233095    0.05332752137807571    0.055925355947163274    0.058862698772722266    0.062069106654611524    
  0.0654458662356677    0.06887383756321054    0.07221714882230208    0.07532182972671113    0.07801545006679769    
  0.08011650757065644    0.08145790957841577    0.08191966734702243    0.06869940178663424    0.06840401304727424    
  0.0675437515641821    0.06619137868614731    0.06445267199973871    0.062447348937988194    0.06029117090294355    
  0.058085640452896777    0.055917118139383076    0.05386070307278312    0.05198145230995069    0.05032940644316915    
  0.048932072462245915    0.0477917436630614    0.046891874490837634    0.04620973231605973    0.04572796111836365    
  0.0454390794908459    0.04534254445852705    0.0454390794908459    0.0457279611183636    0.04620973231605978    
  0.046891874490837634    0.0477917436630614    0.048932072462245915    0.0503294064431691    0.05198145230995069    
  0.05386070307278315    0.055917118139383076    0.058085640452896777    0.06029117090294355    0.06244734893798818    
  0.06445267199973871    0.06619137868614727    0.06754375156418212    0.06840401304727423    0.06869940178663424    
  0.059044189187808765    0.058865344922967494    0.05834189359879376    0.05751326248946414    0.05644301364740192    
  0.055209987253085076    0.05389398852311868    0.052563469818180726    0.051272012266606916    0.05006282974505205    
  0.048973728140622244    0.04803580728566191    0.0472665211128836    0.04666408251514717    0.04620973231605978    
  0.04587796177968045    0.04564828857575644    0.04551109912579681    0.04546514431977686    0.04551109912579676    
  0.04564828857575644    0.045877961779680496    0.04620973231605978    0.04666408251514717    0.0472665211128836    
  0.04803580728566186    0.048973728140622244    0.05006282974505205    0.051272012266606916    0.052563469818180726    
  0.05389398852311868    0.05520998725308509    0.05644301364740193    0.05751326248946409    0.05834189359879376    
  0.058865344922967515    0.059044189187808765    0.0525144512534702    0.052410555023564565    0.052103780997399034    
  0.05161249395845764    0.05097408417219731    0.050242898864646765    0.04947803926592532    0.04872897106389843    
  0.04802914033076069    0.04739995258745722    0.04685826756535438    0.046418895847263976    0.04608991754385815    
  0.04586613904612597    0.04572796111836355    0.04564828857575634    0.04560320425099502    0.04557891845751713    
  0.04557098510619886    0.04557891845751718    0.04560320425099502    0.04564828857575644    0.04572796111836355    
  0.04586613904612597    0.04608991754385819    0.046418895847263976    0.04685826756535438    0.04739995258745722    
  0.04802914033076069    0.04872897106389843    0.049478039265925346    0.05024289886464675    0.05097408417219731    
  0.05161249395845763    0.052103780997399034    0.05241055502356454    0.0525144512534702    0.04875063327874994    
  0.048687906078795626    0.04850027339313843    0.04819490341268884    0.04779547177965161    0.047343845133364586    
  0.04688893723823011    0.04647082863850058    0.04611222072273197    0.0458216168354769    0.045602272584875835    
  0.045457625061387896    0.04538902156834552    0.04538925567129396    0.04543907949084585    0.04551109912579672    
  0.04557891845751718    0.045624775255706955    0.045640686676601594    0.045624775255706906    0.04557891845751718    
  0.04551109912579672    0.04543907949084585    0.04538925567129396    0.04538902156834552    0.045457625061387855    
  0.045602272584875835    0.0458216168354769    0.04611222072273197    0.04647082863850058    0.04688893723823011    
  0.04734384513336458    0.04779547177965161    0.04819490341268879    0.04850027339313843    0.04868790607879563    
  0.04875063327874994    0.047522220018364876    0.04747252952478295    0.04732265664635303    0.04707631748966708    
  0.04675299471158408    0.04639080458035526    0.046035667212113496    0.045724886869682416    0.04547780464758203    
  0.045298622036639376    0.04518582588219596    0.04513872984275738    0.04515622309104698    0.04523046534681157    
  0.0453425444585271    0.04546514431977686    0.04557098510619886    0.045640686676601545    0.04566474984458178    
  0.045640686676601504    0.04557098510619886    0.04546514431977681    0.0453425444585271    0.04523046534681157    
  0.04515622309104698    0.04513872984275738    0.04518582588219596    0.045298622036639376    0.04547780464758203    
  0.045724886869682416    0.046035667212113496    0.04639080458035526    0.04675299471158407    0.04707631748966704    
  0.04732265664635303    0.04747252952478295    0.047522220018364876    0.04875063327874991    0.048687906078795654    
  0.04850027339313839    0.048194903412688825    0.04779547177965163    0.04734384513336453    0.046888937238230066    
  0.04647082863850058    0.04611222072273199    0.04582161683547692    0.045602272584875835    0.045457625061387896    
  0.04538902156834557    0.045389255671293864    0.04543907949084585    0.04551109912579672    0.04557891845751718    
  0.045624775255706955    0.045640686676601545    0.045624775255706955    0.04557891845751718    0.04551109912579681    
  0.04543907949084585    0.04538925567129396    0.04538902156834557    0.045457625061387896    0.045602272584875835    
  0.04582161683547692    0.04611222072273199    0.04647082863850058    0.04688893723823005    0.04734384513336455    
  0.04779547177965161    0.048194903412688804    0.04850027339313839    0.04868790607879564    0.04875063327874991    
  0.0525144512534702    0.052410555023564544    0.052103780997399034    0.05161249395845764    0.05097408417219731    
  0.050242898864646765    0.049478039265925346    0.04872897106389843    0.04802914033076069    0.04739995258745722    
  0.04685826756535438    0.046418895847263976    0.04608991754385819    0.04586613904612597    0.04572796111836355    
  0.04564828857575634    0.04560320425099502    0.04557891845751713    0.04557098510619886    0.04557891845751718    
  0.04560320425099502    0.04564828857575644    0.04572796111836355    0.04586613904612592    0.04608991754385815    
  0.046418895847263976    0.04685826756535438    0.04739995258745722    0.04802914033076069    0.04872897106389843    
  0.04947803926592532    0.05024289886464677    0.05097408417219731    0.05161249395845761    0.052103780997399034    
  0.05241055502356454    0.0525144512534702    0.05904418918780875    0.058865344922967466    0.05834189359879384    
  0.057513262489464104    0.05644301364740191    0.05520998725308514    0.05389398852311868    0.052563469818180796    
  0.051272012266606964    0.05006282974505205    0.048973728140622244    0.04803580728566191    0.0472665211128836    
  0.04666408251514722    0.04620973231605987    0.04587796177968035    0.04564828857575644    0.04551109912579672    
  0.04546514431977686    0.04551109912579672    0.04564828857575644    0.045877961779680496    0.04620973231605987    
  0.04666408251514717    0.0472665211128836    0.04803580728566186    0.048973728140622244    0.05006282974505207    
  0.051272012266606964    0.052563469818180796    0.05389398852311868    0.05520998725308514    0.05644301364740191    
  0.05751326248946407    0.05834189359879384    0.058865344922967494    0.05904418918780875    0.06869940178663424    
  0.06840401304727424    0.0675437515641821    0.06619137868614731    0.06445267199973871    0.062447348937988194    
  0.06029117090294355    0.058085640452896756    0.055917118139383076    0.05386070307278312    0.05198145230995069    
  0.05032940644316915    0.048932072462245915    0.0477917436630614    0.046891874490837634    0.04620973231605973    
  0.0457279611183636    0.0454390794908459    0.04534254445852705    0.0454390794908459    0.04572796111836365    
  0.04620973231605978    0.046891874490837634    0.0477917436630614    0.048932072462245915    0.0503294064431691    
  0.05198145230995069    0.05386070307278315    0.055917118139383076    0.058085640452896777    0.06029117090294355    
  0.06244734893798818    0.06445267199973871    0.06619137868614727    0.0675437515641821    0.06840401304727425    
  0.06869940178663424    0.08191966734702237    0.08145790957841582    0.08011650757065641    0.07801545006679766    
  0.07532182972671113    0.07221714882230204    0.06887383756321061    0.06544586623566766    0.062069106654611475    
  0.05886269877272222    0.055925355947163205    0.05332752137807576    0.05110576694233086    0.04926542042036593    
  0.0477917436630614    0.04666408251514722    0.04586613904612597    0.04538925567129396    0.04523046534681167    
  0.04538925567129396    0.04586613904612597    0.04666408251514722    0.0477917436630614    0.04926542042036593    
  0.05110576694233086    0.05332752137807573    0.055925355947163254    0.05886269877272222    0.062069106654611475    
  0.06544586623566769    0.06887383756321058    0.072217148822302    0.07532182972671113    0.07801545006679764    
  0.08011650757065641    0.0814579095784158    0.08191966734702237    0.09915988184335651    0.09847453760794223    
  0.09648541682886241    0.09337401254937709    0.08938985710803513    0.08480140425878947    0.07986425977804831    
  0.07481000380675978    0.06984496904315811    0.06514675208163431    0.060854877532847726    0.05706145542666505    
  0.05381005259047057    0.051105766942330905    0.048932072462245874    0.04726652111288364    0.04608991754385815    
  0.04538902156834557    0.045156223091046936    0.04538902156834557    0.04608991754385815    0.0472665211128836    
  0.048932072462245874    0.051105766942330905    0.05381005259047057    0.057061455426665    0.060854877532847726    
  0.06514675208163426    0.06984496904315811    0.07481000380675977    0.07986425977804834    0.08480140425878947    
  0.08938985710803513    0.09337401254937705    0.09648541682886241    0.09847453760794224    0.09915988184335651    
  0.12083294398538298    0.11986023530589206    0.11703682568176517    0.11261984651098954    0.10696401190026954    
  0.10045408857508384    0.0934612585252471    0.08632543439113176    0.07934799146576287    0.07278090142999555    
  0.06681197606781393    0.0615561983338086    0.05706145542666505    0.05332752137807564    0.050329406443169196    
  0.04803580728566186    0.04641889584726393    0.045457625061387896    0.04513872984275738    0.045457625061387896    
  0.04641889584726393    0.04803580728566186    0.050329406443169196    0.05332752137807571    0.05706145542666505    
  0.061556198333808626    0.06681197606781393    0.07278090142999555    0.07934799146576287    0.08632543439113177    
  0.0934612585252471    0.10045408857508385    0.1069640119002695    0.1126198465109895    0.11703682568176517    
  0.11986023530589203    0.12083294398538298    0.14726246716052993    0.14593183294632636    0.14206745233327586    
  0.13601732915967493    0.12826682102505085    0.1193509307218257    0.10979429515781622    0.10008054934630997    
  0.09063319420402285    0.08179482251856011    0.07380829078349065    0.06681197606781397    0.06085487753284777    
  0.055925355947163254    0.05198145230995076    0.04897372814062222    0.04685826756535445    0.04560227258487581    
  0.04518582588219594    0.04560227258487581    0.04685826756535445    0.048973728140622196    0.05198145230995076    
  0.0559253559471633    0.06085487753284777    0.06681197606781397    0.07380829078349065    0.08179482251856011    
  0.09063319420402285    0.10008054934631001    0.10979429515781622    0.1193509307218257    0.12826682102505085    
  0.13601732915967488    0.14206745233327586    0.14593183294632636    0.14726246716052993    0.17860957358245477    
  0.1768428806199416    0.17170969034337133    0.1636681514496491    0.15336483092421405    0.14152379285919714    
  0.1288649483667289    0.11605356070847507    0.10366316494877352    0.09214253023255982    0.08179482251856016    
  0.07278090142999566    0.06514675208163426    0.05886269877272219    0.05386070307278322    0.0500628297450521    
  0.047399952587457266    0.04582161683547704    0.045298622036639424    0.04582161683547694    0.047399952587457266    
  0.05006282974505207    0.05386070307278322    0.05886269877272224    0.06514675208163426    0.07278090142999565    
  0.08179482251856016    0.09214253023255985    0.10366316494877352    0.11605356070847513    0.1288649483667289    
  0.14152379285919708    0.15336483092421405    0.1636681514496491    0.17170969034337133    0.1768428806199416    
  0.17860957358245477    0.21473277233291274    0.2124454855320353    0.20579931443717475    0.19538866957802345    
  0.18205887195340087    0.16676602549452205    0.1504679965394881    0.13404847163352718    0.11825725515895892    
  0.1036631649487735    0.09063319420402287    0.07934799146576292    0.06984496904315812    0.062069106654611496    
  0.055917118139383076    0.051272012266606964    0.04802914033076073    0.046112220722732015    0.04547780464758199    
  0.04611222072273199    0.04802914033076073    0.051272012266606944    0.055917118139383076    0.062069106654611524    
  0.06984496904315812    0.0793479914657629    0.09063319420402287    0.1036631649487735    0.11825725515895892    
  0.13404847163352723    0.1504679965394881    0.16676602549452194    0.18205887195340087    0.1953886695780234    
  0.20579931443717475    0.21244548553203527    0.21473277233291274    0.2549942143391742    0.2521018227926829    
  0.24370143973305078    0.2305563610325573    0.2137537842142546    0.19452598406935787    0.17410799158097448    
  0.15363307474954596    0.1340484716335272    0.11605356070847507    0.10008054934630999    0.0863254343911319    
  0.07481000380675985    0.06544586623566766    0.058085640452896777    0.05256346981818089    0.04872897106389846    
  0.046470828638500626    0.045724886869682485    0.046470828638500626    0.04872897106389846    0.052563469818180844    
  0.058085640452896777    0.0654458662356677    0.07481000380675985    0.08632543439113187    0.10008054934630999    
  0.1160535607084751    0.1340484716335272    0.15363307474954602    0.17410799158097448    0.19452598406935787    
  0.2137537842142546    0.2305563610325574    0.24370143973305072    0.25210182279268284    0.2549942143391742    
  0.29809447967008645    0.2945257655824607    0.2841703633099282    0.2679938071520381    0.2473671540242841    
  0.22383829952976622    0.19895048164224086    0.1741079915809744    0.1504679965394881    0.12886494836672888    
  0.10979429515781626    0.09346125852524718    0.07986425977804842    0.06887383756321062    0.06029117090294349    
  0.053893988523118726    0.04947803926592539    0.046888937238230136    0.04603566721211355    0.04688893723823011    
  0.04947803926592538    0.05389398852311868    0.06029117090294349    0.06887383756321061    0.07986425977804842    
  0.09346125852524716    0.10979429515781626    0.1288649483667289    0.1504679965394881    0.17410799158097448    
  0.1989504816422409    0.22383829952976622    0.2473671540242841    0.2679938071520381    0.2841703633099282    
  0.2945257655824607    0.29809447967008645    0.3420279476891906    0.33774305384338166    0.3253221366001186    
  0.3059565567916046    0.2813307004823411    0.25333466367739427    0.22383829952976617    0.1945259840693578    
  0.166766025494522    0.14152379285919708    0.11935093072182565    0.10045408857508391    0.08480140425878956    
  0.07221714882230207    0.062447348937988215    0.0552099872530851    0.05024289886464675    0.04734384513336462    
  0.04639080458035528    0.04734384513336462    0.05024289886464675    0.0552099872530851    0.06244734893798821    
  0.07221714882230203    0.08480140425878956    0.10045408857508388    0.11935093072182565    0.14152379285919708    
  0.166766025494522    0.19452598406935787    0.22383829952976617    0.25333466367739427    0.2813307004823411    
  0.3059565567916046    0.3253221366001186    0.3377430538433816    0.3420279476891906    0.38418821016845933    
  0.3791961623378687    0.3647377591277123    0.34223324262311094    0.31368522578538227    0.28133070048234105    
  0.2473671540242841    0.2137537842142545    0.1820588719534008    0.15336483092421396    0.12826682102505083    
  0.10696401190026952    0.08938985710803518    0.07532182972671109    0.06445267199973871    0.056443013647401875    
  0.050974084172197336    0.04779547177965163    0.04675299471158405    0.04779547177965163    0.05097408417219734    
  0.05644301364740191    0.06445267199973871    0.07532182972671106    0.08938985710803518    0.1069640119002695    
  0.12826682102505083    0.153364830924214    0.1820588719534008    0.21375378421425445    0.2473671540242841    
  0.28133070048234105    0.31368522578538227    0.3422332426231109    0.3647377591277123    0.3791961623378687    
  0.38418821016845933    0.42158956072383325    0.4159592552642397    0.3996609741947095    0.3743210599902981    
  0.34223324262311083    0.3059565567916046    0.2679938071520381    0.23055636103255725    0.19538866957802342    