#     DFTpy    
  CRYSTAL 
    
  PRIMVEC    
  3.421508708275611    -1.8798000000000006e-10    3.5631000000000003e-10    
  -1.8798000000000006e-10    3.4215087080767908    1.7169000000000006e-10    
  6.511100000000001e-10    3.1379000000000006e-10    6.268270264560972    
  PRIMCOORD    
  4    1    
  Si    1.7107543540726202    1.71075435497988    1.9262034068079403    
  Si    6.343900000000001e-10    -5.871200000000001e-10    1.2079317233654603    
  Si    9.730000000000003e-11    4.4342000000000006e-10    5.060338537640111    
  Si    1.7107543545855406    1.7107543536802103    4.342066861836441    
  BEGIN_BLOCK_DATAGRID_3D    
  3d_datagrid_density    
  BEGIN_DATAGRID_3D#0    
  33    33    61    
  0.0    0.0    0.0    
  3.4215087210379034    -1.8798000070116904e-10    3.563100013290431e-10    
  -1.8798000070116904e-10    3.4215087208390833    1.7169000064040703e-10    
  6.511100024286529e-10    3.1379000117044274e-10    6.268270287941739    
  0.5098483848771601    0.5012527483636484    0.4764954362064877    0.4384586631756536    0.39129926865213605    
  0.3396354818320678    0.287723512535941    0.23886365713441604    0.1951742601707175    0.1577039594670802    
  0.12672345738838764    0.10202115194486712    0.08311131767051805    0.06936767369881514    0.060136423199263773    
  0.05485168397900958    0.05313430266705198    0.05485168397900958    0.060136423199263773    0.06936767369881514    
  0.08311131767051805    0.10202115194486712    0.12672345738838764    0.1577039594670802    0.1951742601707175    
  0.23886365713441604    0.287723512535941    0.3396354818320678    0.39129926865213605    0.4384586631756536    
  0.4764954362064877    0.5012527483636484    0.5098483848771601    0.5012527483636484    0.4928448112764124    
  0.4686248806785181    0.4314022980721804    0.3852281205262951    0.33460610638585675    0.2836959864683754    
  0.23573636539939696    0.19281888021489124    0.1559887979473585    0.12552388814551743    0.1012227448327449    
  0.08261114812970073    0.0690759536510034    0.05997798349714505    0.05476577005450547    0.053071171554383165    
  0.05476577005450547    0.05997798349714505    0.0690759536510034    0.08261114812970073    0.1012227448327449    
  0.12552388814551743    0.1559887979473585    0.19281888021489124    0.23573636539939696    0.2836959864683754    
  0.33460610638585675    0.3852281205262951    0.4314022980721804    0.4686248806785181    0.4928448112764124    
  0.5012527483636484    0.47649543620648777    0.4686248806785181    0.4459438904412651    0.41105484098462275    
  0.36770897423223387    0.32008508472153496    0.2720665789177662    0.2267115316262455    0.18602937379929177    
  0.15105131895397442    0.1220741097252876    0.09892697317300056    0.08117115464092625    0.06823330894463954    
  0.059517308114055784    0.05451317526407596    0.05288401274508301    0.05451317526407596    0.059517308114055784    
  0.06823330894463954    0.08117115464092625    0.09892697317300056    0.1220741097252876    0.15105131895397442    
  0.18602937379929177    0.2267115316262455    0.2720665789177662    0.32008508472153496    0.36770897423223387    
  0.41105484098462275    0.4459438904412651    0.4686248806785181    0.47649543620648777    0.4384586631756537    
  0.43140229807218045    0.41105484098462264    0.3797110910261105    0.3406771331312628    0.29764655535650064    
  0.2540828756991473    0.2127594557403628    0.1755455900867285    0.14343928013162072    0.1167620104282931    
  0.09539209640292547    0.07895005464768269    0.06692799334049294    0.0587981157308333    0.05411411135801218    
  0.05258585826361709    0.05411411135801218    0.0587981157308333    0.06692799334049294    0.07895005464768269    
  0.09539209640292547    0.1167620104282931    0.14343928013162072    0.1755455900867285    0.2127594557403628    
  0.2540828756991473    0.29764655535650064    0.3406771331312628    0.3797110910261105    0.41105484098462264    
  0.43140229807218045    0.4384586631756537    0.39129926865213605    0.3852281205262951    0.3677089742322339    
  0.34067713313126285    0.30691602284421615    0.2695423772006097    0.2315077998704749    0.1952229102438759    
  0.162363732885819    0.13386979201976593    0.11008463564921857    0.0909466968407941    0.07615319635462653    
  0.06528118996626106    0.05788976294699029    0.053611122765116793    0.052211167168668    0.053611122765116793    
  0.05788976294699029    0.06528118996626106    0.07615319635462653    0.0909466968407941    0.11008463564921857    
  0.13386979201976593    0.162363732885819    0.1952229102438759    0.2315077998704749    0.2695423772006097    
  0.30691602284421615    0.34067713313126285    0.3677089742322339    0.3852281205262951    0.39129926865213605    
  0.3396354818320677    0.33460610638585675    0.32008508472153485    0.2976465553565007    0.26954237720060964    
  0.23829070710094521    0.20629590040056497    0.17556380164279123    0.14753977186947856    0.12308029677649154    
  0.10254000358299212    0.08591605289587738    0.07298679877121197    0.06342206068041925    0.05687617314824274    
  0.05306568808633754    0.05181483662910114    0.05306568808633754    0.05687617314824274    0.06342206068041925    
  0.07298679877121197    0.08591605289587738    0.10254000358299212    0.12308029677649154    0.14753977186947856    
  0.17556380164279123    0.20629590040056497    0.23829070710094521    0.26954237720060964    0.2976465553565007    
  0.32008508472153485    0.33460610638585675    0.3396354818320677    0.28772351253594103    0.2836959864683754    
  0.27206657891776614    0.2540828756991474    0.23150779987047482    0.20629590040056497    0.18032089776972768    
  0.15518121329539386    0.13207687696733236    0.11176328049790375    0.09458956649720593    0.08059819577960796    
  0.06963935545010733    0.061470607366178966    0.055838603632489346    0.05254047006940837    0.05145418840701303    
  0.05254047006940837    0.055838603632489346    0.061470607366178966    0.06963935545010733    0.08059819577960796    
  0.09458956649720593    0.11176328049790375    0.13207687696733236    0.15518121329539386    0.18032089776972768    
  0.20629590040056497    0.23150779987047482    0.2540828756991474    0.27206657891776614    0.2836959864683754    
  0.28772351253594103    0.238863657134416    0.235736365399397    0.22671153162624552    0.2127594557403628    
  0.19522291024387584    0.1755638016427912    0.15518121329539397    0.13529721998770364    0.11687317591636141    
  0.10055331339488684    0.08666337094938528    0.07527186915848932    0.06628397582333545    0.059531398442772665    
  0.05484114711591061    0.05207902652355064    0.051166593504476054    0.05207902652355064    0.05484114711591061    
  0.059531398442772665    0.06628397582333545    0.07527186915848932    0.08666337094938528    0.10055331339488684    
  0.11687317591636141    0.13529721998770364    0.15518121329539397    0.1755638016427912    0.19522291024387584    
  0.2127594557403628    0.22671153162624552    0.235736365399397    0.238863657134416    0.19517426017071754    
  0.19281888021489116    0.18602937379929183    0.17554559008672854    0.162363732885819    0.1475397718694786    
  0.13207687696733236    0.11687317591636144    0.10267182033436871    0.09000211257852572    0.07915111038605357    
  0.07019590045060048    0.06308013822348879    0.05769363662240968    0.05392717090208633    0.05169889469609523    
  0.05096121770258247    0.05169889469609523    0.05392717090208633    0.05769363662240968    0.06308013822348879    
  0.07019590045060048    0.07915111038605357    0.09000211257852572    0.10267182033436871    0.11687317591636144    
  0.13207687696733236    0.1475397718694786    0.162363732885819    0.17554559008672854    0.18602937379929183    
  0.19281888021489116    0.19517426017071754    0.15770395946708016    0.15598879794735843    0.15105131895397436    
  0.1434392801316207    0.1338697920197659    0.12308029677649154    0.11176328049790381    0.10055331339488667    
  0.09000211257852565    0.0805251271699695    0.07236071695011256    0.06558288157118031    0.060161603714701445    
  0.056029977717243135    0.053125207965074556    0.05140130637957663    0.050829937349456865    0.05140130637957663    
  0.053125207965074556    0.056029977717243135    0.060161603714701445    0.06558288157118031    0.07236071695011256    
  0.0805251271699695    0.09000211257852565    0.10055331339488667    0.11176328049790381    0.12308029677649154    
  0.1338697920197659    0.1434392801316207    0.15105131895397436    0.15598879794735843    0.15770395946708016    
  0.1267234573883877    0.12552388814551743    0.1220741097252876    0.11676201042829314    0.1100846356492185    
  0.10254000358299206    0.09458956649720586    0.0866633709493852    0.07915111038605357    0.07236071695011256    
  0.06647804816461214    0.06156788927972822    0.05761791859959505    0.05459117128079685    0.05245501649598851    
  0.05118521252557106    0.050764257860482845    0.05118521252557106    0.05245501649598851    0.05459117128079685    
  0.05761791859959505    0.06156788927972822    0.06647804816461214    0.07236071695011256    0.07915111038605357    
  0.0866633709493852    0.09458956649720586    0.10254000358299206    0.1100846356492185    0.11676201042829314    
  0.1220741097252876    0.12552388814551743    0.1267234573883877    0.10202115194486719    0.10122274483274492    
  0.09892697317300056    0.09539209640292556    0.09094669684079407    0.08591605289587749    0.08059819577960808    
  0.07527186915848927    0.07019590045060048    0.06558288157118031    0.06156788927972822    0.05820355805842648    
  0.05548797510798444    0.05340168815429279    0.051927593683751036    0.05105169496043305    0.05076157149293882    
  0.05105169496043305    0.051927593683751036    0.05340168815429279    0.05548797510798444    0.05820355805842648    
  0.06156788927972822    0.06558288157118031    0.07019590045060048    0.07527186915848927    0.08059819577960808    
  0.08591605289587749    0.09094669684079407    0.09539209640292556    0.09892697317300056    0.10122274483274492    
  0.10202115194486719    0.0831113176705181    0.08261114812970076    0.0811711546409263    0.07895005464768275    
  0.0761531963546265    0.07298679877121199    0.06963935545010734    0.06628397582333542    0.06308013822348882    
  0.060161603714701514    0.05761791859959505    0.05548797510798444    0.05377379742242956    0.052462894601420285    
  0.0515417306506494    0.050997270069635336    0.050817541377180635    0.050997270069635336    0.0515417306506494    
  0.052462894601420285    0.05377379742242956    0.05548797510798444    0.05761791859959505    0.060161603714701514    
  0.06308013822348882    0.06628397582333542    0.06963935545010734    0.07298679877121199    0.0761531963546265    
  0.07895005464768275    0.0811711546409263    0.08261114812970076    0.0831113176705181    0.06936767369881511    
  0.06907595365100333    0.06823330894463948    0.06692799334049296    0.06528118996626096    0.06342206068041918    
  0.06147060736617894    0.059531398442772575    0.05769363662240965    0.05602997771724309    0.05459117128079685    
  0.05340168815429269    0.052462894601420285    0.051762519643801956    0.0512830290104129    0.05100585936656852    
  0.050915552710135724    0.05100585936656852    0.0512830290104129    0.051762519643801956    0.052462894601420285    
  0.05340168815429269    0.05459117128079685    0.05602997771724309    0.05769363662240965    0.059531398442772575    
  0.06147060736617894    0.06342206068041918    0.06528118996626096    0.06692799334049296    0.06823330894463948    
  0.06907595365100333    0.06936767369881511    0.06013642319926382    0.059977983497145074    0.05951730811405581    
  0.058798115730833315    0.057889762946990185    0.056876173148242753    0.055838603632489346    0.05484114711591054    
  0.05392717090208633    0.053125207965074604    0.05245501649598855    0.05192759368375099    0.05154173065064936    
  0.05128302901041285    0.05112753111907044    0.05104854140662255    0.051024912194061654    0.05104854140662255    
  0.05112753111907044    0.05128302901041285    0.05154173065064936    0.05192759368375099    0.05245501649598855    
  0.053125207965074604    0.05392717090208633    0.05484114711591054    0.055838603632489346    0.056876173148242753    
  0.057889762946990185    0.058798115730833315    0.05951730811405581    0.059977983497145074    0.06013642319926382    
  0.05485168397900963    0.0547657700545055    0.05451317526407602    0.05411411135801221    0.053611122765116793    
  0.05306568808633759    0.05254047006940837    0.05207902652355059    0.051698894696095184    0.05140130637957667    
  0.05118521252557111    0.051051694960433096    0.05099727006963529    0.051005859366568616    0.05104854140662255    
  0.05109189338872689    0.05110964266336187    0.05109189338872689    0.05104854140662255    0.051005859366568616    
  0.05099727006963529    0.051051694960433096    0.05118521252557111    0.05140130637957667    0.051698894696095184    
  0.05207902652355059    0.05254047006940837    0.05306568808633759    0.053611122765116793    0.05411411135801221    
  0.05451317526407602    0.0547657700545055    0.05485168397900963    0.053134302667052005    0.05307117155438311    
  0.05288401274508296    0.05258585826361707    0.05221116716866801    0.05181483662910122    0.05145418840701303    
  0.05116659350447603    0.05096121770258247    0.05082993734945691    0.05076425786048294    0.05076157149293887    
  0.050817541377180635    0.050915552710135814    0.0510249121940617    0.05110964266336192    0.051141430757746034    
  0.05110964266336192    0.0510249121940617    0.050915552710135814    0.050817541377180635    0.05076157149293887    
  0.05076425786048294    0.05082993734945691    0.05096121770258247    0.05116659350447603    0.05145418840701303    
  0.05181483662910122    0.05221116716866801    0.05258585826361707    0.05288401274508296    0.05307117155438311    
  0.053134302667052005    0.05485168397900963    0.0547657700545055    0.05451317526407602    0.05411411135801221    
  0.053611122765116793    0.05306568808633759    0.05254047006940837    0.05207902652355059    0.051698894696095184    
  0.05140130637957667    0.05118521252557111    0.051051694960433096    0.05099727006963529    0.051005859366568616    
  0.05104854140662255    0.05109189338872689    0.05110964266336187    0.05109189338872689    0.05104854140662255    
  0.051005859366568616    0.05099727006963529    0.051051694960433096    0.05118521252557111    0.05140130637957667    
  0.051698894696095184    0.05207902652355059    0.05254047006940837    0.05306568808633759    0.053611122765116793    
  0.05411411135801221    0.05451317526407602    0.0547657700545055    0.05485168397900963    0.06013642319926382    
  0.059977983497145074    0.05951730811405581    0.058798115730833315    0.057889762946990185    0.056876173148242753    
  0.055838603632489346    0.05484114711591054    0.05392717090208633    0.053125207965074604    0.05245501649598855    
  0.05192759368375099    0.05154173065064936    0.05128302901041285    0.05112753111907044    0.05104854140662255    
  0.051024912194061654    0.05104854140662255    0.05112753111907044    0.05128302901041285    0.05154173065064936    
  0.05192759368375099    0.05245501649598855    0.053125207965074604    0.05392717090208633    0.05484114711591054    
  0.055838603632489346    0.056876173148242753    0.057889762946990185    0.058798115730833315    0.05951730811405581    
  0.059977983497145074    0.06013642319926382    0.06936767369881511    0.06907595365100333    0.06823330894463948    
  0.06692799334049296    0.06528118996626096    0.06342206068041918    0.06147060736617894    0.059531398442772575    
  0.05769363662240965    0.05602997771724309    0.05459117128079685    0.05340168815429269    0.052462894601420285    
  0.051762519643801956    0.0512830290104129    0.05100585936656852    0.050915552710135724    0.05100585936656852    
  0.0512830290104129    0.051762519643801956    0.052462894601420285    0.05340168815429269    0.05459117128079685    
  0.05602997771724309    0.05769363662240965    0.059531398442772575    0.06147060736617894    0.06342206068041918    
  0.06528118996626096    0.06692799334049296    0.06823330894463948    0.06907595365100333    0.06936767369881511    
  0.0831113176705181    0.08261114812970076    0.0811711546409263    0.07895005464768275    0.0761531963546265    
  0.07298679877121199    0.06963935545010734    0.06628397582333542    0.06308013822348882    0.060161603714701514    
  0.05761791859959505    0.05548797510798444    0.05377379742242956    0.052462894601420285    0.0515417306506494    
  0.050997270069635336    0.050817541377180635    0.050997270069635336    0.0515417306506494    0.052462894601420285    
  0.05377379742242956    0.05548797510798444    0.05761791859959505    0.060161603714701514    0.06308013822348882    
  0.06628397582333542    0.06963935545010734    0.07298679877121199    0.0761531963546265    0.07895005464768275    
  0.0811711546409263    0.08261114812970076    0.0831113176705181    0.10202115194486719    0.10122274483274492    
  0.09892697317300056    0.09539209640292556    0.09094669684079407    0.08591605289587749    0.08059819577960808    
  0.07527186915848927    0.07019590045060048    0.06558288157118031    0.06156788927972822    0.05820355805842648    
  0.05548797510798444    0.05340168815429279    0.051927593683751036    0.05105169496043305    0.05076157149293882    
  0.05105169496043305    0.051927593683751036    0.05340168815429279    0.05548797510798444    0.05820355805842648    
  0.06156788927972822    0.06558288157118031    0.07019590045060048    0.07527186915848927    0.08059819577960808    
  0.08591605289587749    0.09094669684079407    0.09539209640292556    0.09892697317300056    0.10122274483274492    
  0.10202115194486719    0.1267234573883877    0.12552388814551743    0.1220741097252876    0.11676201042829314    
  0.1100846356492185    0.10254000358299206    0.09458956649720586    0.0866633709493852    0.07915111038605357    
  0.07236071695011256    0.06647804816461214    0.06156788927972822    0.05761791859959505    0.05459117128079685    
  0.05245501649598851    0.05118521252557106    0.050764257860482845    0.05118521252557106    0.05245501649598851    
  0.05459117128079685    0.05761791859959505    0.06156788927972822    0.06647804816461214    0.07236071695011256    
  0.07915111038605357    0.0866633709493852    0.09458956649720586    0.10254000358299206    0.1100846356492185    
  0.11676201042829314    0.1220741097252876    0.12552388814551743    0.1267234573883877    0.15770395946708016    
  0.15598879794735843    0.15105131895397436    0.1434392801316207    0.1338697920197659    0.12308029677649154    
  0.11176328049790381    0.10055331339488667    0.09000211257852565    0.0805251271699695    0.07236071695011256    
  0.06558288157118031    0.060161603714701445    0.056029977717243135    0.053125207965074556    0.05140130637957663    
  0.050829937349456865    0.05140130637957663    0.053125207965074556    0.056029977717243135    0.060161603714701445    
  0.06558288157118031    0.07236071695011256    0.0805251271699695    0.09000211257852565    0.10055331339488667    
  0.11176328049790381    0.12308029677649154    0.1338697920197659    0.1434392801316207    0.15105131895397436    
  0.15598879794735843    0.15770395946708016    0.19517426017071754    0.19281888021489116    0.18602937379929183    
  0.17554559008672854    0.162363732885819    0.1475397718694786    0.13207687696733236    0.11687317591636144    
  0.10267182033436871    0.09000211257852572    0.07915111038605357    0.07019590045060048    0.06308013822348879    
  0.05769363662240968    0.05392717090208633    0.05169889469609523    0.05096121770258247    0.05169889469609523    
  0.05392717090208633    0.05769363662240968    0.06308013822348879    0.07019590045060048    0.07915111038605357    
  0.09000211257852572    0.10267182033436871    0.11687317591636144    0.13207687696733236    0.1475397718694786    
  0.162363732885819    0.17554559008672854    0.18602937379929183    0.19281888021489116    0.19517426017071754    
  0.238863657134416    0.235736365399397    0.22671153162624552    0.2127594557403628    0.19522291024387584    
  0.1755638016427912    0.15518121329539397    0.13529721998770364    0.11687317591636141    0.10055331339488684    
  0.08666337094938528    0.07527186915848932    0.06628397582333545    0.059531398442772665    0.05484114711591061    
  0.05207902652355064    0.051166593504476054    0.05207902652355064    0.05484114711591061    0.059531398442772665    
  0.06628397582333545    0.07527186915848932    0.08666337094938528    0.10055331339488684    0.11687317591636141    
  0.13529721998770364    0.15518121329539397    0.1755638016427912    0.19522291024387584    0.2127594557403628    
  0.22671153162624552    0.235736365399397    0.238863657134416    0.28772351253594103    0.2836959864683754    
  0.27206657891776614    0.2540828756991474    0.23150779987047482    0.20629590040056497    0.18032089776972768    
  0.15518121329539386    0.13207687696733236    0.11176328049790375    0.09458956649720593    0.08059819577960796    
  0.06963935545010733    0.061470607366178966    0.055838603632489346    0.05254047006940837    0.05145418840701303    
  0.05254047006940837    0.055838603632489346    0.061470607366178966    0.06963935545010733    0.08059819577960796    
  0.09458956649720593    0.11176328049790375    0.13207687696733236    0.15518121329539386    0.18032089776972768    
  0.20629590040056497    0.23150779987047482    0.2540828756991474    0.27206657891776614    0.2836959864683754    
  0.28772351253594103    0.3396354818320677    0.33460610638585675    0.32008508472153485    0.2976465553565007    
  0.26954237720060964    0.23829070710094521    0.20629590040056497    0.17556380164279123    0.14753977186947856    
  0.12308029677649154    0.10254000358299212    0.08591605289587738    0.07298679877121197    0.06342206068041925    
  0.05687617314824274    0.05306568808633754    0.05181483662910114    0.05306568808633754    0.05687617314824274    
  0.06342206068041925    0.07298679877121197    0.08591605289587738    0.10254000358299212    0.12308029677649154    
  0.14753977186947856    0.17556380164279123    0.20629590040056497    0.23829070710094521    0.26954237720060964    
  0.2976465553565007    0.32008508472153485    0.33460610638585675    0.3396354818320677    0.39129926865213605    
  0.3852281205262951    0.3677089742322339    0.34067713313126285    0.30691602284421615    0.2695423772006097    
  0.2315077998704749    0.1952229102438759    0.162363732885819    0.13386979201976593    0.11008463564921857    
  0.0909466968407941    0.07615319635462653    0.06528118996626106    0.05788976294699029    0.053611122765116793    
  0.052211167168668    0.053611122765116793    0.05788976294699029    0.06528118996626106    0.07615319635462653    
  0.0909466968407941    0.11008463564921857    0.13386979201976593    0.162363732885819    0.1952229102438759    
  0.2315077998704749    0.2695423772006097    0.30691602284421615    0.34067713313126285    0.3677089742322339    
  0.3852281205262951    0.39129926865213605    0.4384586631756537    0.43140229807218045    0.41105484098462264    
  0.3797110910261105    0.3406771331312628    0.29764655535650064    0.2540828756991473    0.2127594557403628    
  0.1755455900867285    0.14343928013162072    0.1167620104282931    0.09539209640292547    0.07895005464768269    
  0.06692799334049294    0.0587981157308333    0.05411411135801218    0.05258585826361709    0.05411411135801218    
  0.0587981157308333    0.06692799334049294    0.07895005464768269    0.09539209640292547    0.1167620104282931    
  0.14343928013162072    0.1755455900867285    0.2127594557403628    0.2540828756991473    0.29764655535650064    
  0.3406771331312628    0.3797110910261105    0.41105484098462264    0.43140229807218045    0.4384586631756537    
  0.47649543620648777    0.4686248806785181    0.4459438904412651    0.41105484098462275    0.36770897423223387    
  0.32008508472153496    0.2720665789177662    0.2267115316262455    0.18602937379929177    0.15105131895397442    
  0.1220741097252876    0.09892697317300056    0.08117115464092625    0.06823330894463954    0.059517308114055784    
  0.05451317526407596    0.05288401274508301    0.05451317526407596    0.059517308114055784    0.06823330894463954    
  0.08117115464092625    0.09892697317300056    0.1220741097252876    0.15105131895397442    0.18602937379929177    
  0.2267115316262455    0.2720665789177662    0.32008508472153496    0.36770897423223387    0.41105484098462275    
  0.4459438904412651    0.4686248806785181    0.47649543620648777    0.5012527483636484    0.4928448112764124    
  0.4686248806785181    0.4314022980721804    0.3852281205262951    0.33460610638585675    0.2836959864683754    
  0.23573636539939696    0.19281888021489124    0.1559887979473585    0.12552388814551743    0.1012227448327449    
  0.08261114812970073    0.0690759536510034    0.05997798349714505    0.05476577005450547    0.053071171554383165    
  0.05476577005450547    0.05997798349714505    0.0690759536510034    0.08261114812970073    0.1012227448327449    
  0.12552388814551743    0.1559887979473585    0.19281888021489124    0.23573636539939696    0.2836959864683754    
  0.33460610638585675    0.3852281205262951    0.4314022980721804    0.4686248806785181    0.4928448112764124    
  0.5012527483636484    0.5098483848771601    0.5012527483636484    0.4764954362064877    0.4384586631756536    
  0.39129926865213605    0.3396354818320678    0.287723512535941    0.23886365713441604    0.1951742601707175    
  0.1577039594670802    0.12672345738838764    0.10202115194486712    0.08311131767051805    0.06936767369881514    
  0.060136423199263773    0.05485168397900958    0.05313430266705198    0.05485168397900958    0.060136423199263773    
  0.06936767369881514    0.08311131767051805    0.10202115194486712    0.12672345738838764    0.1577039594670802    
  0.1951742601707175    0.23886365713441604    0.287723512535941    0.3396354818320678    0.39129926865213605    
  0.4384586631756536    0.4764954362064877    0.5012527483636484    0.5098483848771601    0.5130101329832835    
  0.5044581935731081    0.47979896543746514    0.4418374050811367    0.39465450305557703    0.34282852619435966    
  0.2906214203447446    0.24137890870327722    0.19728854538900997    0.15946441953307208    0.12820956498253716    
  0.10330347449664222    0.084232009355232    0.07035081558436869    0.06100864216832638    0.05565166157343175    
  0.05390937502972457    0.05565166157343175    0.06100864216832638    0.07035081558436869    0.084232009355232    
  0.10330347449664222    0.12820956498253716    0.15946441953307208    0.19728854538900997    0.24137890870327722    
  0.2906214203447446    0.34282852619435966    0.39465450305557703    0.4418374050811367    0.47979896543746514    
  0.5044581935731081    0.5130101329832835    0.5044581935731082    0.4960872293972101    0.4719484894823144    
  0.4347817485554142    0.388569696153942    0.337779871278349    0.2865772252433929    0.2382426419074919    
  0.19493313855617297    0.15775632554878297    0.12702079250950704    0.10251656974938723    0.08374259736474232    
  0.07006925112316006    0.06086055980306778    0.05557674751519015    0.05385757835058404    0.05557674751519015    
  0.06086055980306778    0.07006925112316006    0.08374259736474232    0.10251656974938723    0.12702079250950704    
  0.15775632554878297    0.19493313855617297    0.2382426419074919    0.2865772252433929    0.337779871278349    
  0.388569696153942    0.4347817485554142    0.4719484894823144    0.4960872293972101    0.5044581935731082    
  0.4797989654374652    0.4719484894823144    0.44930617068346296    0.41442402611557516    0.37100384012909415    
  0.32319808922217297    0.2748947533524293    0.22918653944115475    0.1881381711068083    0.15283446858042674    
  0.1235984691327944    0.1002515933071494    0.08233257570924236    0.06925598132245957    0.06043064110403733    
  0.055357192834448274    0.05370455273819894    0.055357192834448274    0.06043064110403733    0.06925598132245957    
  0.08233257570924236    0.1002515933071494    0.1235984691327944    0.15283446858042674    0.1881381711068083    
  0.22918653944115475    0.2748947533524293    0.32319808922217297    0.37100384012909415    0.41442402611557516    
  0.44930617068346296    0.4719484894823144    0.4797989654374652    0.4418374050811367    0.4347817485554142    
  0.41442402611557505    0.38303047573710636    0.3438798399356494    0.30065220043140745    0.25681667354908483    
  0.2151730325309852    0.1776327465635181    0.1452346414896836    0.11831928512856206    0.09675793951294184    
  0.08015480047285155    0.06799605630456274    0.059761077034146376    0.05501239259285261    0.05346267162999618    
  0.05501239259285261    0.059761077034146376    0.06799605630456274    0.08015480047285155    0.09675793951294184    
  0.11831928512856206    0.1452346414896836    0.1776327465635181    0.2151730325309852    0.25681667354908483    
  0.30065220043140745    0.3438798399356494    0.38303047573710636    0.41442402611557505    0.4347817485554142    
  0.4418374050811367    0.39465450305557703    0.38856969615394205    0.3710038401290942    0.34387983993564947    
  0.30997128969312554    0.27239351641512577    0.23410720159307502    0.19754356718325888    0.16440771189868716    
  0.1356653717876983    0.11167050133134683    0.09235535398923775    0.07740798679342904    0.06640617102399399    