#     DFTpy    
  CRYSTAL 
    
  PRIMVEC    
  3.765955893672481    -2.0691000000000004e-10    3.9218000000000004e-10    
  -2.0691000000000004e-10    3.7659558934536506    1.8897000000000002e-10    
  7.166600000000001e-10    3.4538000000000005e-10    6.899304183812082    
  PRIMCOORD    
  4    1    
  Si    1.8829779467644905    1.8829779477630904    2.1201165014530403    
  Si    6.982600000000001e-10    -6.4623e-10    1.3295355881337902    
  Si    1.0710000000000002e-10    4.880600000000001e-10    5.569768591764951    
  Si    1.8829779473290502    1.8829779463325802    4.779187686853532    
  BEGIN_BLOCK_DATAGRID_3D    
  3d_datagrid_density    
  BEGIN_DATAGRID_3D#0    
  37    37    73    
  0.0    0.0    0.0    
  3.765955907719568    -2.069100007717783e-10    3.9218000146283896e-10    
  -2.069100007717783e-10    3.765955907500738    1.8897000070486174e-10    
  7.166600026731555e-10    3.4538000128827404e-10    6.899304209546617    
  0.36170067745283174    0.35634326815012024    0.3408193304197381    0.3166978051439217    0.2863197492408158    
  0.25238085029048923    0.21745981066749698    0.18366866514317895    0.1525184820400905    0.12495132115865994    
  0.10142943047156439    0.08202133685141673    0.06649198598745668    0.054415931857900876    0.04530142923617448    
  0.03869202648125941    0.03422365923058575    0.031641585255726544    0.030797148624669823    0.031641585255726565    
  0.03422365923058575    0.03869202648125936    0.04530142923617449    0.05441593185790091    0.06649198598745668    
  0.08202133685141677    0.10142943047156439    0.12495132115865991    0.1525184820400905    0.18366866514317895    
  0.21745981066749698    0.2523808502904892    0.2863197492408158    0.3166978051439218    0.3408193304197381    
  0.35634326815012024    0.36170067745283174    0.35634326815012024    0.35108315575058474    0.3358394766614807    
  0.31214902464199606    0.28230717217297374    0.24895887350666093    0.21463481598877088    0.18140770459745223    
  0.15076153379143747    0.12362421253506593    0.10045467105134374    0.08132538515879781    0.06600922311188194    
  0.05409054439062587    0.04508806256528267    0.038555281201631535    0.034136313812413194    0.03158195916663186    
  0.0307464754376053    0.03158195916663191    0.034136313812413194    0.038555281201631514    0.04508806256528268    
  0.0540905443906259    0.06600922311188194    0.08132538515879781    0.10045467105134374    0.12362421253506592    
  0.15076153379143747    0.18140770459745223    0.21463481598877088    0.24895887350666082    0.28230717217297374    
  0.3121490246419961    0.3358394766614807    0.35108315575058463    0.35634326815012024    0.3408193304197382    
  0.3358394766614806    0.3214030752650175    0.29895443579496134    0.27065778856999984    0.23901287834670654    
  0.20641320488862067    0.17481878106672158    0.1456350955873898    0.11974779852146324    0.09760462194533878    
  0.07928845382546813    0.06459487615063286    0.053136806620718006    0.04446329746391981    0.038156447102757694    
  0.03388368528750411    0.03141157412740616    0.030602683398781437    0.031411574127406194    0.03388368528750411    
  0.03815644710275764    0.04446329746391981    0.05313680662071804    0.06459487615063286    0.07928845382546815    
  0.09760462194533878    0.11974779852146324    0.1456350955873898    0.17481878106672158    0.20641320488862067    
  0.23901287834670654    0.27065778856999984    0.2989544357949614    0.3214030752650175    0.33583947666148056    
  0.3408193304197382    0.3166978051439217    0.31214902464199606    0.29895443579496134    0.2784164653985102    
  0.2524985095038692    0.22347879756264552    0.19354239516418553    0.16447786300856537    0.13756943961751106    
  0.1136346925239172    0.09310015999755228    0.07606199078628641    0.06234991720187265    0.051621139762660244    
  0.0434716440427655    0.03752716915224727    0.03349034580565073    0.031151482744504872    0.03038575176200779    
  0.0311514827445049    0.03349034580565072    0.0375271691522472    0.0434716440427655    0.05162113976266025    
  0.06234991720187265    0.07606199078628641    0.09310015999755229    0.1136346925239172    0.13756943961751106    
  0.16447786300856537    0.19354239516418553    0.22347879756264546    0.2524985095038692    0.27841646539851034    
  0.29895443579496134    0.31214902464199606    0.3166978051439217    0.2863197492408158    0.28230717217297374    
  0.27065778856999995    0.2524985095038692    0.2295435969724187    0.20379684568255332    0.17718666848331313    
  0.1512916659886303    0.1272465992263641    0.10578197899271313    0.08729304413363631    0.07188781847932546    
  0.05943607779977145    0.049649486645702845    0.04218214422689155    0.036713300736183035    0.03298833011866732    
  0.030826366778664318    0.03011804165828948    0.030826366778664356    0.03298833011866732    0.036713300736182994    
  0.042182144226891545    0.049649486645702824    0.05943607779977145    0.0718878184793255    0.08729304413363631    
  0.10578197899271313    0.1272465992263641    0.1512916659886303    0.17718666848331313    0.2037968456825532    
  0.2295435969724187    0.2524985095038692    0.27065778856999995    0.2823071721729737    0.2863197492408158    
  0.2523808502904892    0.24895887350666088    0.23901287834670654    0.22347879756264546    0.20379684568255327    
  0.18166741968116065    0.15873691410526616    0.1363564534084723    0.1155001664962993    0.09680291733009361    
  0.08062114699795846    0.06706991494021178    0.05605856781751765    0.04735658597972046    0.04068105412253849    
  0.03576906462804585    0.03241182872562995    0.030459400273209383    0.029819199741012013    0.030459400273209425    
  0.03241182872562995    0.03576906462804583    0.0406810541225385    0.047356585979720506    0.056058567817517634    
  0.06706991494021179    0.08062114699795846    0.0968029173300936    0.1155001664962993    0.13635645340847236    
  0.15873691410526616    0.18166741968116065    0.20379684568255327    0.22347879756264546    0.23901287834670656    
  0.24895887350666088    0.2523808502904892    0.21745981066749703    0.21463481598877088    0.20641320488862075    
  0.19354239516418556    0.1771866684833131    0.15873691410526616    0.1395525419842475    0.1207573451794841    
  0.10316798695546477    0.08732447896137992    0.07354026432170613    0.06193057738822349    0.0524388484768232    
  0.044889958745876125    0.039063441823443776    0.034753801800277165    0.0317972870703565    0.030074251631379317    
  0.029508779254236908    0.030074251631379344    0.0317972870703565    0.034753801800277144    0.039063441823443776    
  0.04488995874587615    0.0524388484768232    0.061930577388223475    0.07354026432170613    0.08732447896137989    
  0.10316798695546477    0.12075734517948407    0.13955254198424746    0.15873691410526616    0.17718666848331313    
  0.19354239516418564    0.20641320488862075    0.21463481598877088    0.21745981066749703    0.183668665143179    
  0.18140770459745223    0.1748187810667216    0.16447786300856534    0.15129166598863025    0.13635645340847244    
  0.12075734517948397    0.10540363589759617    0.09096588921512554    0.07789483250293965    0.06645868928454804    
  0.05676556884815623    0.04878524327217578    0.042392292771644295    0.03742448611084367    0.03372970864336138    
  0.03118538691947224    0.02969942951135107    0.029211339161896298    0.02969942951135106    0.03118538691947224    
  0.03372970864336139    0.03742448611084367    0.04239229277164434    0.04878524327217575    0.05676556884815625    
  0.06645868928454804    0.07789483250293963    0.09096588921512554    0.10540363589759615    0.12075734517948397    
  0.1363564534084723    0.15129166598863025    0.16447786300856537    0.1748187810667216    0.18140770459745223    
  0.183668665143179    0.15251848204009053    0.15076153379143747    0.14563509558738977    0.13756943961751103    
  0.12724659922636408    0.1155001664962993    0.1031679869554648    0.09096588921512555    0.07943258838941059    
  0.06893589109231103    0.059697594181622356    0.051812594162193484    0.04526948419208668    0.03998543581983121    
  0.035849652789614876    0.03275658152723494    0.03061877743259671    0.02936765954736455    0.028956342989427106    
  0.029367659547364592    0.0306187774325967    0.03275658152723491    0.035849652789614876    0.03998543581983126    
  0.04526948419208668    0.051812594162193505    0.059697594181622356    0.06893589109231103    0.07943258838941059    
  0.09096588921512552    0.1031679869554648    0.11550016649629927    0.12724659922636408    0.13756943961751106    
  0.14563509558738977    0.15076153379143747    0.15251848204009053    0.12495132115865991    0.12362421253506592    
  0.11974779852146326    0.1136346925239172    0.1057819789927131    0.09680291733009365    0.08732447896137993    
  0.07789483250293963    0.0689358910923111    0.06073912712376112    0.053480558670560494    0.047238438013983766    
  0.042013952439233795    0.0377587529656187    0.03440429812615234    0.03188253137666295    0.03013375303802071    
  0.029108282704189217    0.02877083331013503    0.029108282704189255    0.030133753038020687    0.03188253137666288    
  0.03440429812615234    0.03775875296561876    0.0420139524392338    0.047238438013983815    0.053480558670560494    
  0.06073912712376111    0.0689358910923111    0.0778948325029396    0.08732447896137993    0.0968029173300936    
  0.1057819789927131    0.11363469252391722    0.11974779852146326    0.12362421253506586    0.12495132115865991    
  0.10142943047156433    0.10045467105134374    0.09760462194533875    0.09310015999755217    0.08729304413363623    
  0.08062114699795837    0.07354026432170606    0.06645868928454803    0.05969759418162231    0.05348055867056042    
  0.047941747233631885    0.04314247852389915    0.03909139768325657    0.03576535873880894    0.03312696778875211    
  0.031135363666162402    0.029750813047735178    0.028937694630245214    0.02866991197923473    0.028937694630245238    
  0.029750813047735178    0.031135363666162378    0.03312696778875211    0.03576535873880902    0.03909139768325657    
  0.04314247852389917    0.047941747233631885    0.05348055867056041    0.05969759418162231    0.066458689284548    
  0.07354026432170606    0.08062114699795835    0.08729304413363623    0.09310015999755221    0.09760462194533875    
  0.1004546710513437    0.10142943047156433    0.08202133685141674    0.08132538515879782    0.07928845382546812    
  0.07606199078628634    0.0718878184793255    0.06706991494021183    0.06193057738822344    0.05676556884815623    
  0.051812594162193484    0.04723843801398379    0.04314247852389921    0.03957101228186959    0.03653549249015756    
  0.03402809586119822    0.032031119522348384    0.030521091388485095    0.029471117904913906    0.02885469084152996    
  0.028651734796561662    0.02885469084152996    0.029471117904913906    0.03052109138848499    0.032031119522348384    
  0.03402809586119827    0.03653549249015759    0.039571012281869586    0.04314247852389921    0.04723843801398378    
  0.051812594162193484    0.05676556884815621    0.06193057738822344    0.0670699149402118    0.0718878184793255    
  0.07606199078628637    0.07928845382546813    0.08132538515879777    0.08202133685141674    0.06649198598745668    
  0.066009223111882    0.06459487615063286    0.06234991720187265    0.0594360777997714    0.056058567817517696    
  0.0524388484768232    0.04878524327217584    0.045269484192086706    0.042013952439233795    0.0390913976832566    
  0.03653549249015752    0.03435614850940613    0.032551815459760484    0.031114731223364497    0.030031127682060794    
  0.029281376576780652    0.02884350046554398    0.02869981266870885    0.028843500465544025    0.02928137657678064    
  0.03003112768206075    0.031114731223364497    0.03255181545976053    0.03435614850940613    0.03653549249015756    
  0.0390913976832566    0.04201395243923378    0.04526948419208669    0.048785243272175795    0.05243884847682318    
  0.05605856781751765    0.059436077799771427    0.06234991720187266    0.06459487615063288    0.066009223111882    
  0.06649198598745668    0.05441593185790083    0.054090544390625904    0.05313680662071802    0.05162113976266021    
  0.04964948664570283    0.04735658597972047    0.04488995874587603    0.04239229277164433    0.03998543581983123    
  0.03775875296561874    0.03576535873880898    0.03402809586119822    0.0325518154597605    0.031334425658645366    
  0.030371148822942565    0.029652742548229576    0.02916316262140567    0.028881714074878138    0.028790309218449103    
  0.028881714074878138    0.02916316262140567    0.029652742548229482    0.030371148822942555    0.031334425658645415    
  0.0325518154597605    0.034028095861198246    0.03576535873880898    0.03775875296561873    0.03998543581983123    
  0.042392292771644295    0.04488995874587603    0.04735658597972044    0.04964948664570283    0.05162113976266021    
  0.05313680662071802    0.05409054439062588    0.05441593185790083    0.045301429236174445    0.045088062565282715    
  0.044463297463919804    0.043471644042765545    0.04218214422689146    0.04068105412253852    0.03906344182344377    
  0.037424486110843716    0.03584965278961489    0.03440429812615237    0.033126967788752175    0.03203111952234836    
  0.03111473122336463    0.030371148822942555    0.029794047787103036    0.029375140637126755    0.029099830844436774    
  0.028947622479303305    0.02889949572738041    0.02894762247930328    0.029099830844436774    0.029375140637126734    
  0.029794047787103036    0.03037114882294259    0.03111473122336463    0.03203111952234841    0.033126967788752175    
  0.03440429812615237    0.03584965278961489    0.037424486110843695    0.03906344182344377    0.04068105412253849    
  0.04218214422689146    0.04347164404276553    0.0444632974639198    0.045088062565282694    0.045301429236174445    
  0.038692026481259315    0.03855528120163151    0.03815644710275764    0.03752716915224722    0.036713300736182945    
  0.03576906462804583    0.03475380180027713    0.03372970864336134    0.03275658152723494    0.031882531376662915    
  0.031135363666162496    0.030521091388485015    0.030031127682060774    0.02965274254822953    0.029375140637126734    
  0.029188098413141426    0.029077232400469    0.029023116540869847    0.029007590199546737    0.029023116540869892    
  0.029077232400469    0.029188098413141378    0.029375140637126755    0.029652742548229624    0.030031127682060774    
  0.030521091388485015    0.03113536366616247    0.0318825313766629    0.03275658152723494    0.03372970864336133    
  0.03475380180027711    0.035769064628045806    0.03671330073618294    0.03752716915224721    0.038156447102757625    
  0.03855528120163149    0.038692026481259315    0.03422365923058578    0.034136313812413194    0.03388368528750415    
  0.033490345805650794    0.03298833011866733    0.032411828725630025    0.03179728707035648    0.0311853869194723    
  0.0306187774325967    0.030133753038020676    0.029750813047735247    0.02947111790491388    0.029281376576780663    
  0.029163162621405645    0.029099830844436774    0.029077232400469    0.029080482375981574    0.02909262593572178    
  0.02909870958869122    0.029092625935721823    0.029080482375981574    0.029077232400468955    0.029099830844436774    
  0.029163162621405694    0.029281376576780663    0.029471117904913906    0.029750813047735247    0.030133753038020662    
  0.0306187774325967    0.031185386919472282    0.03179728707035648    0.03241182872562995    0.03298833011866732    
  0.033490345805650794    0.03388368528750415    0.03413631381241316    0.03422365923058578    0.031641585255726516    
  0.03158195916663189    0.03141157412740619    0.03115148274450489    0.030826366778664308    0.03045940027320945    
  0.030074251631379327    0.029699429511351138    0.029367659547364557    0.029108282704189192    0.028937694630245227    
  0.02885469084153003    0.02884350046554405    0.028881714074878186    0.028947622479303256    0.02902311654086994    
  0.02909262593572178    0.02914191162064834    0.02915979850864183    0.029141911620648386    0.02909262593572178    
  0.029023116540869892    0.028947622479303256    0.02888171407487828    0.02884350046554405    0.02885469084153003    
  0.028937694630245227    0.029108282704189182    0.029367659547364557    0.029699429511351093    0.030074251631379327    
  0.03045940027320939    0.030826366778664308    0.0311514827445049    0.031411574127406174    0.03158195916663192    
  0.031641585255726516    0.030797148624669844    0.030746475437605336    0.030602683398781406    0.03038575176200789    
  0.030118041658289435    0.029819199741012107    0.0295087792542369    0.029211339161896357    0.028956342989427106    
  0.028770833310135035    0.02866991197923473    0.028651734796561613    0.028699812668708885    0.028790309218449127    
  0.028899495727380386    0.02900759019954683    0.029098709588691173    0.029159798508641806    0.029181361117541816    
  0.029159798508641806    0.029098709588691173    0.029007590199546785    0.028899495727380386    0.028790309218449175    
  0.028699812668708885    0.028651734796561613    0.02866991197923473    0.02877083331013503    0.028956342989427106    
  0.029211339161896357    0.0295087792542369    0.02981919974101205    0.030118041658289435    0.0303857517620079    
  0.030602683398781406    0.030746475437605336    0.030797148624669844    0.03164158525572652    0.031581959166631916    
  0.031411574127406194    0.0311514827445049    0.030826366778664283    0.03045940027320939    0.030074251631379292    
  0.0296994295113511    0.029367659547364575    0.029108282704189237    0.02893769463024525    0.02885469084152996    
  0.028843500465544073    0.028881714074878207    0.028947622479303256    0.029023116540869916    0.02909262593572173    
  0.02914191162064841    0.02915979850864183    0.029141911620648386    0.02909262593572173    0.029023116540869868    
  0.02894762247930328    0.02888171407487828    0.028843500465544073    0.028854690841530004    0.02893769463024525    
  0.029108282704189227    0.029367659547364575    0.02969942951135108    0.030074251631379292    0.03045940027320933    
  0.030826366778664283    0.031151482744504917    0.0314115741274062    0.03158195916663191    0.03164158525572652    
  0.03422365923058578    0.03413631381241319    0.033883685287504156    0.03349034580565078    0.03298833011866732    
  0.032411828725630025    0.03179728707035648    0.0311853869194723    0.030618777432596708    0.030133753038020676    
  0.029750813047735247    0.02947111790491388    0.029281376576780663    0.029163162621405645    0.029099830844436774    
  0.029077232400469    0.029080482375981574    0.02909262593572178    0.029098709588691266    0.029092625935721823    
  0.029080482375981574    0.029077232400469    0.029099830844436774    0.029163162621405694    0.029281376576780663    
  0.029471117904913916    0.029750813047735247    0.030133753038020662    0.0306187774325967    0.031185386919472282    
  0.03179728707035648    0.03241182872562995    0.03298833011866733    0.0334903458056508    0.033883685287504156    
  0.03413631381241316    0.03422365923058578    0.03869202648125936    0.03855528120163149    0.03815644710275762    
  0.03752716915224721    0.03671330073618296    0.03576906462804585    0.03475380180027712    0.03372970864336139    
  0.032756581527234936    0.0318825313766629    0.03113536366616245    0.03052109138848505    0.030031127682060774    
  0.029652742548229576    0.02937514063712671    0.029188098413141426    0.029077232400468975    0.0290231165408698    
  0.029007590199546785    0.029023116540869823    0.029077232400469    0.029188098413141378    0.02937514063712671    
  0.029652742548229635    0.030031127682060774    0.030521091388485095    0.03113536366616247    0.031882531376662894    
  0.032756581527234936    0.03372970864336134    0.03475380180027712    0.035769064628045806    0.03671330073618297    
  0.03752716915224721    0.03815644710275762    0.03855528120163152    0.03869202648125936    0.045301429236174445    
  0.045088062565282715    0.04446329746391979    0.04347164404276553    0.04218214422689146    0.04068105412253852    
  0.039063441823443755    0.037424486110843716    0.03584965278961489    0.03440429812615237    0.033126967788752175    
  0.03203111952234838    0.03111473122336463    0.030371148822942555    0.029794047787103036    0.029375140637126755    
  0.0290998308444368    0.028947622479303305    0.02889949572738041    0.02894762247930328    0.029099830844436774    
  0.029375140637126734    0.029794047787103036    0.03037114882294259    0.03111473122336463    0.03203111952234841    
  0.033126967788752175    0.03440429812615237    0.03584965278961489    0.037424486110843695    0.039063441823443755    
  0.04068105412253849    0.04218214422689146    0.043471644042765545    0.04446329746391981    0.045088062565282694    
  0.045301429236174445    0.05441593185790083    0.054090544390625904    0.053136806620718006    0.05162113976266021    
  0.04964948664570282    0.047356585979720436    0.04488995874587609    0.04239229277164434    0.03998543581983121    
  0.03775875296561873    0.035765358738809004    0.034028095861198246    0.0325518154597605    0.031334425658645415    
  0.03037114882294258    0.029652742548229576    0.02916316262140574    0.028881714074878138    0.028790309218449127    
  0.028881714074878186    0.02916316262140574    0.029652742548229482    0.030371148822942555    0.031334425658645415    
  0.0325518154597605    0.034028095861198246    0.035765358738809    0.037758752965618717    0.03998543581983121    
  0.04239229277164426    0.04488995874587609    0.04735658597972044    0.04964948664570282    0.05162113976266021    
  0.053136806620718006    0.05409054439062588    0.05441593185790083    0.06649198598745668    0.066009223111882    
  0.06459487615063286    0.06234991720187265    0.059436077799771427    0.056058567817517696    0.052438848476823174    
  0.04878524327217584    0.04526948419208669    0.042013952439233795    0.0390913976832566    0.036535492490157535    
  0.03435614850940613    0.032551815459760484    0.031114731223364497    0.030031127682060794    0.02928137657678064    
  0.02884350046554398    0.02869981266870885    0.028843500465544025    0.029281376576780652    0.03003112768206075    
  0.031114731223364497    0.03255181545976053    0.03435614850940613    0.03653549249015756    0.0390913976832566    
  0.04201395243923378    0.045269484192086706    0.048785243272175795    0.0524388484768232    0.05605856781751765    
  0.0594360777997714    0.06234991720187266    0.06459487615063286    0.066009223111882    0.06649198598745668    
  0.08202133685141676    0.08132538515879785    0.07928845382546813    0.07606199078628641    0.07188781847932545    
  0.06706991494021179    0.06193057738822342    0.05676556884815628    0.0518125941621935    0.04723843801398378    
  0.04314247852389921    0.03957101228186958    0.03653549249015756    0.03402809586119822    0.032031119522348384    
  0.030521091388485085    0.029471117904913906    0.02885469084152996    0.028651734796561624    0.02885469084152996    
  0.02947111790491388    0.03052109138848506    0.032031119522348384    0.03402809586119827    0.03653549249015759    
  0.03957101228186961    0.04314247852389921    0.04723843801398377    0.051812594162193526    0.05676556884815625    
  0.06193057738822342    0.06706991494021179    0.07188781847932545    0.07606199078628641    0.07928845382546813    
  0.08132538515879778    0.08202133685141676    0.10142943047156433    0.10045467105134374    0.09760462194533875    
  0.0931001599975522    0.08729304413363623    0.08062114699795837    0.07354026432170606    0.06645868928454803    
  0.05969759418162231    0.05348055867056042    0.047941747233631885    0.04314247852389915    0.03909139768325657    
  0.03576535873880894    0.03312696778875211    0.031135363666162402    0.029750813047735178    0.028937694630245214    
  0.02866991197923473    0.028937694630245238    0.029750813047735178    0.031135363666162378    0.03312696778875211    
  0.03576535873880902    0.03909139768325657    0.04314247852389917    0.047941747233631885    0.05348055867056041    
  0.05969759418162231    0.066458689284548    0.07354026432170606    0.08062114699795835    0.08729304413363623    
  0.09310015999755221    0.09760462194533875    0.1004546710513437    0.10142943047156433    0.12495132115865991    
  0.12362421253506592    0.11974779852146326    0.11363469252391717    0.1057819789927131    0.09680291733009365    
  0.08732447896137992    0.07789483250293963    0.0689358910923111    0.06073912712376112    0.053480558670560494    
  0.047238438013983766    0.042013952439233795    0.03775875296561871    0.03440429812615234    0.031882531376662936    
  0.03013375303802072    0.02910828270418921    0.02877083331013503    0.029108282704189255    0.030133753038020697    
  0.031882531376662866    0.03440429812615234    0.03775875296561875    0.042013952439233795    0.047238438013983815    
  0.053480558670560494    0.06073912712376111    0.0689358910923111    0.0778948325029396    0.08732447896137992    
  0.0968029173300936    0.1057819789927131    0.1136346925239172    0.11974779852146326    0.12362421253506586    
  0.12495132115865991    0.15251848204009053    0.15076153379143747    0.14563509558738977    0.13756943961751103    
  0.12724659922636408    0.1155001664962993    0.1031679869554648    0.09096588921512555    0.07943258838941059    
  0.06893589109231103    0.059697594181622356    0.051812594162193484    0.04526948419208668    0.03998543581983121    
  0.035849652789614876    0.03275658152723494    0.0306187774325967    0.02936765954736455    0.028956342989427106    
  0.029367659547364592    0.03061877743259671    0.03275658152723491    0.035849652789614876    0.03998543581983126    
  0.04526948419208668    0.051812594162193505    0.059697594181622356    0.06893589109231103    0.07943258838941059    
  0.09096588921512552    0.1031679869554648    0.11550016649629927    0.12724659922636408    0.13756943961751106    
  0.14563509558738977    0.15076153379143747    0.15251848204009053    0.183668665143179    0.18140770459745223    
  0.17481878106672158    0.16447786300856537    0.15129166598863025    0.13635645340847238    0.12075734517948404    
  0.10540363589759612    0.09096588921512548    0.07789483250293962    0.066458689284548    0.05676556884815623    
  0.04878524327217579    0.04239229277164428    0.03742448611084368    0.03372970864336136    0.031185386919472254    
  0.02969942951135108    0.029211339161896298    0.029699429511351138    0.031185386919472254    0.03372970864336134    
  0.03742448611084368    0.04239229277164434    0.04878524327217577    0.05676556884815628    0.066458689284548    
  0.0778948325029396    0.09096588921512551    0.10540363589759612    0.120757345179484    0.13635645340847236    
  0.15129166598863025    0.1644778630085654    0.17481878106672158    0.18140770459745217    0.183668665143179    
  0.21745981066749703    0.21463481598877088    0.20641320488862075    0.19354239516418556    0.17718666848331313    
  0.15873691410526616    0.13955254198424746    0.1207573451794841    0.10316798695546477    0.08732447896137992    
  0.07354026432170613    0.06193057738822349    0.0524388484768232    0.044889958745876125    0.039063441823443776    
  0.034753801800277165    0.031797287070356485    0.030074251631379317    0.029508779254236908    0.030074251631379344    
  0.03179728707035649    0.034753801800277144    0.039063441823443776    0.04488995874587615    0.0524388484768232    
  0.061930577388223475    0.07354026432170613    0.08732447896137989    0.10316798695546477    0.12075734517948407    
  0.13955254198424746    0.15873691410526616    0.1771866684833131    0.19354239516418564    0.20641320488862075    
  0.21463481598877088    0.21745981066749703    0.2523808502904892    0.24895887350666088    0.23901287834670654    
  0.22347879756264546    0.20379684568255327    0.18166741968116068    0.15873691410526608    0.13635645340847236    
  0.11550016649629932    0.09680291733009361    0.08062114699795841    0.06706991494021178    0.05605856781751765    
  0.0473565859797204    0.040681054122538446    0.035769064628045855    0.03241182872562993    0.03045940027320935    
  0.029819199741012034    0.0304594002732094    0.03241182872562993    0.03576906462804581    0.040681054122538446    
  0.047356585979720464    0.05605856781751765    0.06706991494021179    0.08062114699795841    0.0968029173300936    
  0.11550016649629932    0.13635645340847236    0.15873691410526608    0.1816674196811606    0.20379684568255327    
  0.22347879756264546    0.23901287834670654    0.24895887350666093    0.2523808502904892    0.2863197492408158    
  0.28230717217297374    0.27065778856999995    0.25249850950386915    0.2295435969724187    0.20379684568255332    
  0.17718666848331313    0.1512916659886303    0.1272465992263641    0.10578197899271313    0.08729304413363631    
  0.0718878184793255    0.05943607779977145    0.049649486645702845    0.042182144226891545    0.03671330073618302    
  0.03298833011866732    0.030826366778664318    0.03011804165828948    0.030826366778664356    0.03298833011866732    
  0.036713300736182994    0.04218214422689155    0.049649486645702824    0.05943607779977145    0.0718878184793255    
  0.08729304413363631    0.10578197899271313    0.1272465992263641    0.1512916659886303    0.17718666848331313    
  0.2037968456825532    0.2295435969724187    0.25249850950386926    0.27065778856999995    0.2823071721729737    