
     Program PWSCF v.6.5 starts on 10Jul2023 at 22:17:53 

     This program is part of the open-source Quantum ESPRESSO suite
     for quantum simulation of materials; please cite
         "P. Giannozzi et al., J. Phys.:Condens. Matter 21 395502 (2009);
         "P. Giannozzi et al., J. Phys.:Condens. Matter 29 465901 (2017);
          URL http://www.quantum-espresso.org", 
     in publications or presentations arising from this work. More details at
     http://www.quantum-espresso.org/quote

     Serial version
     Reading input from /home/valeria/Documents/DFTPY/cWT-KEDF/Phases/Model_ML_function/Ks_calculations/DATA_bct5/Si_bct529.in
Warning: card &IONS ignored
Warning: card / ignored
Warning: card &CELL ignored
Warning: card / ignored
Warning: card &FCP ignored
Warning: card / ignored
Warning: card &RISM ignored
Warning: card / ignored

     Current dimensions of program PWSCF are:
     Max number of different atomic species (ntypx) = 10
     Max number of k-points (npk) =  40000
     Max angular momentum in pseudopotentials (lmaxx) =  3

     WARNING: check_stop already initialized
     Found symmetry operation: I + (  0.5000  0.5000  0.5000)
     This is a supercell, fractional translations are disabled
     Message from routine setup:
     using ibrav=0 with symmetry is DISCOURAGED, use correct ibrav instead

     G-vector sticks info
     --------------------
     sticks:   dense  smooth     PW     G-vecs:    dense   smooth      PW
     Sum        1481    1481    421                78727    78727   11951



     bravais-lattice index     =            0
     lattice parameter (alat)  =       8.8090  a.u.
     unit-cell volume          =    1252.3016 (a.u.)^3
     number of atoms/cell      =            4
     number of atomic types    =            1
     number of electrons       =        16.00
     number of Kohn-Sham states=           12
     kinetic-energy cutoff     =      60.0000  Ry
     charge density cutoff     =     240.0000  Ry
     convergence threshold     =      1.0E-06
     mixing beta               =       0.7000
     number of iterations used =            8  plain     mixing
     Exchange-correlation= LDA
                           (   1   1   0   0   0   0   0)

     celldm(1)=   8.808993  celldm(2)=   0.000000  celldm(3)=   0.000000
     celldm(4)=   0.000000  celldm(5)=   0.000000  celldm(6)=   0.000000

     crystal axes: (cart. coord. in units of alat)
               a(1) = (   1.000000  -0.000000   0.000000 )  
               a(2) = (  -0.000000   1.000000   0.000000 )  
               a(3) = (   0.000000   0.000000   1.832019 )  

     reciprocal axes: (cart. coord. in units 2 pi/alat)
               b(1) = (  1.000000  0.000000 -0.000000 )  
               b(2) = (  0.000000  1.000000 -0.000000 )  
               b(3) = ( -0.000000 -0.000000  0.545846 )  


     PseudoPot. # 1 for Si read from file:
     /home/valeria/Desktop/programs/dftpy/examples/ofpp/EAC/upf/blps/si.lda.upf
     MD5 check sum: 946fc5a8d23174f015515f8139e499ed
     Pseudo is Norm-conserving, Zval =  4.0
     DFTpy
     Using radial grid of 1601 points,  1 beta functions with: 
                l(1) =   0

     atomic species   valence    mass     pseudopotential
        Si             4.00    28.08000     Si( 1.00)

     16 Sym. Ops., with inversion, found



   Cartesian axes

     site n.     atom                  positions (alat units)
         1           Si  tau(   1) = (   0.5000000   0.5000000   0.5629690  )
         2           Si  tau(   2) = (   0.0000000  -0.0000000   0.3530407  )
         3           Si  tau(   3) = (   0.0000000   0.0000000   1.4789787  )
         4           Si  tau(   4) = (   0.5000000   0.5000000   1.2690504  )

     number of k points=   550  Gaussian smearing, width (Ry)=  0.0050

     Number of k-points >= 100: set verbosity='high' to print them.

     Dense  grid:    78727 G-vectors     FFT dimensions: (  45,  45,  80)

     Estimated max dynamical RAM per process >       1.03 GB

     Initial potential from superposition of free atoms

     starting charge   15.99744, renormalised to   16.00000
     Starting wfcs are random

     total cpu time spent up to now is       63.3 secs

     Self-consistent Calculation

     iteration #  1     ecut=    60.00 Ry     beta= 0.70
     Davidson diagonalization with overlap
     ethr =  1.00E-02,  avg # of iterations =  7.7

     Threshold (ethr) on eigenvalues was too large:
     Diagonalizing with lowered threshold

     Davidson diagonalization with overlap
     ethr =  1.56E-04,  avg # of iterations =  3.1

     total cpu time spent up to now is      746.8 secs

     total energy              =     -31.51541222 Ry
     Harris-Foulkes estimate   =     -31.52371620 Ry
     estimated scf accuracy    <       0.02481913 Ry

     iteration #  2     ecut=    60.00 Ry     beta= 0.70
     Davidson diagonalization with overlap
     ethr =  1.55E-04,  avg # of iterations =  1.0

     total cpu time spent up to now is      895.0 secs

     total energy              =     -31.51719999 Ry
     Harris-Foulkes estimate   =     -31.51727951 Ry
     estimated scf accuracy    <       0.00091202 Ry

     iteration #  3     ecut=    60.00 Ry     beta= 0.70
     Davidson diagonalization with overlap
     ethr =  5.70E-06,  avg # of iterations =  5.7

     total cpu time spent up to now is     1154.0 secs

     total energy              =     -31.51742708 Ry
     Harris-Foulkes estimate   =     -31.51744478 Ry
     estimated scf accuracy    <       0.00006627 Ry

     iteration #  4     ecut=    60.00 Ry     beta= 0.70
     Davidson diagonalization with overlap
     ethr =  4.14E-07,  avg # of iterations =  2.1

     total cpu time spent up to now is     1324.4 secs

     total energy              =     -31.51742374 Ry
     Harris-Foulkes estimate   =     -31.51744190 Ry
     estimated scf accuracy    <       0.00003229 Ry

     iteration #  5     ecut=    60.00 Ry     beta= 0.70
     Davidson diagonalization with overlap
     ethr =  2.02E-07,  avg # of iterations =  3.0

     total cpu time spent up to now is     1509.5 secs

     total energy              =     -31.51742061 Ry
     Harris-Foulkes estimate   =     -31.51745633 Ry
     estimated scf accuracy    <       0.00015885 Ry

     iteration #  6     ecut=    60.00 Ry     beta= 0.70
     Davidson diagonalization with overlap
     ethr =  2.02E-07,  avg # of iterations =  2.1

     total cpu time spent up to now is     1680.4 secs

     End of self-consistent calculation

     Number of k-points >= 100: set verbosity='high' to print the bands.

     the Fermi energy is     0.0165 ev

!    total energy              =     -31.51743738 Ry
     Harris-Foulkes estimate   =     -31.51743749 Ry
     estimated scf accuracy    <       0.00000017 Ry

     The total energy is the sum of the following terms:

     one-electron contribution =      -0.36936596 Ry
     hartree contribution      =       3.13564536 Ry
     xc contribution           =      -8.05534605 Ry
     ewald contribution        =     -26.22720297 Ry
     smearing contrib. (-TS)   =      -0.00116775 Ry

     convergence has been achieved in   6 iterations

 Energies determined by pw2casino tool
 -------------------------------------
 Kinetic energy      4.6568013312343215       au  =     9.3136026624686430       Ry
 Local energy       -4.8414843125503246       au  =    -9.6829686251006493       Ry
 Non-Local energy    0.0000000000000000       au  =     0.0000000000000000       Ry
 Ewald energy       -13.113601483638195       au  =    -26.227202967276391       Ry
 xc contribution    -4.0276730250994719       au  =    -8.0553460501989438       Ry
 hartree energy      1.5678226787270761       au  =     3.1356453574541523       Ry
 Smearing (-TS)     -5.8387701566003751E-004  au  =    -1.1677540313200750E-003  Ry
 Total energy       -15.758718687966024       au  =    -31.517437375932047       Ry
 -------------------------------------
 Total energy0      -15.758718688342256       au  =    -31.517437376684512       Ry
 External energy0    0.0000000000000000       au  =     0.0000000000000000       Ry
 -------------------------------------


     Writing output data file ./si.save/
