
     Program PWSCF v.6.5 starts on 10Jul2023 at 20:12: 7 

     This program is part of the open-source Quantum ESPRESSO suite
     for quantum simulation of materials; please cite
         "P. Giannozzi et al., J. Phys.:Condens. Matter 21 395502 (2009);
         "P. Giannozzi et al., J. Phys.:Condens. Matter 29 465901 (2017);
          URL http://www.quantum-espresso.org", 
     in publications or presentations arising from this work. More details at
     http://www.quantum-espresso.org/quote

     Serial version
     Reading input from /home/valeria/Documents/DFTPY/cWT-KEDF/Phases/Model_ML_function/Ks_calculations/DATA_bct5/Si_bct524.in
Warning: card &IONS ignored
Warning: card / ignored
Warning: card &CELL ignored
Warning: card / ignored
Warning: card &FCP ignored
Warning: card / ignored
Warning: card &RISM ignored
Warning: card / ignored

     Current dimensions of program PWSCF are:
     Max number of different atomic species (ntypx) = 10
     Max number of k-points (npk) =  40000
     Max angular momentum in pseudopotentials (lmaxx) =  3

     WARNING: check_stop already initialized
     Found symmetry operation: I + (  0.5000  0.5000  0.5000)
     This is a supercell, fractional translations are disabled
     Message from routine setup:
     using ibrav=0 with symmetry is DISCOURAGED, use correct ibrav instead

     G-vector sticks info
     --------------------
     sticks:   dense  smooth     PW     G-vecs:    dense   smooth      PW
     Sum        1273    1273    365                62425    62425    9595



     bravais-lattice index     =            0
     lattice parameter (alat)  =       8.1581  a.u.
     unit-cell volume          =     994.7051 (a.u.)^3
     number of atoms/cell      =            4
     number of atomic types    =            1
     number of electrons       =        16.00
     number of Kohn-Sham states=           12
     kinetic-energy cutoff     =      60.0000  Ry
     charge density cutoff     =     240.0000  Ry
     convergence threshold     =      1.0E-06
     mixing beta               =       0.7000
     number of iterations used =            8  plain     mixing
     Exchange-correlation= LDA
                           (   1   1   0   0   0   0   0)

     celldm(1)=   8.158083  celldm(2)=   0.000000  celldm(3)=   0.000000
     celldm(4)=   0.000000  celldm(5)=   0.000000  celldm(6)=   0.000000

     crystal axes: (cart. coord. in units of alat)
               a(1) = (   1.000000  -0.000000   0.000000 )  
               a(2) = (  -0.000000   1.000000   0.000000 )  
               a(3) = (   0.000000   0.000000   1.832019 )  

     reciprocal axes: (cart. coord. in units 2 pi/alat)
               b(1) = (  1.000000  0.000000 -0.000000 )  
               b(2) = (  0.000000  1.000000 -0.000000 )  
               b(3) = ( -0.000000 -0.000000  0.545846 )  


     PseudoPot. # 1 for Si read from file:
     /home/valeria/Desktop/programs/dftpy/examples/ofpp/EAC/upf/blps/si.lda.upf
     MD5 check sum: 946fc5a8d23174f015515f8139e499ed
     Pseudo is Norm-conserving, Zval =  4.0
     DFTpy
     Using radial grid of 1601 points,  1 beta functions with: 
                l(1) =   0

     atomic species   valence    mass     pseudopotential
        Si             4.00    28.08000     Si( 1.00)

     16 Sym. Ops., with inversion, found



   Cartesian axes

     site n.     atom                  positions (alat units)
         1           Si  tau(   1) = (   0.5000000   0.5000000   0.5629690  )
         2           Si  tau(   2) = (   0.0000000  -0.0000000   0.3530407  )
         3           Si  tau(   3) = (   0.0000000   0.0000000   1.4789787  )
         4           Si  tau(   4) = (   0.5000000   0.5000000   1.2690504  )

     number of k points=   550  Gaussian smearing, width (Ry)=  0.0050

     Number of k-points >= 100: set verbosity='high' to print them.

     Dense  grid:    62425 G-vectors     FFT dimensions: (  45,  45,  75)

     Estimated max dynamical RAM per process >     836.21 MB

     Initial potential from superposition of free atoms

     starting charge   15.99744, renormalised to   16.00000
     Starting wfcs are random

     total cpu time spent up to now is       54.9 secs

     Self-consistent Calculation

     iteration #  1     ecut=    60.00 Ry     beta= 0.70
     Davidson diagonalization with overlap
     ethr =  1.00E-02,  avg # of iterations =  7.6

     Threshold (ethr) on eigenvalues was too large:
     Diagonalizing with lowered threshold

     Davidson diagonalization with overlap
     ethr =  1.36E-04,  avg # of iterations =  2.7

     total cpu time spent up to now is      639.0 secs

     total energy              =     -31.71093157 Ry
     Harris-Foulkes estimate   =     -31.71668035 Ry
     estimated scf accuracy    <       0.02151360 Ry

     iteration #  2     ecut=    60.00 Ry     beta= 0.70
     Davidson diagonalization with overlap
     ethr =  1.34E-04,  avg # of iterations =  1.0

     total cpu time spent up to now is      743.8 secs

     total energy              =     -31.71182766 Ry
     Harris-Foulkes estimate   =     -31.71196380 Ry
     estimated scf accuracy    <       0.00106096 Ry

     iteration #  3     ecut=    60.00 Ry     beta= 0.70
     Davidson diagonalization with overlap
     ethr =  6.63E-06,  avg # of iterations =  5.2

     total cpu time spent up to now is      903.7 secs

     total energy              =     -31.71194726 Ry
     Harris-Foulkes estimate   =     -31.71195209 Ry
     estimated scf accuracy    <       0.00002396 Ry

     iteration #  4     ecut=    60.00 Ry     beta= 0.70
     Davidson diagonalization with overlap
     ethr =  1.50E-07,  avg # of iterations =  3.2

     total cpu time spent up to now is     1084.7 secs

     total energy              =     -31.71195803 Ry
     Harris-Foulkes estimate   =     -31.71196146 Ry
     estimated scf accuracy    <       0.00000547 Ry

     iteration #  5     ecut=    60.00 Ry     beta= 0.70
     Davidson diagonalization with overlap
     ethr =  3.42E-08,  avg # of iterations =  2.9

     total cpu time spent up to now is     1237.6 secs

     total energy              =     -31.71195791 Ry
     Harris-Foulkes estimate   =     -31.71196291 Ry
     estimated scf accuracy    <       0.00001699 Ry

     iteration #  6     ecut=    60.00 Ry     beta= 0.70
     Davidson diagonalization with overlap
     ethr =  3.42E-08,  avg # of iterations =  2.0

     total cpu time spent up to now is     1384.0 secs

     End of self-consistent calculation

     Number of k-points >= 100: set verbosity='high' to print the bands.

     the Fermi energy is     1.1965 ev

!    total energy              =     -31.71196015 Ry
     Harris-Foulkes estimate   =     -31.71196019 Ry
     estimated scf accuracy    <       0.00000006 Ry

     The total energy is the sum of the following terms:

     one-electron contribution =       2.38421743 Ry
     hartree contribution      =       2.52731612 Ry
     xc contribution           =      -8.30287171 Ry
     ewald contribution        =     -28.31979895 Ry
     smearing contrib. (-TS)   =      -0.00082304 Ry

     convergence has been achieved in   6 iterations

 Energies determined by pw2casino tool
 -------------------------------------
 Kinetic energy      4.7867013332323145       au  =     9.5734026664646290       Ry
 Local energy       -3.5945926181801950       au  =    -7.1891852363603901       Ry
 Non-Local energy    0.0000000000000000       au  =     0.0000000000000000       Ry
 Ewald energy       -14.159899474004579       au  =    -28.319798948009158       Ry
 xc contribution    -4.1514358564601377       au  =    -8.3028717129202754       Ry
 hartree energy      1.2636580591522111       au  =     2.5273161183044222       Ry
 Smearing (-TS)     -4.1152048004365843E-004  au  =    -8.2304096008731687E-004  Ry
 Total energy       -15.855980076472836       au  =    -31.711960152945672       Ry
 -------------------------------------
 Total energy0      -15.855980076740430       au  =    -31.711960153480860       Ry
 External energy0    0.0000000000000000       au  =     0.0000000000000000       Ry
 -------------------------------------


     Writing output data file ./si.save/
