
     Program PWSCF v.6.5 starts on 10Jul2023 at 16:55:45 

     This program is part of the open-source Quantum ESPRESSO suite
     for quantum simulation of materials; please cite
         "P. Giannozzi et al., J. Phys.:Condens. Matter 21 395502 (2009);
         "P. Giannozzi et al., J. Phys.:Condens. Matter 29 465901 (2017);
          URL http://www.quantum-espresso.org", 
     in publications or presentations arising from this work. More details at
     http://www.quantum-espresso.org/quote

     Serial version
     Reading input from /home/valeria/Documents/DFTPY/cWT-KEDF/Phases/Model_ML_function/Ks_calculations/DATA_bct5/Si_bct56.in
Warning: card &IONS ignored
Warning: card / ignored
Warning: card &CELL ignored
Warning: card / ignored
Warning: card &FCP ignored
Warning: card / ignored
Warning: card &RISM ignored
Warning: card / ignored

     Current dimensions of program PWSCF are:
     Max number of different atomic species (ntypx) = 10
     Max number of k-points (npk) =  40000
     Max angular momentum in pseudopotentials (lmaxx) =  3

     WARNING: check_stop already initialized
     Found symmetry operation: I + (  0.5000  0.5000  0.5000)
     This is a supercell, fractional translations are disabled
     Message from routine setup:
     using ibrav=0 with symmetry is DISCOURAGED, use correct ibrav instead

     G-vector sticks info
     --------------------
     sticks:   dense  smooth     PW     G-vecs:    dense   smooth      PW
     Sum         657     657    193                22669    22669    3765



     bravais-lattice index     =            0
     lattice parameter (alat)  =       5.8148  a.u.
     unit-cell volume          =     360.1930 (a.u.)^3
     number of atoms/cell      =            4
     number of atomic types    =            1
     number of electrons       =        16.00
     number of Kohn-Sham states=           12
     kinetic-energy cutoff     =      60.0000  Ry
     charge density cutoff     =     240.0000  Ry
     convergence threshold     =      1.0E-06
     mixing beta               =       0.7000
     number of iterations used =            8  plain     mixing
     Exchange-correlation= LDA
                           (   1   1   0   0   0   0   0)

     celldm(1)=   5.814804  celldm(2)=   0.000000  celldm(3)=   0.000000
     celldm(4)=   0.000000  celldm(5)=   0.000000  celldm(6)=   0.000000

     crystal axes: (cart. coord. in units of alat)
               a(1) = (   1.000000  -0.000000   0.000000 )  
               a(2) = (  -0.000000   1.000000   0.000000 )  
               a(3) = (   0.000000   0.000000   1.832019 )  

     reciprocal axes: (cart. coord. in units 2 pi/alat)
               b(1) = (  1.000000  0.000000 -0.000000 )  
               b(2) = (  0.000000  1.000000 -0.000000 )  
               b(3) = ( -0.000000 -0.000000  0.545846 )  


     PseudoPot. # 1 for Si read from file:
     /home/valeria/Desktop/programs/dftpy/examples/ofpp/EAC/upf/blps/si.lda.upf
     MD5 check sum: 946fc5a8d23174f015515f8139e499ed
     Pseudo is Norm-conserving, Zval =  4.0
     DFTpy
     Using radial grid of 1601 points,  1 beta functions with: 
                l(1) =   0

     atomic species   valence    mass     pseudopotential
        Si             4.00    28.08000     Si( 1.00)

     16 Sym. Ops., with inversion, found



   Cartesian axes

     site n.     atom                  positions (alat units)
         1           Si  tau(   1) = (   0.5000000   0.5000000   0.5629690  )
         2           Si  tau(   2) = (   0.0000000  -0.0000000   0.3530407  )
         3           Si  tau(   3) = (   0.0000000   0.0000000   1.4789787  )
         4           Si  tau(   4) = (   0.5000000   0.5000000   1.2690504  )

     number of k points=   550  Gaussian smearing, width (Ry)=  0.0050

     Number of k-points >= 100: set verbosity='high' to print them.

     Dense  grid:    22669 G-vectors     FFT dimensions: (  30,  30,  54)

     Estimated max dynamical RAM per process >     302.45 MB

     Initial potential from superposition of free atoms

     starting charge   15.99744, renormalised to   16.00000
     Starting wfcs are random

     total cpu time spent up to now is       15.0 secs

     Self-consistent Calculation

     iteration #  1     ecut=    60.00 Ry     beta= 0.70
     Davidson diagonalization with overlap
     ethr =  1.00E-02,  avg # of iterations =  7.2

     Threshold (ethr) on eigenvalues was too large:
     Diagonalizing with lowered threshold

     Davidson diagonalization with overlap
     ethr =  3.27E-04,  avg # of iterations =  1.3

     total cpu time spent up to now is      174.3 secs

     total energy              =     -32.08615196 Ry
     Harris-Foulkes estimate   =     -32.09839345 Ry
     estimated scf accuracy    <       0.05254001 Ry

     iteration #  2     ecut=    60.00 Ry     beta= 0.70
     Davidson diagonalization with overlap
     ethr =  3.28E-04,  avg # of iterations =  1.0

     total cpu time spent up to now is      208.1 secs

     total energy              =     -32.08787268 Ry
     Harris-Foulkes estimate   =     -32.08810635 Ry
     estimated scf accuracy    <       0.00277015 Ry

     iteration #  3     ecut=    60.00 Ry     beta= 0.70
     Davidson diagonalization with overlap
     ethr =  1.73E-05,  avg # of iterations =  2.7

     total cpu time spent up to now is      246.4 secs

     total energy              =     -32.08800926 Ry
     Harris-Foulkes estimate   =     -32.08801293 Ry
     estimated scf accuracy    <       0.00003661 Ry

     iteration #  4     ecut=    60.00 Ry     beta= 0.70
     Davidson diagonalization with overlap
     ethr =  2.29E-07,  avg # of iterations =  3.4

     total cpu time spent up to now is      300.2 secs

     total energy              =     -32.08802682 Ry
     Harris-Foulkes estimate   =     -32.08802760 Ry
     estimated scf accuracy    <       0.00000159 Ry

     iteration #  5     ecut=    60.00 Ry     beta= 0.70
     Davidson diagonalization with overlap
     ethr =  9.93E-09,  avg # of iterations =  2.0

     total cpu time spent up to now is      340.8 secs

     End of self-consistent calculation

     Number of k-points >= 100: set verbosity='high' to print the bands.

     the Fermi energy is    11.0916 ev

!    total energy              =     -32.08802702 Ry
     Harris-Foulkes estimate   =     -32.08802709 Ry
     estimated scf accuracy    <       0.00000009 Ry

     The total energy is the sum of the following terms:

     one-electron contribution =      17.10740061 Ry
     hartree contribution      =       0.81481319 Ry
     xc contribution           =     -10.27781827 Ry
     ewald contribution        =     -39.73225524 Ry
     smearing contrib. (-TS)   =      -0.00016732 Ry

     convergence has been achieved in   5 iterations

 Energies determined by pw2casino tool
 -------------------------------------
 Kinetic energy      6.7601692997651730       au  =     13.520338599530346       Ry
 Local energy        1.7935310072903476       au  =     3.5870620145806953       Ry
 Non-Local energy    0.0000000000000000       au  =     0.0000000000000000       Ry
 Ewald energy       -19.866127618769042       au  =    -39.732255237538084       Ry
 xc contribution    -5.1389091350903540       au  =    -10.277818270180708       Ry
 hartree energy     0.40740659714421434       au  =    0.81481319428842869       Ry
 Smearing (-TS)     -8.3660673978586044E-005  au  =    -1.6732134795717209E-004  Ry
 Total energy       -16.044013510218843       au  =    -32.088027020437686       Ry
 -------------------------------------
 Total energy0      -16.044013510333642       au  =    -32.088027020667283       Ry
 External energy0    0.0000000000000000       au  =     0.0000000000000000       Ry
 -------------------------------------


     Writing output data file ./si.save/
