#     DFTpy    
  CRYSTAL 
    
  PRIMVEC    
  3.283729834116861    -1.8041000000000003e-10    3.4196000000000003e-10    
  -1.8041000000000003e-10    3.2837298339260506    1.6477000000000002e-10    
  6.248900000000001e-10    3.0115000000000004e-10    6.0158566968605305    
  PRIMCOORD    
  4    1    
  Si    1.6418649169958703    1.6418649178665903    1.8486381689499003    
  Si    6.088500000000001e-10    -5.634800000000001e-10    1.1592901774581201    
  Si    9.338000000000002e-11    4.2556e-10    4.8565665159901705    
  Si    1.6418649174881301    1.6418649166192603    4.167218531829611    
  BEGIN_BLOCK_DATAGRID_3D    
  3d_datagrid_density    
  BEGIN_DATAGRID_3D#0    
  33    33    61    
  0.0    0.0    0.0    
  3.283729834116861    -1.8041000000000003e-10    3.4196000000000003e-10    
  -1.8041000000000003e-10    3.2837298339260506    1.6477000000000002e-10    
  6.248900000000001e-10    3.0115000000000004e-10    6.0158566968605305    
  0.010932746514444884    0.009841474723825032    0.006817218754731655    0.0025032161817272218    -0.0021800841006454253    
  -0.006311956837488764    -0.009232342565059157    -0.010644715577392027    -0.010611983188313743    -0.009404448523215815    
  -0.007371891726380367    -0.00492425718605735    -0.002460520042693678    -0.0002886901599852358    0.0013692000432433873    
  0.002395481544156223    0.002740860293619137    0.0023954694158683236    0.0013692006761858596    -0.00028867420138249547    
  -0.0024605140289735324    -0.004924285680237658    -0.007371890085971072    -0.009404428698425229    -0.010611971035240106    
  -0.010644743338597449    -0.009232354825198566    -0.006311965968305479    -0.00218007187750102    0.0025031694839561997    
  0.006817229354822697    0.009841483268940365    0.010932746514444884    0.009841495635240493    0.008800721688101436    
  0.00590737034175958    0.0017823295079056388    -0.0026785639264504846    -0.006589503198668969    -0.009321661437011113    
  -0.010606619227523375    -0.010492054074452061    -0.00923774811436946    -0.007199431275141206    -0.004773332592840272    
  -0.002335828008748611    -0.0001931835610830232    0.0014429568602613322    0.002450508226789243    0.0027906182753637473    
  0.0024504872812686905    0.0014429704612991217    -0.00019316912639856897    -0.0023358202799456215    -0.004773350776922159    
  -0.007199434343229288    -0.009237747536276994    -0.010492068617520951    -0.010606642234442895    -0.009321629794332735    
  -0.006589441984232445    -0.0026785375857096296    0.0017822441554423613    0.005907354654446616    0.00880073642610228    
  0.009841495635240493    0.0068172517756874855    0.0059073544866725105    0.003379276892767128    -0.0001977213151908577    
  -0.004027382903627333    -0.007306183754704328    -0.009526837300770386    -0.010449877510453443    -0.010104081669583891    
  -0.008741251693221031    -0.006695109533359496    -0.00432447085488636    -0.0019670206634863244    9.496871251276671e-05    
  0.001655757392342178    0.0026176795066004976    0.0029422008265073125    0.0026176746730545365    0.0016557525872558283    
  9.498584064991631e-05    -0.0019670159702356387    -0.004324498346851684    -0.0066951369444223615    -0.008741260937206043    
  -0.0101040910875434    -0.010449874876473685    -0.009526823173055358    -0.00730611974491697    -0.004027383026283204    
  -0.00019777874929207206    0.003379264778511382    0.005907396388781871    0.0068172517756874855    0.002503206110885663    
  0.0017822605596336902    -0.0001977733983148723    -0.0029496150223414903    -0.005830144530738231    -0.008229751163159516    
  -0.009709707331380763    -0.010099006811383758    -0.009431231837040196    -0.007935423358368835    -0.005884155819525861    
  -0.00359933341560142    -0.0013665778321263764    0.0005614642050381963    0.0020102382565633046    0.002895662501771649    
  0.003196074357976248    0.002895647756212892    0.0020102405299992766    0.0005614836939736069    -0.0013665728918329093    
  -0.0035993521677535395    -0.005884154028143528    -0.007935421914761442    -0.009431225752500886    -0.010099015058707275    
  -0.00970968696107838    -0.008229702664455978    -0.005830119167813405    -0.002949656700259591    -0.00019778988767946956    
  0.0017822871104642554    0.002503206110885663    -0.0021800768048230008    -0.002678579212361059    -0.004027372623785611    
  -0.005830114607839248    -0.007663183681154744    -0.00905626382532839    -0.009708928607123872    -0.00949501102619737    
  -0.008481993830714588    -0.0068429242526478916    -0.004806537197029733    -0.0026321034043632154    -0.0005699596707580231    
  0.0011912311808941142    0.0024991360123226215    0.0032967629168418424    0.003562370080283507    0.003296748652608359    
  0.00249913083425307    0.0011912457256627181    -0.0005699480677745066    -0.0026321316182209356    -0.004806555503506788    
  -0.006842923125805428    -0.008481988872324509    -0.009495041789839072    -0.009708916330587411    -0.009056258595190542    
  -0.007663207664476149    -0.005830145960671244    -0.004027410620386614    -0.002678551144965958    -0.0021800768048230008    
  -0.006311943416304729    -0.006589481396435323    -0.0073061263061894215    -0.008229697530359521    -0.009056235039656703    
  -0.009496703092753076    -0.00936026636794053    -0.008597059980320716    -0.007262033539624368    -0.005508137936930968    
  -0.003510058395033083    -0.0014757906561447042    0.0003998968741835221    0.0019639859106584715    0.0031236149248093244    
  0.0038223178244605575    0.004057776618370004    0.0038223095724015752    0.0031236270985220277    0.0019640053787255574    
  0.0003998947686263344    -0.0014758041804939523    -0.003510041769147162    -0.005508119962607334    -0.007262040638729223    
  -0.008597095882603479    -0.00936026183819287    -0.009496678188552567    -0.009056230915219997    -0.008229750169255673    
  -0.007306130905422384    -0.006589430797311796    -0.006311943416304729    -0.009232331030381829    -0.009321623064313275    
  -0.00952684247521562    -0.009709673985942824    -0.009708902832458698    -0.00936027522436025    -0.008597802739346001    
  -0.007389744138400874    -0.005804199319106956    -0.003975795049968596    -0.002050322621903663    -0.00017153139787684342    
  0.0015017537448117986    0.0028763922620552358    0.003880945824436336    0.004490558111872486    0.004692554502555886    
  0.0044905509618415    0.003880935065399853    0.0028764109073344023    0.0015017581135109578    -0.0001715481079219694    
  -0.0020503277757267114    -0.0039757986918536325    -0.005804196001914463    -0.007389747476344908    -0.008597796967292312    
  -0.009360251006128464    -0.00970890746657823    -0.00970971192183479    -0.009526834771338892    -0.009321617192937264    
  -0.009232331030381829    -0.010644721672680123    -0.010606655967476277    -0.010449871709587942    -0.010099009157769743    
  -0.009495028513998048    -0.00859710210954742    -0.00738973667491448    -0.005880459155426154    -0.004149387879631365    
  -0.0023150461741006925    -0.0004857254074785998    0.0012171970336015358    0.0027013341453948005    0.0038958125024819083    
  0.004772806057479867    0.005305971216267546    0.005487219697879645    0.005305969940577605    0.004772818943837    
  0.0038958186089692666    0.002701335583103934    0.0012172013212611772    -0.0004857118952362083    -0.0023150478039029904    
  -0.004149392258240927    -0.00588048559390755    -0.007389733332798275    -0.008597057665668834    -0.009495015304135856    
  -0.010099036294396934    -0.01044987522990731    -0.010606624341737945    -0.010644721672680123    -0.010611992085109632    
  -0.010492065650045271    -0.01010409459176999    -0.00943123614946805    -0.00848198900500451    -0.007262060868035895    
  -0.00580422238201433    -0.004149395509703046    -0.0023830765372724904    -0.0005994778895275244    0.001103538706458217    
  0.0026436130579764686    0.003958076565440964    0.0050104420140865144    0.005784128070482483    0.006258006521526854    
  0.006422634496604764    0.006257975450045031    0.005784133745948287    0.005010461249359016    0.003958079655591444    
  0.0026435966562560645    0.0011035374566328148    -0.0005994540442515593    -0.002383084796599215    -0.004149414160277986    
  -0.005804205254409815    -0.007262049715857662    -0.008481987026677119    -0.009431245837742313    -0.010104113303937923    
  -0.010492070330297991    -0.010611992085109632    -0.0094044238625858    -0.009237767332004057    -0.008741243690753311    
  -0.007935409624707094    -0.006842930764418378    -0.0055081340228402284    -0.003975797720269439    -0.0023150440070160557    
  -0.0005994482639754396    0.0010861657283458676    0.0026568685514196913    0.004050907836431733    0.00523492990552754    
  0.006185946602497414    0.006891426884348867    0.00732320592101468    0.0074707556106019795    0.0073231917543366805    
  0.006891435645320014    0.006185971088617397    0.005234939735039461    0.004050892344783151    0.002656889060586943    
  0.0010861634706232303    -0.0005994443915183079    -0.0023150466639689205    -0.003975807904972107    -0.005508107296241124    
  -0.006842910503160422    -0.0079354353485725    -0.008741256406769269    -0.009237754776371333    -0.0094044238625858    
  -0.0073718908157398315    -0.007199434206522697    -0.006695103674093103    -0.005884147255340906    -0.004806536093584572    
  -0.003510056281577676    -0.0020503302283893334    -0.0004856978403057463    0.0011035431334065857    0.0026568786330433878    
  0.00409666513948745    0.00538540556679127    0.006484820371470296    0.007380256623028176    0.008044542992658738    
  0.008457255387063585    0.00859488476326573    0.00845722698697735    0.008044558940122421    0.007380269058836843    
  0.006484824408693748    0.005385393988410439    0.004096648976373108    0.002656879825649307    0.001103531315740433    
  -0.0004857123236592716    -0.00205032537179277    -0.0035100340446958976    -0.0048065377349453    -0.005884158167302696    
  -0.00669512902003944    -0.007199409323819432    -0.0073718908157398315    -0.004924253783910991    -0.004773348992097782    
  -0.004324492453242113    -0.003599352890335987    -0.0026321276198731708    -0.001475812352253103    -0.00017152842408271206    
  0.0012172090252600839    0.002643625881088095    0.0040509065540589645    0.005385398198563172    0.006600469873051479    
  0.007666986008018942    0.00853367393608772    0.00919211611412509    0.009601132336657586    0.009738465529083784    
  0.00960112162172471    0.009192136646893641    0.00853368482540551    0.007666983995921758    0.006600453869993947    
  0.005385396069107985    0.0040509060366320454    0.0026436229975079664    0.0012172026430350444    -0.00017154171354481613    
  -0.0014757805208701561    -0.0026321040725718297    -0.0035993540114951346    -0.004324493556935991    -0.004773329257631437    
  -0.004924253783910991    -0.0024605201275526034    -0.0023358456547343713    -0.0019670265277439447    -0.0013665852883343048    
  -0.0005699678812246037    0.00039987718032912477    0.0015017413324446263    0.0027013409782995364    0.003958065295107011    
  0.005234924222714881    0.006484803395069296    0.0076669791092067955    0.008718101848548281    0.009598540408380532    
  0.010267356854736773    0.010687023752421101    0.010827044073728226    0.0106869934015812    0.010267354310297998    
  0.009598568978625507    0.008718113137341525    0.007666964365156397    0.0064848125876498155    0.005234926395519638    
  0.003958071363550159    0.0027013225931062693    0.0015017477969761542    0.0003998880451454436    -0.000569959899021773    
  -0.001366587618451413    -0.001967032402997662    -0.0023358420954515523    -0.0024605201275526034    -0.00028867743449573934    
  -0.00019318852035452044    9.498029977468381e-05    0.000561494121422925    0.001191226580587491    0.0019639789433550923    
  0.0028764091097813072    0.0038958168485727484    0.005010455292684933    0.00618595671168404    0.007380267267544767    
  0.008533679534466715    0.009598559937166476    0.010502821253680709    0.011197545933928773    0.011640476743665326    
  0.01178771900493671    0.011640455988813    0.011197537304646977    0.010502831806794233    0.009598564245838525    
  0.008533675613410377    0.0073802556409104676    0.006185968643461517    0.005010455316411352    0.0038958141235697747    
  0.0028764046564549997    0.0019640003103217657    0.0011912330983047245    0.0005614621844210367    9.497406901546691e-05    
  -0.00019317182159930146    -0.00028867743449573934    0.0013692098280377529    0.0014429671760435485    0.0016557580919913685    
  0.0020102597598994102    0.0024991400044789263    0.003123622234240303    0.0038809414700041157    0.004772823122810903    
  0.00578413203856903    0.006891433438250277    0.008044554139657082    0.00919213074470849    0.010267350783802202    
  0.011197527487092537    0.011920019165810715    0.012383415327774193    0.012547036460271926    0.012383389663578322    
  0.011920021463986711    0.011197540519890328    0.010267373064772862    0.009192119714780076    0.008044547887406123    
  0.006891437243487091    0.005784129184011268    0.0047728147158812755    0.003880956549449743    0.0031236366708253063    
  0.0024991406756150656    0.00201023446396728    0.001655762388974144    0.0014429754963993188    0.0013692098280377529    
  0.002395474257459983    0.00245048827184776    0.0026176855411204256    0.002895654251510398    0.0032967567788717293    
  0.0038223019028599853    0.004490553647632552    0.005305973028824715    0.006257998345578241    0.007323205963044424    
  0.00845723162515419    0.00960112924118119    0.010687016928692512    0.011640449512391677    0.01238340056503337    
  0.012863993610087502    0.013031018474356316    0.012863976717911849    0.01238340558266791    0.011640467242431249    
  0.010687022335938628    0.009601113207405757    0.00845723072754543    0.007323194628042311    0.0062580008915164775    
  0.0053059637802622996    0.004490559312804602    0.0038223230212269723    0.003296767756480179    0.0028956369990847663    
  0.002617672919410359    0.002450499853989982    0.002395474257459983    0.002740852444524883    0.0027906143868979614    
  0.0029421868900016083    0.003196074276137142    0.00356236287010192    0.0040577675706466405    0.004692546342678897    
  0.005487216781485593    0.006422639169227542    0.007470736707271443    0.00859488208331788    0.009738458237501347    
  0.010827033659074808    0.011787713563135236    0.012547017622375459    0.013031028621801687    0.01320121297014625    
  0.013031003815721148    0.012547035254420623    0.01178772436254641    0.010827036654006233    0.009738437748011388    
  0.008594875594066662    0.007470753429709485    0.00642262756364928    0.005487218037628615    0.0046925447303618525    
  0.004057772945195709    0.003562367506958396    0.003196061742047867    0.002942190565042141    0.0027906089992400657    
  0.002740852444524883    0.0023954764534808493    0.0024504947094373293    0.002617692337585783    0.002895656949246172    
  0.003296763349663422    0.0038223033805383213    0.004490550713003119    0.005305977583638449    0.006258009669738256    
  0.007323200656729759    0.00845722507584622    0.009601120515483536    0.010687023379007335    0.011640458579517326    
  0.012383402145991889    0.012863997682470192    0.013031010656959854    0.012863973637472104    0.01238339654251949    
  0.011640467126997886    0.01068703040933073    0.00960111660423395    0.008457242321433023    0.007323198901605577    
  0.0062579981068708115    0.00530596643765184    0.004490547516528626    0.003822315679749396    0.003296761796595626    
  0.0028956490078873    0.002617677594118204    0.0024505081096378592    0.0023954764534808493    0.0013692145814854216    
  0.0014429738608946004    0.0016557626484266636    0.0020102601324890044    0.002499139622540315    0.003123623919231826    
  0.003880950669216282    0.00477281515705037    0.0057841382597313565    0.006891443572597812    0.008044552000699041    
  0.009192134186549347    0.010267363225524028    0.011197539206533089    0.011920011887314955    0.012383405815697818    
  0.012547036476887081    0.01238337667473253    0.011920019053241733    0.0111975444761264    0.010267371352340977    
  0.009192111845981076    0.008044534515078335    0.006891443951782458    0.0057841415148681685    0.0047728160730386195    
  0.0038809501520709745    0.0031236305650470106    0.0024991445069042616    0.0020102364709579748    0.0016557606878496198    
  0.001442972273357488    0.0013692145814854216    -0.00028868222946802906    -0.00019319634652601906    9.49874613210198e-05    
  0.0005614793576059001    0.001191225840502664    0.00196397647182516    0.002876405896454099    0.0038958139187097655    
  0.005010463475517198    0.006185956373273382    0.007380260645824134    0.008533692105520194    0.009598558635508358    
  0.010502808081421896    0.011197540403043651    0.011640475813948753    0.011787726649084175    0.01164046194242498    
  0.011197540984626069    0.010502842354951332    0.009598565437795624    0.008533676948963807    0.007380269755556928    
  0.0061859664833770825    0.005010452959610835    0.003895823693418518    0.002876404195346655    0.0019640049898932022    
  0.001191242321727408    0.0005614658170457682    9.496946323903097e-05    -0.00019316857693864282    -0.00028868222946802906    
  -0.002460523207665455    -0.0023358345782112655    -0.0019670289700662435    -0.0013665850148965866    -0.0005699628459479899    
  0.0003998759831004981    0.0015017428709902239    0.002701331369336645    0.003958067776019523    0.005234918595479809    
  0.006484811367050952    0.00766698399262282    0.008718102221428665    0.009598542821812946    0.0102673532809156    
  0.01068702643021917    0.01082703556315219    0.010687006102734615    0.010267354928026605    0.009598569997280705    
  0.00871810818372114    0.007666974037592006    0.006484808846025295    0.005234929121491558    0.003958063988550837    
  0.002701316362659487    0.0015017428838985185    0.0003998874306992088    -0.0005699544061642857    -0.0013666008602346866    
  -0.001967037879548834    -0.002335839052100815    -0.002460523207665455    -0.004924255351358834    -0.004773342661826539    
  -0.0043244751578423975    -0.003599338345281253    -0.00263211684166447    -0.00147580227138629    -0.00017153970203750995    
  0.0012172154591748798    0.0026436199597138573    0.004050898217898432    0.005385399388087709    0.006600467407007608    
  0.007666969228704347    0.008533679384040828    0.009192126425360669    0.00960112932739548    0.009738465706109976    
  0.009601118058722293    0.009192126603488652    0.008533689195378533    0.007666988282935106    0.006600452509716191    
  0.00538540475776958    0.004050891831136786    0.0026436190845316844    0.0012171945624246249    -0.00017153566387355848    
  -0.0014757857760072236    -0.002632108750014335    -0.003599362210944991    -0.004324487030270114    -0.004773334093894288    
  -0.004924255351358834    -0.007371881931035394    -0.0071994189971983265    -0.00669511001443699    -0.005884148126431893    
  -0.004806554530416836    -0.0035100627687904896    -0.0020503221660957143    -0.00048570671107023067    0.0011035407424683512    
  0.002656885898902993    0.004096664094614339    0.0053854012718589465    0.0064848183557674995    0.007380254367899757    
  0.008044546411942514    0.008457244930683575    0.00859487796770765    0.008457233465543104    0.008044546885895775    
  0.007380272347233502    0.0064848300756964235    0.005385393009109605    0.004096642828619901    0.0026568853763653697    
  0.0011035379663796182    -0.00048570940025570984    -0.002050332299532647    -0.003510037381053046    -0.0048065418656396885    
  -0.005884166071396764    -0.00669512041948243    -0.007199426737793971    -0.007371881931035394    -0.009404438690946733    
  -0.009237774186299402    -0.008741241368005429    -0.007935429316025127    -0.006842928478066619    -0.005508153826474137    
  -0.003975791393264753    -0.0023150458191189536    -0.0005994494432219311    0.0010861615754400216    0.002656874249882517    
  0.004050908421188203    0.005234934255996609    0.006185939228103412    0.006891430714487349    0.007323205643803455    
  0.007470744471152276    0.007323200207688925    0.00689143621807755    0.006185956795616959    0.00523493052658579    
  0.004050888334316707    0.0026568740878877214    0.001086170951939669    -0.0005994454245311358    -0.002315059331196377    
  -0.003975789714269214    -0.0055081128450679105    -0.006842918379540677    -0.007935442496497743    -0.008741260037043945    
  -0.0092377408154325    -0.009404438690946733    -0.010611997553312387    -0.010492065496214632    -0.010104092045857813    
  -0.0094312254519517    -0.008481994494873926    -0.007262062818021675    -0.005804208556930114    -0.004149403332235113    
  -0.0023830805464891496    -0.0005994684004020131    0.0011035403240811485    0.0026436185841220983    0.00395807026025017    
  0.005010445091449148    0.005784123708448838    0.006258002320325737    0.006422640625604284    0.006257980212282392    
  0.0057841396118626575    0.005010472007272202    0.003958088318228858    0.0026436037177965705    0.0011035288410171098    
  -0.0005994605861603687    -0.002383080706297172    -0.0041494114383911875    -0.005804214708750766    -0.007262041880763941    
  -0.00848198484117826    -0.009431256963697624    -0.010104107435637348    -0.010492072480253967    -0.010611997553312387    
  -0.010644694866590058    -0.010606640120773213    -0.010449865111150602    -0.01009898936267214    -0.009495022190093358    
  -0.008597074839866135    -0.007389740987182776    -0.005880469088091722    -0.004149399248099255    -0.0023150563518843075    
  -0.0004857166546779065    0.0012172112940344714    0.0027013326891091698    0.003895810800866203    0.004772809662528805    
  0.005305979009917702    0.005487222218727621    0.005305954480783272    0.004772813939165259    0.0038958294239533923    
  0.0027013491060536472    0.001217188891013049    -0.0004857105423110436    -0.0023150465342751283    -0.004149398954118747    
  -0.005880475609986969    -0.007389740676849513    -0.008597055978264826    -0.009495020197351668    -0.010099031267818118    
  -0.010449890332203067    -0.010606624557919714    -0.010644694866590058    -0.009232329780288009    -0.009321637429562343    
  -0.009526826828672112    -0.009709683535247513    -0.009708921079079861    -0.009360270952155136    -0.008597814314898497    
  -0.007389733095452358    -0.0058042012460368195    -0.003975806599100611    -0.0020503187254506997    -0.00017153892032112332    
  0.0015017566480136973    0.0028764012760686725    0.0038809512861003826    0.004490562930214812    0.004692553920470358    
  0.004490542504466213    0.003880962047096966    0.002876405827591548    0.001501756923780329    -0.00017154539654262764    
  -0.002050337938011888    -0.003975802777580567    -0.005804202339840863    -0.007389751480415534    -0.008597797339366916    
  -0.009360226138258591    -0.009708910272893131    -0.009709705308396654    -0.009526850987314704    -0.009321616097907806    
  -0.009232329780288009    -0.0063119409024734036    -0.006589495481508884    -0.007306147411232498    -0.008229733649160124    
  -0.009056250156085006    -0.009496711523751911    -0.009360249109999956    -0.008597055572160122    -0.007262037725633534    
  -0.005508115162252374    -0.0035100457712361815    -0.0014757755502400232    0.0003998941305961143    0.0019639828080829876    
  0.003123622109699007    0.003822315810207575    0.004057782426077906    0.0038223066941442843    0.003123619379682318    
  0.001963995302209627    0.0003999019419181356    -0.0014758108199999685    -0.0035100488786666763    -0.005508107692448546    
  -0.007262038295812199    -0.008597074438824443    -0.009360250972454312    -0.009496679166497836    -0.009056219403318121    
  -0.008229752106148442    -0.007306154463522381    -0.006589432216467576    -0.0063119409024734036    -0.0021800858230422533    
  -0.0026785910816826677    -0.004027393995882246    -0.0058300978662619305    -0.007663225486185425    -0.009056273174736026    
  -0.009708925781348845    -0.009495018927903828    -0.008481982639757094    -0.006842931149643986    -0.004806550046040457    
  -0.002632104253509934    -0.0005699573183450888    0.0011912264736940164    0.002499136758756875    0.0032967649396961366    
  0.003562370007252156    0.0032967462672384823    0.0024991403945305132    0.001191253305469932    -0.0005699365679516264    
  -0.0026321311208454736    -0.004806549657686967    -0.006842921069413491    -0.008482000064417414    -0.00949505234996255    
  -0.009708926108224556    -0.009056240433766058    -0.007663212006890915    -0.005830138704037433    -0.004027397644069966    
  -0.0026785623806458423    -0.0021800858230422533    0.0025032035171479615    0.0017822814931588785    -0.00019773851510154227    
  -0.00294958689557002    -0.005830119720491095    -0.008229754853698475    -0.009709671392069935    -0.010099009721862342    
  -0.00943123285332203    -0.007935438178325933    -0.005884157596534632    -0.0035993417782228324    -0.0013665768945747767    
  0.0005614718804876326    0.0020102406186333593    0.002895660679657287    0.0031960623155547706    0.0028956551421743157    
  0.0020102462832200956    0.000561482585582826    -0.0013665810579807042    -0.003599355270095456    -0.00588414834751049    
  -0.007935423636041073    -0.009431233145541111    -0.010099017155277468    -0.0097096949106681    -0.008229700632584441    
  -0.0058301042777492255    -0.002949655790056434    -0.0001977663663334163    0.001782318848266002    0.0025032035171479615    
  0.0068172149767824096    0.005907360706384812    0.003379262255248836    -0.00019771936251932655    -0.004027415938258878    
  -0.007306173796528224    -0.009526851203736926    -0.01044988010959697    -0.010104091857295081    -0.008741248009367441    
  -0.006695105869933596    -0.0043244848320295555    -0.0019670244256282435    9.495869678546518e-05    0.0016557540821856972    
  0.0026176837230036678    0.002942194147517808    0.0026176697193889867    0.0016557560646806462    9.497699622243357e-05    
  -0.001967016324833838    -0.004324496397472698    -0.006695106541525201    -0.008741235713985513    -0.010104098073831084    
  -0.010449889606308735    -0.009526822706961709    -0.007306127953485811    -0.004027370283678848    -0.00019778751238626243    
  0.0033792681075696714    0.005907374891691157    0.0068172149767824096    0.009841510229592069    0.008800671733839652    
  0.005907368939029838    0.0017822908784986618    -0.0026785606108511045    -0.0065894936415916835    -0.00932163284095752    
  -0.01060662891617894    -0.010492062841881774    -0.009237753709033517    -0.007199430926869489    -0.004773336089887223    
  -0.0023358368912775956    -0.00019318879407152057    0.001442956599034576    0.0024505118335858187    0.002790618247009787    
  0.0024504952126097653    0.001442967917473955    -0.00019317670325118093    -0.002335838001939202    -0.004773349811314881    
  -0.007199428145952951    -0.009237757844074644    -0.010492058976764054    -0.010606658917321416    -0.009321639688130002    
  -0.006589449970753626    -0.0026785573052993616    0.0017822524099821836    0.005907364272441267    0.008800729914835617    
  0.009841510229592069    0.010932746514444884    0.009841474723825032    0.006817218754731655    0.0025032161817272218    
  -0.0021800841006454253    -0.006311956837488764    -0.009232342565059157    -0.010644715577392027    -0.010611983188313743    
  -0.009404448523215815    -0.007371891726380367    -0.00492425718605735    -0.002460520042693678    -0.0002886901599852358    
  0.0013692000432433873    0.002395481544156223    0.002740860293619137    0.0023954694158683236    0.0013692006761858596    
  -0.00028867420138249547    -0.0024605140289735324    -0.004924285680237658    -0.007371890085971072    -0.009404428698425229    
  -0.010611971035240106    -0.010644743338597449    -0.009232354825198566    -0.006311965968305479    -0.00218007187750102    
  0.0025031694839561997    0.006817229354822697    0.009841483268940365    0.010932746514444884    0.012407333680823363    
  0.011341641288626667    0.00835481524698509    0.004048121775347119    -0.0006963683333956958    -0.004989333379055591    
  -0.00813817082564285    -0.009803482872524529    -0.009999576685512842    -0.008971469455892018    -0.007088003197426996    
  -0.004766723564713248    -0.0023955819236208885    -0.00028438363391638665    0.0013475728656168519    0.0023629268683027288    
  0.00270524394462492    0.002362911030458225    0.001347585463672659    -0.0002843649166799048    -0.00239556942972331    
  -0.004766752527032143    -0.007088006378911837    -0.008971469490798066    -0.009999569532643618    -0.009803523442597044    
  -0.00813820030612143    -0.004989309494255246    -0.0006963687175571364    0.004048074242551766    0.008354792199587416    
  0.011341661985406645    0.012407333680823363    0.011341682944412094    0.010316061763906523    0.007451304411535518    
  0.003327486229871316    -0.0012149591328161277    -0.005283181200134098    -0.0082506875279604    -0.009783315996807396    
  -0.009893056540251154    -0.008819484822070242    -0.0069284238560060555    -0.004624292586736249    -0.0022805280603225985    
  -0.0001939325999603135    0.0014125916949472306    0.002411933051344212    0.0027486680568309468    0.002411913835698514    
  0.0014125918351517918    -0.00019390964828281486    -0.0022805183457305337    -0.004624313293947276    -0.006928415871498391    