#     DFTpy    
  CRYSTAL 
    
  PRIMVEC    
  3.283729834116861    -1.8041000000000003e-10    3.4196000000000003e-10    
  -1.8041000000000003e-10    3.2837298339260506    1.6477000000000002e-10    
  6.248900000000001e-10    3.0115000000000004e-10    6.0158566968605305    
  PRIMCOORD    
  4    1    
  Si    1.6418649169958703    1.6418649178665903    1.8486381689499003    
  Si    6.088500000000001e-10    -5.634800000000001e-10    1.1592901774581201    
  Si    9.338000000000002e-11    4.2556e-10    4.8565665159901705    
  Si    1.6418649174881301    1.6418649166192603    4.167218531829611    
  BEGIN_BLOCK_DATAGRID_3D    
  3d_datagrid_density    
  BEGIN_DATAGRID_3D#0    
  33    33    61    
  0.0    0.0    0.0    
  3.283729834116861    -1.8041000000000003e-10    3.4196000000000003e-10    
  -1.8041000000000003e-10    3.2837298339260506    1.6477000000000002e-10    
  6.248900000000001e-10    3.0115000000000004e-10    6.0158566968605305    
  -0.03283801155526528    -0.03221740561634773    -0.03042212233216524    -0.02760288761440324    -0.023935730751389963    
  -0.01964974849727294    -0.015012712934156439    -0.010271205202136629    -0.005655831009726847    -0.001331104485043151    
  0.0025878507104219574    0.006010437863969587    0.008865576586815421    0.011092566665989146    0.012660621983152787    
  0.013581839988266326    0.013885057878978323    0.013581832102784179    0.012660620062876065    0.011092566455865451    
  0.008865589791880665    0.006010440499981126    0.002587827166123472    -0.0013311063882030948    -0.005655853956334368    
  -0.010271264306553556    -0.01501271358914875    -0.019649770408967274    -0.023935701934421478    -0.027602882545533357    
  -0.03042211007968427    -0.032217389873341724    -0.03283801155526528    -0.03221739909205136    -0.03160111131510921    
  -0.029822538931298274    -0.027026252554093494    -0.023390521019265073    -0.019147108295431148    -0.014560273522417068    
  -0.009881198682823769    -0.005325439774744893    -0.0010603347478758479    0.0027954931970311345    0.006157777008339957    
  0.008962596793079676    0.011150265995409723    0.012688985335805765    0.013592592643723502    0.013891211925885027    
  0.013592573552145888    0.012688993308132458    0.011150278190388432    0.008962603409728528    0.006157781669656743    
  0.002795504838739629    -0.0010603181686962635    -0.005325427708734747    -0.00988124021925732    -0.014560247870837345    
  -0.019147121033175996    -0.023390514629089074    -0.027026255553328892    -0.029822512965441698    -0.03160106505527393    
  -0.03221739909205136    -0.030422125045946297    -0.029822556330591627    -0.028080300003381076    -0.025342062736736545    
  -0.021792163910259957    -0.01766519901221138    -0.013226887610021661    -0.008723523167481352    -0.004356578988215236    
  -0.00027961220769947653    0.0033942009006724533    0.006587666723999972    0.009244750570539242    0.011318447009904057    
  0.012773979791607196    0.013626260093129906    0.013904752944444418    0.013626255920683733    0.012773995226122969    
  0.011318438828463425    0.009244764478416281    0.006587650232822695    0.003394208361596881    -0.0002796115437546017    
  -0.004356553387859292    -0.008723527846332804    -0.013226871712030899    -0.01766519270834877    -0.021792136908102878    
  -0.025342037021068634    -0.028080293979823357    -0.02982251903922796    -0.030422125045946297    -0.027602861566534898    
  -0.02702629229069789    -0.02534202190923672    -0.022685454722886883    -0.019272267654392036    -0.015340346044135448    
  -0.01114895489548344    -0.006924808053275849    -0.0028517786725387228    0.0009297291176640914    0.004320427425180562    
  0.007252546104090639    0.009686871451384936    0.0115818112652557    0.012906871023062337    0.013681606101172328    
  0.013933878431823138    0.013681592205481655    0.012906884455096794    0.011581802597222423    0.009686875133845665    
  0.007252530408666245    0.004320406314074903    0.0009297533072427337    -0.002851787999944845    -0.0069248336349353986    
  -0.011148974431964684    -0.015340363836651818    -0.019272256870771356    -0.02268548856715334    -0.025342057658688112    
  -0.02702626069610216    -0.027602861566534898    -0.02393569487527159    -0.02339052801491444    -0.021792143318271694    
  -0.019272252783067333    -0.016053378447576646    -0.01239430478072937    -0.008523866876715648    -0.0046591707245849595    
  -0.0009637311239658671    0.0024407854610269744    0.005476093833323315    0.008088408081988682    0.0102413471798095    
  0.011909982029165255    0.013078226350382395    0.013758059967138882    0.013979481643235323    0.013758039535535737    
  0.013078226068292875    0.01190997260563431    0.010241343182090443    0.00808840532375769    0.005476096128854722    
  0.0024408165313643117    -0.0009637322812777364    -0.0046591970811846965    -0.00852384593861823    -0.012394313719959613    
  -0.016053368194056884    -0.01927223584313012    -0.021792146362423038    -0.02339048747908108    -0.02393569487527159    
  -0.019649783352070443    -0.01914714685010756    -0.01766514315142479    -0.015340333356172933    -0.01239432308696904    
  -0.009064527004129066    -0.005576783322701125    -0.002127069314159789    0.0011434673424987084    0.004124842311140732    
  0.006763834045954449    0.009021789657595638    0.010865504713762955    0.012284683880550113    0.013278406423748577    
  0.013859741688643361    0.014048562406808567    0.013859734786718715    0.013278416620043369    0.012284683535747873    
  0.010865518121775204    0.009021782091245191    0.006763805466312331    0.004124864669548518    0.0011434703531302624    
  -0.00212710906501092    -0.005576792049615505    -0.009064549682090946    -0.012394338853255749    -0.015340346257992495    
  -0.017665143971324095    -0.019147087303903368    -0.019649783352070443    -0.015012735242168609    -0.01456026209397847    
  -0.01322688481692653    -0.011149003155628336    -0.008523875688730668    -0.005576791418929108    -0.0025223067516285066    
  0.00048042842410249247    0.0033040148525709653    0.005858865228489991    0.008095918292617613    0.009988781457783726    
  0.01151701566175447    0.012685323701680042    0.013506890457910932    0.013990994193465268    0.014149068213497644    
  0.013990984182010837    0.01350689910843875    0.012685331077749397    0.01151701722589065    0.00998877387846232    
  0.008095898641656524    0.005858880001488759    0.003304017737560954    0.0004804167989433053    -0.0025222889461548733    
  -0.005576791469985391    -0.008523870796828372    -0.0111489774486584    -0.013226878203149607    -0.014560249445220396    
  -0.015012735242168609    -0.010271235373084988    -0.00988122727155331    -0.008723506488309716    -0.00692482159257593    
  -0.0046591708655193045    -0.002127091341833239    0.00048043345096994514    0.003022922866983142    0.005399624688234501    
  0.007536119837577054    0.009387444607810748    0.010931888572240244    0.012164244813462503    0.013101486391734083    
  0.013764051179348225    0.014159963302812413    0.014291922703297634    0.014159959425314278    0.013764059162381596    
  0.013101487952902585    0.01216424697240594    0.010931888550692872    0.009387459658925196    0.007536138747103556    
  0.0053996143322942915    0.003022891048639708    0.0004804158478836871    -0.0021270876225024846    -0.004659180457255351    
  -0.0069248316812226445    -0.00872352098002334    -0.00988119735668545    -0.010271235373084988    -0.0056558478317563915    
  -0.005325428516216929    -0.004356522858685044    -0.0028517896297487115    -0.0009637508719895967    0.0011434568282378097    
  0.0033040015963065475    0.005399636118249075    0.007344650512659643    0.009086364129980668    0.010578874496080129    
  0.011807895287550291    0.012781997863897191    0.01352138628316535    0.014046889084487865    0.014367259727385874    
  0.014476790248901717    0.014367253674734319    0.014046891751098564    0.01352138958017367    0.012782000817629412    
  0.011807898152789435    0.010578874290251629    0.009086365330414698    0.007344647072745512    0.005399618709946332    
  0.003304012551794605    0.0011434566155925953    -0.0009637089717260929    -0.0028517814619377865    -0.0043565334930261036    
  -0.005325415093978513    -0.0056558478317563915    -0.0013311033809508546    -0.001060330162271235    -0.0002795998973256041    
  0.0009297282096661804    0.0024407869378537915    0.004124837991836763    0.005858887073899928    0.007536140676519972    
  0.00908636704976299    0.010465842269761943    0.0116384101208955    0.012593649600317029    0.013352157962213998    
  0.013931699308340718    0.014350536396623764    0.01460894744024871    0.014696162576775494    0.014608937614166801    
  0.014350534653935695    0.013931689974809968    0.01335216302245299    0.01259364324125632    0.011638395479132915    
  0.010465840600383804    0.009086366685485289    0.007536124247434713    0.005858880923015327    0.004124820593374336    
  0.002440770466295615    0.0009297242615302155    -0.0002795885920721044    -0.0010603180433054278    -0.0013311033809508546    
  0.0025878239165528644    0.0027954882211365674    0.00339418298690464    0.004320403821266567    0.00547608201199955    
  0.0067637998266355855    0.008095882984455169    0.009387463889103715    0.010578841391365385    0.011638402863954617    
  0.012540304591830136    0.013280839880121083    0.013870493822735506    0.014326431213165266    0.014661550057195914    
  0.014870379997183134    0.014940899679269207    0.014870377054038151    0.014661564354772571    0.014326448966077723    
  0.013870509154380485    0.013280832514282713    0.012540295521172123    0.011638421548664018    0.010578863543112035    
  0.00938744224568318    0.008095913277300396    0.006763800251768445    0.005476097401616974    0.004320409366349196    
  0.0033941842785277405    0.0027954958124198335    0.0025878239165528644    0.006010437422615296    0.006157771685406741    
  0.006587688858257307    0.007252538223030761    0.008088415127200514    0.009021767037747206    0.009988779150298655    
  0.010931893392015949    0.011807893778945564    0.012593650247729031    0.013280850270327724    0.013859191758770916    
  0.014326571615668715    0.014695268260972092    0.014967487641193964    0.015136139958154415    0.015192043401708608    
  0.015136132823343312    0.014967475518221376    0.014695261465643658    0.014326580455800897    0.013859190674493406    
  0.013280860824015708    0.012593674351504573    0.011807879158092309    0.010931865326955007    0.009988788471097913    
  0.009021778118295461    0.008088413860297947    0.007252543643716317    0.0065876728823090185    0.006157789607144687    
  0.006010437422615296    0.008865573779650545    0.008962576136138737    0.009244743220882878    0.009686879320328617    
  0.010241338259868912    0.010865507432251193    0.011517017602204596    0.012164264870256528    0.01278197189606773    
  0.013352147413523432    0.013870494818476273    0.014326573463696408    0.014714150129516207    0.01502089486443925    
  0.01524983436282681    0.015387076597344554    0.015431599688916635    0.015387053213861763    0.015249843342440936    
  0.015020901350735562    0.014714139902241082    0.014326576167796815    0.013870505512087301    0.013352166332069192    
  0.012781990705290484    0.012164252902880422    0.011517034979593273    0.010865492366205627    0.010241334284982648    
  0.009686890159023508    0.009244738712095787    0.008962616410967683    0.008865573779650545    0.01109257364921845    
  0.011150260258106106    0.011318474450926428    0.011581811336206374    0.011909990403670105    0.012284704538592036    
  0.012685348701069358    0.013101499673304231    0.013521403391613465    0.013931695175674358    0.014326453499591668    
  0.014695253359710277    0.01502091743456534    0.015288733639571455    0.015487020750115743    0.015608709643162098    
  0.015648376790728894    0.015608691417925527    0.015487025988255613    0.015288734577183717    0.0150209167467725    
  0.014695260637622186    0.014326446698655097    0.01393170601565522    0.013521397878605623    0.013101463437485346    
  0.012685342084705911    0.01228467174133797    0.011909987430615648    0.011581800446031694    0.011318464686337753    
  0.01115027651950519    0.01109257364921845    0.012660629513787422    0.012688985636156993    0.01277397618943973    
  0.01290685589966662    0.013078215317058982    0.013278392512817877    0.013506898298748748    0.013764055574225833    
  0.014046876371792232    0.014350521849405624    0.014661571603730012    0.01496747460096529    0.015249827159143803    
  0.015486998947403512    0.015667657853004145    0.015784670920073997    0.015828271496619747    0.01578466639338646    
  0.015667654622098348    0.01548700096968277    0.015249823160919903    0.01496745680299793    0.014661555042997194    
  0.01435053600994696    0.014046879886913683    0.013764046014216165    0.013506901746834247    0.013278407343867078    
  0.01307822404831454    0.012906874184701229    0.012773977058472528    0.012688986767934961    0.012660629513787422    
  0.013581828342353176    0.013592562348742178    0.013626259303003398    0.013681597811083674    0.013758044646818672    
  0.013859728818492992    0.01399098974262028    0.014159967200572008    0.014367252320328984    0.014608930803904229    
  0.014870384156268816    0.015136129666890303    0.015387081942939704    0.015608698103908749    0.01578468113109771    
  0.015904500094186258    0.015950185652816112    0.015904491098546115    0.01578469110822939    0.015608706447497801    
  0.01538708259042498    0.015136129072165074    0.014870376901590892    0.014608950056057847    0.01436725633025165    
  0.01415994399881799    0.01399098815688591    0.013859732727848174    0.013758051696082064    0.013681593015166683    
  0.013626259845419257    0.013592584104000216    0.013581828342353176    0.013885052780186546    0.013891213555595663    
  0.013904766321498879    0.01393386384293903    0.0139794750618836    0.014048566147073834    0.014149080640087153    
  0.01429193967206071    0.01447677781842097    0.014696178975425482    0.014940911995167186    0.015192043010318653    
  0.015431610083270639    0.015648374081234054    0.01582827825113115    0.015950199124886266    0.01599573087509082    
  0.015950193780643624    0.01582826948457152    0.01564837674941362    0.015431623044246652    0.015192049414906796    
  0.014940913534249164    0.014696184320712952    0.0144767760432109    0.014291923197873698    0.01414909051444471    
  0.014048562565599249    0.013979481045303615    0.013933880738324524    0.013904771429010941    0.01389122509663403    
  0.013885052780186546    0.013581837081237821    0.013592573388899704    0.01362625896965484    0.01368159569020689    
  0.013758044846372643    0.013859734526211547    0.013990982715409408    0.014159956759207004    0.014367260811407654    
  0.014608944578673991    0.014870397623667526    0.015136126687828917    0.015387074174843796    0.015608696363902028    
  0.015784681914571056    0.015904516291992677    0.01595018921279574    0.015904498085051177    0.01578468473458183    
  0.015608698220141489    0.015387076503093051    0.015136117971617093    0.014870371105649644    0.014608942863491724    
  0.014367255098748831    0.014159945791896793    0.013990986991018547    0.01385973020643241    0.013758051394922114    
  0.013681585021932601    0.013626266827273692    0.01359259124289204    0.013581837081237821    0.012660620655426426    
  0.012688978134331093    0.012773974068939905    0.012906858581277833    0.013078217290293414    0.013278395634302229    
  0.01350689137807422    0.013764066002845602    0.014046872346637918    0.014350515048828009    0.01466156670832765    
  0.014967462740091404    0.015249838727147214    0.015487007523044244    0.01566764312751316    0.01578468015595432    
  0.01582826554565559    0.015784675543930517    0.01566766502412369    0.015487006039063727    0.015249838235677667    
  0.014967477477285437    0.014661560802592387    0.014350539812045803    0.014046869456964442    0.013764040563052    
  0.013506906265627894    0.013278404150120585    0.013078223228389618    0.012906866143492119    0.01277397961894262    
  0.01268899560612163    0.012660620655426426    0.011092584784778177    0.011150261061930244    0.011318469184445335    
  0.011581808217500827    0.011909986342332562    0.012284685314279845    0.012685347510387272    0.013101480946582596    
  0.013521402580586334    0.013931693273443513    0.014326465319676664    0.014695262692034331    0.01502090100262646    
  0.01528874862400007    0.015487016205683024    0.015608721264117484    0.01564838075996187    0.015608699399175145    
  0.015487020848140085    0.015288733123759704    0.015020900820641713    0.014695253632811303    0.01432644320397048    
  0.013931721252471685    0.013521397810577956    0.013101469448974608    0.012685351694089486    0.012284690508756623    
  0.011909984466611201    0.011581800119759195    0.011318455874748567    0.011150281958493404    0.011092584784778177    
  0.008865574142429044    0.008962585555238246    0.00924474500152305    0.009686873358274896    0.01024133145309491    
  0.010865510264651419    0.011517020950858855    0.012164266183433192    0.012781997899503454    0.013352162338258958    
  0.013870525684279756    0.01432657243518371    0.014714146096434618    0.015020892715732837    0.015249821860956523    
  0.015387089056845995    0.015431590547651485    0.015387071772692835    0.015249832718985662    0.015020906146217752    
  0.014714145310266673    0.014326571389416176    0.013870501882316427    0.013352179153022257    0.012781990147182854    
  0.012164236020663388    0.011517019588665085    0.010865514258858268    0.010241327555203593    0.00968689498234668    
  0.009244740203316606    0.008962588815996658    0.008865574142429044    0.006010436974723724    0.006157765234037106    
  0.006587677415356014    0.00725254119689348    0.008088416982820174    0.009021783286345928    0.009988804235620078    
  0.01093191399397763    0.011807908597178635    0.012593641317343583    0.013280853262762855    0.013859187852900582    
  0.014326574850275439    0.014695257437228887    0.01496746767759615    0.015136141633814128    0.015192033017441832    
  0.01513612503725355    0.01496748947902282    0.014695258181167702    0.014326570813814816    0.01385917672614539    
  0.013280853685415213    0.012593676527939293    0.0118078852276293    0.010931876947348713    0.009988790772542971    
  0.009021766335211125    0.008088407485630573    0.00725254414078322    0.00658767754435835    0.00615779258477856    
  0.006010436974723724    0.00258783043682929    0.0027954744363815516    0.0033942017279614376    0.004320426336696885    
  0.005476073066994843    0.006763808376208073    0.008095886902309897    0.009387460602074573    0.010578842638933038    
  0.011638389227543407    0.01254030598984387    0.013280850830214448    0.013870503447980808    0.01432644024675675    
  0.014661565650173826    0.014870382698136685    0.014940897348471389    0.014870379860479167    0.014661572528236667    
  0.014326440565841004    0.01387050183316897    0.013280833246558911    0.012540294535331679    0.011638404423396108    
  0.01057884867987069    0.009387443105615864    0.00809589362792706    0.006763815678657403    0.005476085299718603    
  0.004320403217623507    0.0033942009909663996    0.0027954936843148023    0.00258783043682929    -0.001331098880287909    
  -0.0010603421847128294    -0.0002796069041354049    0.0009297306430419549    0.002440781691935916    0.0041248256688010765    
  0.0058588828790008965    0.007536143770092366    0.009086381870499273    0.010465832282762906    0.011638408135675455    
  0.01259366195033306    0.013352155150241792    0.013931690393964661    0.014350525183218998    0.014608932665788608    
  0.014696175617932235    0.0146089342385003    0.01435052624736629    0.013931704373010244    0.0133521627919721    
  0.012593649094601122    0.011638409755724943    0.01046584767528642    0.009086367389724993    0.0075361183397461865    
  0.005858874666029688    0.004124829776804861    0.0024407781827158028    0.0009297300194666447    -0.0002796065923890503    
  -0.0010603038237568382    -0.001331098880287909    -0.005655851483721749    -0.005325446678371663    -0.004356546044204648    
  -0.002851806505181269    -0.0009637371602469556    0.0011434548384953464    0.0033040061082361748    0.005399643634984448    
  0.007344639063839477    0.009086366149538894    0.010578870440140884    0.011807882729933633    0.012781988350211068    
  0.01352138296998259    0.014046879814340055    0.014367254622048138    0.014476788296136148    0.014367245276476955    
  0.014046883244512663    0.013521381859578912    0.012781999233946113    0.011807892413271032    0.010578859976410506    
  0.009086377154081822    0.007344648189940747    0.005399616725049772    0.003304017836595531    0.0011434506717064646    
  -0.0009637083642031726    -0.002851798545492146    -0.004356532529019149    -0.0053254150556463    -0.005655851483721749    
  -0.010271236423654632    -0.009881232883844281    -0.00872352085297407    -0.006924816098632607    -0.004659197821587822    
  -0.002127086363916235    0.00048041807368905934    0.0030229172234605564    0.0053996167172263455    0.007536128699107151    
  0.009387456245659611    0.010931882302532501    0.012164256524184246    0.01310147313854763    0.01376404838792519    
  0.014159971660836122    0.014291919288600638    0.014159955588109287    0.01376405880980917    0.013101465201583902    
  0.01216425468582394    0.010931875657117071    0.009387458212322815    0.007536137450168376    0.00539962225269642    
  0.003022908975213045    0.0004804252306567513    -0.002127085113972796    -0.004659200410205994    -0.006924828540265335    
  -0.008723512378535993    -0.009881202306850172    -0.010271236423654632    -0.01501273536083102    -0.014560288582568321    
  -0.013226898015916573    -0.011149000646710601    -0.008523890288581817    -0.005576799427900161    -0.0025222953591008445    
  0.0004804239945772669    0.0033040030384245693    0.005858878164224648    0.008095898664477469    0.009988772832114367    
  0.011517015445710332    0.012685322240293869    0.01350689550700671    0.01399098322693733    0.014149071924838165    
  0.01399097038576243    0.013506888810808613    0.012685337179008037    0.011517023617604273    0.009988777743232827    
  0.008095897689459924    0.005858896384123305    0.0033040199567377112    0.0004804118735329715    -0.0025222955271968777    
  -0.0055767884471839765    -0.008523846375362762    -0.01114899530223074    -0.013226874865993842    -0.01456025661085237    
  -0.01501273536083102    -0.01964978532981143    -0.019147175325542543    -0.017665155613529555    -0.015340349928019428    
  -0.0123943442594345    -0.009064538731991928    -0.005576787951782838    -0.0021270990179058473    0.0011434648541666325    
  0.004124842228196521    0.006763813984590877    0.00902177285410026    0.010865517384155636    0.012284688549477923    
  0.013278409261981107    0.013859748584989874    0.014048565371913856    0.013859737482776129    0.013278404397169243    
  0.01228467713687251    0.01086551299900005    0.009021764782881117    0.00676380685663354    0.004124859926892317    
  0.0011434599469079439    -0.0021271091465245744    -0.0055767826715772024    -0.009064525929338875    -0.012394331427488522    
  -0.015340373759713121    -0.01766515811670577    -0.01914710264308013    -0.01964978532981143    -0.02393566225264159    
  -0.023390544060835065    -0.021792149237891946    -0.019272281546340003    -0.016053345695149487    -0.012394328793742564    
  -0.008523863909858726    -0.004659153233443903    -0.00096373320012141    0.002440796154395831    0.005476093722963431    
  0.008088409270387124    0.010241342038564541    0.011909972264579459    0.013078222712867195    0.013758053300200827    
  0.013979477791978969    0.013758040629286691    0.013078232686321162    0.011909982610977506    0.010241344658248    
  0.00808840365183257    0.005476092501233955    0.002440809824704272    -0.0009637259065125432    -0.004659179899914918    
  -0.008523869086795335    -0.012394312504668733    -0.016053362456919008    -0.0192722638577486    -0.021792157759263    
  -0.023390470986289852    -0.02393566225264159    -0.027602880184310886    -0.027026278672684794    -0.025342017089973926    
  -0.022685466783781666    -0.019272253068867252    -0.015340339456997356    -0.011148977436961692    -0.006924790900617165    
  -0.00285178475349184    0.0009297228226368881    0.004320430118792595    0.007252544351605663    0.009686888828589984    
  0.011581799529105402    0.012906877955010781    0.013681599516582307    0.013933873377146872    0.013681594635573209    
  0.01290688992382735    0.01158181388974978    0.009686883177821617    0.007252543277329479    0.004320405412261345    
  0.0009297266862978536    -0.002851786350110886    -0.00692482050262461    -0.01114896670316277    -0.015340342805906395    
  -0.019272243633814433    -0.022685489798194982    -0.025342010258058236    -0.027026219177207135    -0.027602880184310886    
  -0.030422129228132685    -0.029822556023550044    -0.028080303609155137    -0.025342048232058493    -0.021792174053988818    
  -0.01766518589722021    -0.013226891430080946    -0.008723487128229235    -0.004356544572922705    -0.0002796223413837676    
  0.003394216937787197    0.006587668487392733    0.009244724903468221    0.011318448174683136    0.012773987575229346    
  0.01362624632676927    0.013904757707535147    0.013626236997892824    0.012773975073534867    0.011318439945105844    
  0.009244734001461285    0.006587657110067896    0.0033941915945969914    -0.0002795999962519897    -0.004356549822092457    
  -0.008723544675403242    -0.013226865497897304    -0.017665167051478463    -0.021792173922416908    -0.025342047375206043    
  -0.028080307118706592    -0.02982253923629731    -0.030422129228132685    -0.03221741090610043    -0.03160111868413253    
  -0.029822537252643933    -0.02702627222751122    -0.023390521636245363    -0.019147122384861864    -0.014560235891792544    
  -0.009881216095748492    -0.005325441531873391    -0.0010603418272594513    0.002795498552235409    0.006157777665210714    
  0.008962591956512831    0.011150278881206325    0.012689004649225578    0.013592587057411268    0.013891207643152322    
  0.013592574578261192    0.012688989031900029    0.011150275297711702    0.008962594319622551    0.006157789753044973    
  0.0027955128132773396    -0.0010603100992785637    -0.005325408329215303    -0.009881236559519597    -0.014560243596227623    
  -0.019147125602573693    -0.023390529087232874    -0.027026258928573518    -0.029822498511022717    -0.031601049976239304    
  -0.03221741090610043    -0.03283801155526528    -0.03221740561634773    -0.03042212233216524    -0.02760288761440324    
  -0.023935730751389963    -0.01964974849727294    -0.015012712934156439    -0.010271205202136629    -0.005655831009726847    
  -0.001331104485043151    0.0025878507104219574    0.006010437863969587    0.008865576586815421    0.011092566665989146    
  0.012660621983152787    0.013581839988266326    0.013885057878978323    0.013581832102784179    0.012660620062876065    
  0.011092566455865451    0.008865589791880665    0.006010440499981126    0.002587827166123472    -0.0013311063882030948    
  -0.005655853956334368    -0.010271264306553556    -0.01501271358914875    -0.019649770408967274    -0.023935701934421478    
  -0.027602882545533357    -0.03042211007968427    -0.032217389873341724    -0.03283801155526528    -0.032023728096982784    
  -0.03137511384803569    -0.02952325833450383    -0.026651642447962906    -0.022984261419409922    -0.018779635848998805    
  -0.01428563944408505    -0.009715395177057832    -0.00525574019017781    -0.001062811150352696    0.0027469263643459104    
  0.006074525188264472    0.008854774357707755    0.011035537349704227    0.012583402717950193    0.013498026873496284    
  0.013798676833290332    0.013498017201873385    0.012583406701722389    0.011035549674851309    0.008854788562642402    
  0.006074525198805373    0.0027469002000230715    -0.0010627921142530954    -0.005255742728276652    -0.009715444736340624    
  -0.014285613782849014    -0.018779655982459936    -0.022984226760021112    -0.026651598153691    -0.02952324333977198    
  -0.03137509825313173    -0.032023728096982784    -0.03137509850290281    -0.030741324679576257    -0.02890752669357145    
  -0.026068508964460984    -0.02244460750126836    -0.01828778965639141    -0.01384483076137074    -0.009334130745775299    
  -0.004934740409015582    -0.0008017134378984481    0.0029449303526147496    0.0062178876558931905    0.00894801990492656    
  0.011087811065118651    0.012606913575645027    0.013503661428508718    0.013798600543447226    0.013503637113102564    
  0.012606920219177867    0.011087806189933932    0.008948028929302704    0.006217879594637633    0.0029449315274654294    
  -0.0008016881935314936    -0.004934708968594144    -0.00933417300992087    -0.013844791295198207    -0.018287815322013165    
  -0.02244460710493666    -0.026068532698525836    -0.028907508260916624    -0.0307412592062494    -0.03137509850290281    
  -0.029523253127329584    -0.02890756348973627    -0.027139303633139652    -0.02438107858642016    -0.02086909510756297    
  -0.016843051439772192    -0.012556466123140906    -0.008216476937224715    -0.0039952377056612755    -4.531750823581557e-05    
  0.003521047378022909    0.006625606894976443    0.009214121981066213    0.01124067486427388    0.012674924369608542    