#     DFTpy    
  CRYSTAL 
    
  PRIMVEC    
  3.283729834116861    -1.8041000000000003e-10    3.4196000000000003e-10    
  -1.8041000000000003e-10    3.2837298339260506    1.6477000000000002e-10    
  6.248900000000001e-10    3.0115000000000004e-10    6.0158566968605305    
  PRIMCOORD    
  4    1    
  Si    1.6418649169958703    1.6418649178665903    1.8486381689499003    
  Si    6.088500000000001e-10    -5.634800000000001e-10    1.1592901774581201    
  Si    9.338000000000002e-11    4.2556e-10    4.8565665159901705    
  Si    1.6418649174881301    1.6418649166192603    4.167218531829611    
  BEGIN_BLOCK_DATAGRID_3D    
  3d_datagrid_density    
  BEGIN_DATAGRID_3D#0    
  33    33    61    
  0.0    0.0    0.0    
  3.283729834116861    -1.8041000000000003e-10    3.4196000000000003e-10    
  -1.8041000000000003e-10    3.2837298339260506    1.6477000000000002e-10    
  6.248900000000001e-10    3.0115000000000004e-10    6.0158566968605305    
  0.006975954047435769    0.00604076544019534    0.0034577862829861233    -0.00020092569198297674    -0.004112910806600405    
  -0.0074604283390793304    -0.009666925981645607    -0.010488283388491467    -0.010007182498770247    -0.008488725574988892    
  -0.006262614900306623    -0.0037101899849966325    -0.0012009733794201588    0.0009813670241032846    0.0026337180437893807    
  0.0036514438985606992    0.003993148447838356    0.0036514490540150483    0.0026337116357131826    0.0009813690533712507    
  -0.001200985977925074    -0.0037101817361710077    -0.006262588482074302    -0.00848872137605379    -0.01000715974043673    
  -0.010488305151546194    -0.009666922051350292    -0.007460409667044819    -0.004112912339462067    -0.0002009317870967849    
  0.0034577528561169683    0.006040725912368308    0.006975954047435769    0.00604072150372316    0.005150926172657726    
  0.0026849929853280854    -0.0008049688574904393    -0.004518580219610465    -0.007669438619476757    -0.009709848520771579    
  -0.010421586429552819    -0.009872082147602759    -0.00831634386089891    -0.006090355017629272    -0.0035626004004402183    
  -0.0010813313888783965    0.001071282617002372    0.0027017452243602164    0.0037009296320769385    0.004037391269765627    
  0.0037009194685449615    0.0027017369282443344    0.0010712850857081823    -0.001081331229578869    -0.003562610242479774    
  -0.006090357412823051    -0.008316343447763216    -0.009872059605625202    -0.010421621164982334    -0.00970984457008458    
  -0.007669427440036838    -0.004518564420733673    -0.0008049348342586566    0.0026849670269675045    0.0051509257236495186    
  0.00604072150372316    0.0034577520431418656    0.0026849703312986813    0.0005454069685990753    -0.0024542522124723267    
  -0.005604433356576812    -0.008192604628683446    -0.009783560237855326    -0.010184056853929186    -0.00944172095350573    
  -0.007804049059604103    -0.005586950329664969    -0.003124073613140494    -0.0007274343801953132    0.0013427608283762837    
  0.0028978782768694735    0.0038517152061914948    0.004172724840240634    0.0038516987866021456    0.0028978812324148657    
  0.0013427632587024814    -0.0007274356035652909    -0.0031240666931667284    -0.005586936437817609    -0.007804073583373961    
  -0.009441711480309362    -0.010184072119118235    -0.00978353796365465    -0.008192589890728163    -0.00560440450895075    
  -0.002454245229875513    0.0005453663486460311    0.002684980316923517    0.0034577520431418656    -0.0002009416763291292    
  -0.0008049760418957892    -0.0024542132283201755    -0.004714676606934606    -0.0070173213981782985    -0.008828170502490707    
  -0.009770991976362563    -0.009713808467910296    -0.008706936026610844    -0.006975954191941671    -0.004779039302815288    
  -0.0024163269434982005    -0.00015144240693605834    0.0017824810437862455    0.00322546460137148    0.004103476066718525    
  0.004400643447585146    0.004103460718020098    0.003225466776911624    0.001782486285830208    -0.00015143791306469385    
  -0.002416316623943789    -0.004779030229799668    -0.006975955533910306    -0.008706939659412579    -0.009713807174882487    
  -0.009771007462788526    -0.008828184417183126    -0.007017340056184917    -0.004714679090104375    -0.0024542527489114707    
  -0.0008049846358708455    -0.0002009416763291292    -0.004112939122476524    -0.004518585656882415    -0.005604402481908001    
  -0.007017342483832376    -0.008390694740883746    -0.009315382768803932    -0.00953979489941429    -0.008969899186020385    
  -0.007686112228402667    -0.0058598962717655795    -0.003708387550218602    -0.001473665186353361    0.0006123768914764212    
  0.0023764299503804616    0.0036785379745734154    0.004469473299169263    0.004732368873006463    0.0044694753678558635    
  0.003678546673702525    0.002376437673968934    0.000612391849889857    -0.001473650943144097    -0.0037083911336110165    
  -0.005859884507874672    -0.007686093628376838    -0.008969914576077927    -0.00953981579982897    -0.009315392921366749    
  -0.0083907050843822    -0.0070173275592337585    -0.0056044278028569445    -0.004518567468780283    -0.004112939122476524    
  -0.007460430268342696    -0.007669438576013962    -0.008192581844491125    -0.008828204527999074    -0.009315412136330203    
  -0.009409664835670788    -0.00895667246910561    -0.00793012035793637    -0.0063956632377955    -0.004504897657892097    
  -0.002424236453717412    -0.0003483114837266698    0.0015420234534350248    0.003106026151254613    0.004259588648790149    
  0.004952498294601053    0.00518562259707283    0.004952494061129041    0.0042595770206528645    0.0031060165563522512    
  0.001542022198585406    -0.000348296075053766    -0.0024242447643270104    -0.004504893140792062    -0.006395654734965756    
  -0.007930139656610977    -0.008956667690411436    -0.009409664883898829    -0.009315409182744934    -0.008828161681539744    
  -0.00819260410975764    -0.007669441569098816    -0.007460430268342696    -0.009666934918401003    -0.009709831791025077    
  -0.009783533053015266    -0.00977102170283706    -0.009539820799121402    -0.008956660535899134    -0.007979900826060732    
  -0.006594893330325382    -0.004877007921878639    -0.002959739475355287    -0.0009827283966085726    0.0009193563565215691    
  0.0025982972779382946    0.0039692790133789655    0.004967448505481895    0.005571751673509314    0.005771822902075105    
  0.005571742695722736    0.004967446147046344    0.00396928436516876    0.0025982845766815924    0.0009193573170486623    
  -0.0009827355760946195    -0.0029597515059689977    -0.004877010903917572    -0.0065949038149903895    -0.007979897146753404    
  -0.008956677083516745    -0.009539806644480078    -0.009771007908095843    -0.009783525001642635    -0.009709843674619151    
  -0.009666934918401003    -0.01048830864942571    -0.010421610262218899    -0.01018405337317215    -0.009713818746572097    
  -0.008969924207541226    -0.007930113744746906    -0.006594892353987439    -0.004982395619124631    -0.0031767696005843647    
  -0.0012952017157405083    0.0005579048635101851    0.0022677962734179023    0.00374872449829777    0.004935904563379198    
  0.00580526377935318    0.006333050190670892    0.006512330653378452    0.006333052098157193    0.005805274549648197    
  0.004935899675809018    0.0037487186832580685    0.002267785779001092    0.0005579140780331819    -0.0012952016137145004    
  -0.0031767701213780363    -0.00498241162033448    -0.006594900020400972    -0.007930132775311276    -0.008969932132061396    
  -0.009713797408268693    -0.010184078334725866    -0.010421613605533732    -0.01048830864942571    -0.010007150827241774    
  -0.00987205706295844    -0.009441694581610195    -0.008706931527353731    -0.007686107098484092    -0.006395649966117867    
  -0.004877003895618307    -0.003176741003569809    -0.001381668389282455    0.0004151874625984085    0.0021189936177792236    
  0.003651618195315029    0.004954742873747152    0.005995514269833908    0.006759593017446775    0.007227314108891738    
  0.007389737293609306    0.007227324069974856    0.0067596055074204305    0.005995510469772629    0.004954735715287748    
  0.00365162421802184    0.0021190189831073935    0.0004151918726673234    -0.0013816389474993157    -0.0031767482289453133    
  -0.004876992709644853    -0.00639564615807277    -0.007686107924217658    -0.008706931584589756    -0.009441708398847547    
  -0.009872055751344604    -0.010007150827241774    -0.008488723510295787    -0.008316351217743309    -0.00780405957858101    
  -0.006975964455577391    -0.005859887723992428    -0.004504905170292603    -0.002959757151662155    -0.0012952053285150524    
  0.0004151707900068062    0.0020882689953770407    0.003641561910446208    0.005016069722241184    0.006180971056445179    
  0.007115567659667961    0.007808556065238515    0.008232732317421542    0.008377700004738116    0.008232726659553442    
  0.007808549327515795    0.007115571178429276    0.006180961365523014    0.005016067376718622    0.0036415593486102487    
  0.0020882643852289198    0.00041518489240169413    -0.0012952217596614273    -0.002959752859712517    -0.004504919638606935    
  -0.005859889578497184    -0.0069759422948009134    -0.007804064468229806    -0.008316355758559225    -0.008488723510295787    
  -0.0062626044085573596    -0.006090356665599112    -0.005586946497013922    -0.004779027443584677    -0.0037084066399570787    
  -0.0024242344977151724    -0.0009827570983896032    0.0005579111610258847    0.002119004363318646    0.003641579613236994    
  0.005050294820140315    0.006309280438038784    0.007382190875586417    0.008255753311690525    0.008904024274371517    
  0.009306902575499867    0.00944133859692694    0.009306908666816088    0.008904024353846041    0.008255742805554835    
  0.007382179126665528    0.0063092809217653745    0.00505030182073151    0.0036415552391809527    0.0021190068486181195    
  0.0005579082186146521    -0.000982743801362751    -0.002424244737815149    -0.0037083880744736967    -0.00477902445856335    
  -0.005586946416217548    -0.006090357086134293    -0.0062626044085573596    -0.0037101757217863312    -0.0035626184566823183    
  -0.0031240582006851047    -0.002416318799481498    -0.0014736562448527128    -0.0003483019026330429    0.0009193507755161346    
  0.0022678072113024358    0.0036516222861593638    0.005016058779657757    0.006309276800676528    0.007486230158998335    
  0.00851906416394457    0.009358539115857246    0.009996664800838466    0.010393251923883908    0.010526408245477428    
  0.010393235055783163    0.00999666709695248    0.009358547833817224    0.008519058165247005    0.0074862348780971475    
  0.006309276484295022    0.005016065756506612    0.003651616650201339    0.0022677902795826656    0.0009193501730626999    
  -0.0003483075121396234    -0.0014736689752535635    -0.0024163180215528764    -0.003124080969437591    -0.003562611399636743    
  -0.0037101757217863312    -0.001200982120388361    -0.0010813261691300848    -0.0007274281539005903    -0.00015143621152477658    
  0.0006123918407225013    0.0015420417134410318    0.0025983064678383547    0.003748734763704179    0.004954736058402614    
  0.006180967932950635    0.007382177210324868    0.008519065799046608    0.00953038993064165    0.010377922538612432    
  0.011022138563624623    0.011426547838231885    0.011561449490224343    0.011426552089325134    0.011022151983795121    
  0.010377919969422921    0.00953039981751495    0.008519059467885027    0.007382191322317887    0.006180965938404588    
  0.0049547504489461745    0.003748729203208885    0.002598292293076717    0.0015420397572071091    0.0006123806653002394    
  -0.00015143345107699674    -0.0007274373963825821    -0.0010813312067807172    -0.001200982120388361    0.0009813699850340157    
  0.0010712921791984976    0.0013427831031678932    0.0017824766598715236    0.0023764386836223543    0.003106029419019689    
  0.0039692810819231565    0.004935912068810429    0.005995509461960395    0.0071155795721724036    0.008255749192422704    
  0.009358556331954817    0.010377927279893085    0.011244306686437248    0.011910372611887387    0.012335338546897622    
  0.012476584321767445    0.012335344758113842    0.01191035785223852    0.011244289756636067    0.01037792160495083    
  0.009358550566339876    0.008255737181855932    0.007115576493612067    0.00599551070059982    0.004935897324809433    
  0.003969283914191836    0.0031060185949673266    0.0023764395906535193    0.0017824935753396828    0.001342763694222759    
  0.0010712892909966686    0.0009813699850340157    0.002633700538919357    0.0027017421360435584    0.002897876260862624    
  0.0032254596396564745    0.0036785292609035876    0.0042595840987922785    0.004967437588603601    0.0058052584156482465    
  0.0067595878344431    0.007808560792079371    0.008904031321738982    0.009996663900993625    0.011022136412028826    
  0.011910361981283568    0.012601007878384751    0.01304446438459221    0.0132012178846595    0.013044453524701422    
  0.01260101172080591    0.011910361943144102    0.011022131070374046    0.00999667531117399    0.008904019765528166    
  0.007808544245913072    0.006759595877755224    0.005805259627112181    0.004967442998251151    0.004259577600566662    
  0.003678543655227374    0.0032254634266940213    0.0028978713895819377    0.0027017406176999166    0.002633700538919357    
  0.0036514435733039615    0.0037009183202826104    0.0038517177814213228    0.0041034654460770596    0.0044694753391812505    
  0.00495250653896531    0.005571751177844979    0.00633304536280038    0.0072273140244448805    0.00823273043499937    
  0.009306896470704332    0.01039324682043079    0.01142655941054119    0.01233535129788261    0.013044462300941187    
  0.013503949264840102    0.013663841520475542    0.013503943947619305    0.013044470706374196    0.01233534249123442    
  0.011426551055321643    0.010393235898305691    0.009306905440002471    0.008232731167936986    0.007227317363764814    
  0.006333043751570716    0.005571756211220001    0.004952495587108713    0.0044694751155044095    0.004103471003466339    
  0.003851709129151952    0.0037009223472992754    0.0036514435733039615    0.00399314634507792    0.004037399208971956    
  0.004172738752243604    0.00440063965373689    0.004732375187558073    0.005185628704094228    0.005771823489128131    
  0.006512340754095616    0.007389729404347108    0.008377709850412304    0.009441338869820026    0.010526418395250937    
  0.011561460164691718    0.01247658694422751    0.013201242016260885    0.013663837135802463    0.013826769506988712    
  0.013663834103145771    0.01320123443236821    0.012476585030825847    0.011561448222123348    0.01052642095124724    
  0.009441349768329731    0.008377705459715178    0.007389734077319406    0.006512333674783317    0.005771837557060305    
  0.005185622555138916    0.004732371979903446    0.004400641821113662    0.004172732027856701    0.0040373948436515945    
  0.00399314634507792    0.0036514414839905183    0.0037009197084659448    0.0038517213638808463    0.004103467448053313    
  0.004469474121531253    0.004952504179944177    0.005571746226165763    0.006333049581845624    0.007227318495937736    
  0.008232733116369864    0.009306909004152744    0.010393244625908085    0.011426554171313554    0.01233534500749586    
  0.013044478409783341    0.01350394427215847    0.013663830933508194    0.013503947707758313    0.013044460138428825    
  0.012335340789737477    0.011426552182591558    0.010393251202664131    0.009306901667664746    0.008232726743710903    
  0.007227313196402349    0.0063330407626042895    0.005571758168398041    0.004952501664274006    0.004469477012313908    
  0.004103477328768258    0.0038517069804563796    0.003700920226057036    0.0036514414839905183    0.0026337070550716433    
  0.0027017368003624505    0.0028978899678964915    0.003225462904352271    0.0036785286590550626    0.00425958007531931    
  0.004967433619929458    0.005805269921364234    0.0067595927910031155    0.0078085669698642075    0.008904022345660921    
  0.00999665224929099    0.011022139229101082    0.011910365453553829    0.01260101161833439    0.013044463936444008    
  0.01320122764809444    0.01304447098677002    0.01260101533432837    0.011910357662339175    0.011022150240833096    
  0.009996657967505108    0.00890403305512589    0.007808537292326133    0.006759592174552963    0.005805272246071958    
  0.004967443128639314    0.004259571661131458    0.0036785376524732403    0.0032254644989142753    0.002897884364031786    
  0.0027017380986906797    0.0026337070550716433    0.0009813629572081191    0.0010712772332697805    0.0013427761201060156    
  0.0017824782605427372    0.0023764340639213476    0.0031060382751895697    0.003969281049322946    0.004935902588538785    
  0.005995515782445992    0.0071155824971523614    0.008255737789887616    0.00935853878695286    0.010377923585102105    
  0.01124429536274375    0.01191035588828043    0.012335357837222886    0.012476587289985585    0.01233533554318519    
  0.011910374694335792    0.011244301955724739    0.010377929210611649    0.009358547648042032    0.008255750757466783    
  0.0071155742821042926    0.0059955150575227495    0.004935904539311945    0.003969291300721235    0.0031060294676308596    
  0.0023764303885354383    0.0017824795051290733    0.001342764961536411    0.001071287186524275    0.0009813629572081191    
  -0.0012009817957355144    -0.001081325621394221    -0.0007274337249454721    -0.00015143330862374648    0.0006123890226563749    
  0.0015420316003588949    0.002598293971835375    0.0037487321193593374    0.004954725707906475    0.006180974391013377    
  0.007382184751836417    0.008519054529268785    0.009530396372630591    0.010377919620662797    0.011022129076600358    
  0.011426548801266357    0.011561454006282312    0.011426547296398751    0.011022141766287625    0.010377921386467306    
  0.00953040750623701    0.008519061893149138    0.007382179069086691    0.00618097783645508    0.004954744394075536    
  0.0037487312190428415    0.0025982996221232376    0.0015420395240282004    0.0006123895144370926    -0.00015142757802794    
  -0.0007274338846962266    -0.0010813280686677465    -0.0012009817957355144    -0.0037101737462598367    -0.00356260905683079    
  -0.003124059866236297    -0.002416325063290595    -0.0014736725059565686    -0.00034830618664078475    0.0009193417249324994    
  0.002267801896365142    0.0036516282541080997    0.005016071049212629    0.006309277578426274    0.007486230204726102    
  0.00851905936725743    0.009358544005213966    0.009996662722177838    0.010393245053673747    0.0105264167950791    
  0.010393244374960392    0.009996646894883145    0.009358554743395716    0.008519059366297486    0.007486236862291552    
  0.0063092790509736065    0.005016071096892724    0.0036516227341166795    0.002267785621016789    0.0009193561676849876    
  -0.00034830207885080787    -0.0014736493129170409    -0.0024163042444187415    -0.0031240680537739755    -0.0035626112424213575    
  -0.0037101737462598367    -0.006262605674053251    -0.006090354289091076    -0.005586937215204759    -0.00477905416775253    
  -0.003708393065023062    -0.0024242355253509032    -0.0009827481557087999    0.0005579127884316056    0.0021190241391904866    
  0.0036415753368781705    0.005050308247856773    0.00630927442184838    0.007382180092830621    0.008255747585152856    
  0.008904026686969423    0.009306901127046898    0.009441340417765435    0.009306897350022256    0.008904028907731953    
  0.008255733699878505    0.00738217055363771    0.006309282405991656    0.005050293879110822    0.003641558311438677    
  0.0021190060798932254    0.0005579125811828275    -0.0009827290261634899    -0.002424235161280078    -0.0037083840314647903    
  -0.004779044046251282    -0.005586941326729622    -0.006090357836125085    -0.006262605674053251    -0.00848872608347019    
  -0.008316361176946    -0.007804051698038534    -0.006975955432384775    -0.0058598838009921795    -0.0045048766303120635    
  -0.002959740771646001    -0.001295195342659388    0.00041517495486252453    0.002088274452362224    0.0036415455360091706    
  0.005016071463608187    0.006180972522001593    0.007115575115300199    0.007808549149755395    0.008232734984779102    
  0.008377708642257654    0.008232729458214018    0.007808554738109371    0.007115574174152692    0.006180970937882741    
  0.005016062930388853    0.0036415626012915414    0.002088269977013214    0.0004151762133591026    -0.0012952147059897572    
  -0.0029597433087631127    -0.004504893631023519    -0.005859893003987533    -0.006975958263793413    -0.007804077624873339    
  -0.0083163584674963    -0.00848872608347019    -0.010007146135183102    -0.009872067471189312    -0.009441693036664013    
  -0.008706939338308567    -0.007686098168183632    -0.0063956489056329405    -0.004877001403112773    -0.0031767454242640062    
  -0.0013816580558540681    0.0004151870377471838    0.0021190014552603196    0.003651615969571713    0.004954746723486075    
  0.005995509178975117    0.006759590680178743    0.007227319882637705    0.0073897466259054655    0.00722732322212345    
  0.006759602253577233    0.005995506205219383    0.004954738121743561    0.003651628722017976    0.0021190163780091245    
  0.000415194796905488    -0.0013816518811588796    -0.003176742872352602    -0.004876992042158952    -0.00639566650710012    
  -0.007686106691559537    -0.008706930662281896    -0.009441715089857316    -0.009872062128556689    -0.010007146135183102    
  -0.01048829406039773    -0.01042164465564398    -0.010184053406850564    -0.009713817818450278    -0.008969933188748103    
  -0.007930148441697385    -0.006594915343174102    -0.0049823796110674895    -0.003176773167565538    -0.0012951998950037665    
  0.0005579058023540063    0.0022677915271545326    0.0037487234127998466    0.004935896643721942    0.005805264599581392    
  0.006333049009751601    0.006512326981085925    0.006333043489847582    0.005805264439634437    0.00493590285725092    
  0.003748726197176169    0.0022677859621646358    0.0005579161618502273    -0.0012952070344680253    -0.0031767537180855086    
  -0.004982407284633879    -0.006594897942565547    -0.007930127030910903    -0.00896991951194738    -0.00971379310153017    
  -0.010184068934533913    -0.01042160041535175    -0.01048829406039773    -0.009666939916007746    -0.009709840768880243    
  -0.009783515390490898    -0.009771016840291935    -0.009539830882745327    -0.008956675807071325    -0.00797991992288288    
  -0.006594894571844663    -0.004877007620723548    -0.00295973776230476    -0.0009827406359698909    0.0009193473041449555    
  0.0025982927384145993    0.003969289619545244    0.004967448668325049    0.005571751289453911    0.005771819700076025    
  0.005571737576745461    0.004967448523064266    0.003969268300005489    0.002598288768818804    0.0009193566227035436    
  -0.000982733852661603    -0.0029597505043819027    -0.004877005213366674    -0.0065948922060817365    -0.00797989478837812    
  -0.00895666177849635    -0.009539805662802358    -0.009770997033633983    -0.009783532851490308    -0.009709845924691828    
  -0.009666939916007746    -0.007460413733310268    -0.007669439787706079    -0.008192588373152093    -0.008828195798153903    
  -0.009315426475719299    -0.009409654746233183    -0.008956663808978046    -0.007930118614287105    -0.006395669374973013    
  -0.004504890927241587    -0.0024242339921190124    -0.00034831892008279546    0.0015420340126236576    0.0031060192406585693    
  0.004259571243906909    0.00495249568215285    0.005185614927129579    0.0049524953971248    0.00425957761397034    
  0.003106024055613353    0.0015420421921824357    -0.0003482978289389564    -0.002424237072866567    -0.0045049012526845525    
  -0.006395662034835913    -0.00793014075719554    -0.008956664295598611    -0.009409647306674816    -0.009315404519352095    
  -0.008828176253350091    -0.008192621185247115    -0.0076694446521668085    -0.007460413733310268    -0.00411291576358505    
  -0.004518577438231801    -0.005604411290696385    -0.0070173623827003255    -0.008390690297296399    -0.009315423666302738    
  -0.009539786884401468    -0.008969901436753825    -0.007686099053585223    -0.005859901439530384    -0.0037083806460735153    
  -0.0014736689116409652    0.0006123742426715108    0.0023764302232334522    0.0036785271963374975    0.004469466719218994    
  0.004732368171065655    0.00446947395623258    0.0036785388574656374    0.0023764412986293747    0.0006123846841418962    
  -0.0014736537322138574    -0.0037083830333323516    -0.0058598778369317785    -0.0076861032295397515    -0.00896991253910086    
  -0.009539803972102643    -0.009315398943051853    -0.008390700939295706    -0.007017322125346015    -0.0056044211094642025    
  -0.004518577989025729    -0.00411291576358505    -0.0002009381032896108    -0.0008049835005068503    -0.0024542346665202934    
  -0.004714702610982637    -0.007017363376838626    -0.008828181437892924    -0.009771007355600728    -0.00971379080853741    
  -0.00870693482272635    -0.0069759503924927005    -0.004779017631737598    -0.0024163174092847284    -0.00015143190623687574    
  0.0017824892923529346    0.0032254672552623352    0.004103473150742886    0.0044006413644599425    0.004103470002101726    
  0.0032254608370718783    0.0017824781896760224    -0.0001514377175463381    -0.002416311018035808    -0.004779027850022944    
  -0.006975948539348308    -0.008706926149485778    -0.009713823007793101    -0.009771004712487515    -0.00882817698544671    
  -0.007017319237777414    -0.00471464551645882    -0.002454211512060454    -0.0008049614087703358    -0.0002009381032896108    
  0.0034577555067330608    0.0026849526503698318    0.000545387540893172    -0.0024542733224132605    -0.005604400700250417    
  -0.008192591395643755    -0.009783528837261442    -0.010184072528471724    -0.009441709465533521    -0.007804054873327503    
  -0.005586934573650078    -0.003124066878286393    -0.0007274199982033819    0.001342768807361877    0.0028978840815390007    
  0.0038517120769859256    0.00417272509313246    0.0038517102373376937    0.00289788399849217    0.0013427734374532284    
  -0.0007274361355936968    -0.0031240606857329003    -0.005586943125992369    -0.0078040580056168325    -0.009441734069564486    
  -0.010184067687237053    -0.009783556705272704    -0.008192596550208082    -0.005604395419506611    -0.002454229487681473    
  0.0005453697573668272    0.002684945089386321    0.0034577555067330608    0.006040715227131813    0.005150917608808256    
  0.002685002327992827    -0.0008049655262543671    -0.004518570697456883    -0.0076694276074811005    -0.009709846683820241    
  -0.010421604874025818    -0.009872068314949686    -0.008316343311292605    -0.006090359888872861    -0.0035626116458122837    
  -0.001081329355990162    0.0010712885193210474    0.0027017424018014537    0.0037009316463486744    0.0040373958797416155    
  0.0037009221633524264    0.0027017446606997743    0.0010712991362898572    -0.001081323686449483    -0.0035626171166699317    
  -0.006090352792722022    -0.008316350614773815    -0.009872076099646503    -0.010421625508135546    -0.00970983592258467    
  -0.007669440268159055    -0.004518579939658738    -0.0008049485614960604    0.0026849511607033552    0.005150895779697202    
  0.006040715227131813    0.006975954047435769    0.00604076544019534    0.0034577862829861233    -0.00020092569198297674    
  -0.004112910806600405    -0.0074604283390793304    -0.009666925981645607    -0.010488283388491467    -0.010007182498770247    
  -0.008488725574988892    -0.006262614900306623    -0.0037101899849966325    -0.0012009733794201588    0.0009813670241032846    
  0.0026337180437893807    0.0036514438985606992    0.003993148447838356    0.0036514490540150483    0.0026337116357131826    
  0.0009813690533712507    -0.001200985977925074    -0.0037101817361710077    -0.006262588482074302    -0.00848872137605379    
  -0.01000715974043673    -0.010488305151546194    -0.009666922051350292    -0.007460409667044819    -0.004112912339462067    
  -0.0002009317870967849    0.0034577528561169683    0.006040725912368308    0.006975954047435769    0.008359551155298068    
  0.00745068908745829    0.004908489309015842    0.0012635673050595774    -0.002700713818275915    -0.006197881207100919    
  -0.008620810947863405    -0.009683413785959823    -0.009421100157495884    -0.008074211952258178    -0.0059910302405483265    
  -0.003560310915780678    -0.0011406793724657103    0.0009830170245157053    0.0026105072693880416    0.003617922662617639    
  0.0039567681903699995    0.003617921550812858    0.0026105037290329617    0.0009830217065795715    -0.0011406795002568341    
  -0.0035603054840425514    -0.005991003532155045    -0.0080742079059903    -0.009421080784625214    -0.009683447109825454    
  -0.008620797273985186    -0.006197856222924356    -0.002700711748592916    0.001263560371528521    0.00490846688013276    
  0.007450659426511409    0.008359551155298068    0.007450661241851995    0.006577071431906512    0.004143229743381159    
  0.0006607415628196547    -0.0031249705006066724    -0.00642231744278083    -0.008685883177213945    -0.009633933363933209    
  -0.009298885844770616    -0.00791609516034206    -0.005831300728173864    -0.0034210763499237353    -0.0010304571847139347    
  0.0010679194725267962    0.0026699306563438894    0.0036614384862629435    0.0039947558591914775    0.0036614356308799435    
  0.002669928640109325    0.001067928849364539    -0.0010304694766533563    -0.003421085186637142    -0.005831309195025734    