#     DFTpy    
  CRYSTAL 
    
  PRIMVEC    
  3.35261927119623    -1.8419944e-10    3.491367475862069e-10    
  -1.8419944e-10    3.352619271001419    1.6823096689655175e-10    
  6.380033862068966e-10    3.074719724137931e-10    6.142063480710753    
  PRIMCOORD    
  4    1    
  Si    1.6763096355342408    1.6763096364232357    1.8874207878789218    
  Si    6.216188641779363e-10    -5.752999734088261e-10    1.1836109504117904    
  Si    9.53417228857248e-11    4.3448886451322864e-10    4.958452526815137    
  Si    1.6763096360368361    1.6763096351497386    4.254642696833024    
  BEGIN_BLOCK_DATAGRID_3D    
  3d_datagrid_density    
  BEGIN_DATAGRID_3D#0    
  33    33    61    
  0.0    0.0    0.0    
  3.35261927119623    -1.8419944e-10    3.491367475862069e-10    
  -1.8419944e-10    3.352619271001419    1.6823096689655175e-10    
  6.380033862068966e-10    3.074719724137931e-10    6.142063480710753    
  0.04780751558287106    0.04779160764476542    0.047581956632524396    0.04680611248697951    0.045057554457593935    
  0.042038168217873303    0.0377516445901739    0.03250899755945769    0.026727406251853044    0.020860513747808486    
  0.015282320888114197    0.010264873919824889    0.005984177591945077    0.0025585151116566587    7.872888900075971e-05    
  0.0014179729023024916    0.0019155496960341805    0.0014179743360722378    7.872553557464116e-05    0.0025585054116061905    
  0.005984166802318904    0.010264893553649799    0.015282325677420801    0.02086051159620398    0.026727410896225077    
  0.032509019930809395    0.037751659128986634    0.04203817326654518    0.04505753235523743    0.0468061206868042    
  0.047581952842192396    0.047791622087630374    0.04780751558287106    0.04779157725728391    0.047735767519842064    
  0.04744713241045232    0.04657589658723446    0.04474108059812023    0.04167300277816251    0.037400827075243066    
  0.0321940546571014    0.026469626854708824    0.02065921795178671    0.015133160617285377    0.01015608754061893    
  0.005908195859490857    0.0025147108447532845    6.125281454752515e-05    0.001419711146146088    0.001913584687299    
  0.0014197090330785405    6.125774502691138e-05    0.0025147311210885733    0.005908188214092237    0.010156084706259318    
  0.015133140799216214    0.02065919966350658    0.026469631457300753    0.03219407913568019    0.03740084344125835    
  0.041673004445880076    0.044741075631537806    0.04657587709129112    0.04744713532182243    0.047735721645414446    
  0.04779157725728391    0.04758195424630547    0.0474471475592746    0.04694514772660448    0.04581313127109694    
  0.04374880377276448    0.040572401472040595    0.03630837685555406    0.031211215872512285    0.025653717232373877    
  0.020019812245449006    0.014647975648138955    0.009803970348727504    0.005668306411455972    0.0023750370565487136    
  1.2309796936943153e-06    0.001424754078025281    0.0018977292646938841    0.0014247518981494846    1.2306021712641958e-06    
  0.002375035115926935    0.0056682937314028094    0.009803971576939546    0.014647982765946503    0.02001981514553239    
  0.025653709610374317    0.03121120785339287    0.036308380301201496    0.04057240605165347    0.04374882487343598    
  0.045813154128050086    0.04694515713592244    0.04744715095425385    0.04758195424630547    0.046806072284489506    
  0.04657587599283012    0.045813142023991914    0.04435645365087098    0.042003182065866757    0.038679395298916605    
  0.03445010726072447    0.029530029041557694    0.024227803139762624    0.01887265005563302    0.013764134043217049    
  0.009155575907329717    0.005231909295883513    0.0021195534214805494    0.00010902000514883475    0.001440716493032054    
  0.0018794034899064082    0.001440721008291769    0.00010902514988159167    0.002119549076413501    0.005231902335588027    
  0.009155568388878594    0.01376412455279399    0.0188726504813096    0.024227822246335486    0.029530036600045707    
  0.034450112340679094    0.038679409378825025    0.042003202708484205    0.04435647136782881    0.04581312074585881    
  0.04657586182167355    0.046806072284489506    0.0450575459168115    0.04474108021730516    0.0437488068395567    
  0.042003201290893674    0.03941060805657324    0.03597857093998133    0.031827374740538844    0.0271603191210625    
  0.02220491832262457    0.017222342880880235    0.012474950911305765    0.008203603545974368    0.004587651082980962    
  0.001743869998232955    0.0002809342134956531    0.0014804645845518274    0.0018779464575643422    0.0014804634176039681    
  0.00028093339616121573    0.0017438717494932567    0.0045876487684566    0.008203614937438718    0.012474964379958042    
  0.017222351398389478    0.02220492067348885    0.0271603164976372    0.03182738050848264    0.035978580792203126    
  0.03941060969195438    0.04200318686833734    0.043748803804033606    0.04474109329368869    0.0450575459168115    
  0.04203816515642388    0.04167300357769331    0.040572382782971914    0.03867939640304763    0.035978552578332386    
  0.03256119131259996    0.028583245831597465    0.024234291039944303    0.01969389895496454    0.015157608158360534    
  0.010855560653487731    0.007002848552495308    0.003771657380480126    0.0012533087988561551    0.0005268312972702211    
  0.001574320637119384    0.001923020348172579    0.0015743128392808328    0.0005268241157615379    0.0012533160839999038    
  0.0037716539930752755    0.007002856986725709    0.010855542802713548    0.015157604321799354    0.01969388733498283    
  0.024234311997395883    0.02858324296756716    0.03256118878393192    0.03597856792625156    0.03867940368374198    
  0.04057238592173557    0.04167301064283041    0.04203816515642388    0.03775165906263961    0.03740086206061308    
  0.03630838246969592    0.03445011158752699    0.03182738591359896    0.02858325832435241    0.024895689532160314    
  0.02094525985601571    0.016877208292685176    0.012844742255769944    0.009037996022974518    0.005652277134378499    
  0.002838269909189572    0.0006680898745867689    0.0008595529124986752    0.0017601606366546385    0.0020585906381814932    
  0.0017601527269113903    0.0008595569241421491    0.0006680763463205864    0.0028382641551136637    0.005652281205446608    
  0.009037988942703024    0.012844727935271456    0.016877207193966372    0.02094526308916007    0.024895685961021582    
  0.028583257139096457    0.03182739201533298    0.03445012983868405    0.0363083883778941    0.03740085850199633    
  0.03775165906263961    0.03250899117022126    0.03219406003441667    0.031211207169692445    0.0295300154040066    
  0.027160319017551383    0.02423431695536661    0.020945254091063202    0.017465022453378585    0.013919314910781595    
  0.010428248906808477    0.007150481228920006    0.004246738469215963    0.0018488957161045707    2.5802953230980595e-06    
  0.0012923059135045926    0.0020588445788475825    0.0023095023313112637    0.002058844591984341    0.0012923135469652455    
  2.576094976098623e-06    0.0018488872168810012    0.004246737356386419    0.007150476796334434    0.010428250496068305    
  0.01391932902621609    0.017465025822844787    0.02094525298130878    0.024234295240908563    0.027160321682949594    
  0.02953003675882857    0.0312111955881971    0.032194041721741846    0.03250899117022126    0.026727408183643817    
  0.026469630043149242    0.025653695871018255    0.02422780519701143    0.02220492048387509    0.019693906932893177    
  0.01687718806493418    0.013919315712081225    0.010932919242799878    0.008013118555785603    0.005270075507711183    
  0.002842408358495219    0.0008283096056744192    0.0007271394830039563    0.0018225415042419774    0.00247605953667359    
  0.00269351167887838    0.0024760545190275073    0.00182253837310246    0.0007271405176933064    0.0008283065927276016    
  0.002842423346395394    0.005270072634291367    0.008013122830191935    0.010932933551194835    0.013919322167982983    
  0.016877194859354742    0.01969390658904319    0.022204924946709247    0.024227798759799045    0.02565369410932886    
  0.0264696364075695    0.026727408183643817    0.020860503159307858    0.020659209333230354    0.02001980153509679    
  0.018872644697340877    0.017222336643004627    0.015157615205882269    0.012844727493184034    0.010428245203297786    
  0.008013115432903437    0.005658772424817206    0.003445929757791316    0.0014671485841641777    0.000203076879963141    
  0.0015041851183495618    0.0024365605597813666    0.0029951811756959777    0.0031841307937717604    0.002995171181623958    
  0.00243656439639244    0.0015041789073246496    0.00020308707752477275    0.0014671476982871159    0.0034459286578238965    
  0.005658782062131681    0.008013113190509645    0.0104282578656873    0.012844726203878935    0.015157611281065991    
  0.017222341346164544    0.018872641106748453    0.020019804495088132    0.02065920154439927    0.020860503159307858    
  0.015282317600970964    0.015133157075850747    0.014647984905367898    0.013764129374498972    0.012474959528331681    
  0.010855567554649488    0.009037996691372402    0.0071504836213057135    0.005270080444878536    0.0034459408823321437    
  0.0017117227194059523    0.0001321456264059057    0.0012265774889629601    0.0023151769385435055    0.003106317041170564    
  0.0035873565158332935    0.0037469137478252845    0.0035873543965981676    0.003106323187423431    0.0023151778731934866    
  0.0012265910671640367    0.0001321555918455846    0.0017117289707453617    0.0034459327002861217    0.005270076339275788    
  0.00715049022438757    0.009037995277283287    0.010855568462073101    0.012474972041987187    0.013764135179940238    
  0.014647991659750398    0.015133172529634838    0.015282317600970964    0.010264870458928411    0.010156083749738948    
  0.009803962961603813    0.009155565080304467    0.008203596176221498    0.0070028527509807875    0.005652264386075082    
  0.004246735454148245    0.002842412975295719    0.0014671559026012196    0.00013215115028426843    0.0011137690005480114    
  0.002216681593037078    0.0031258611692895066    0.003797738031742376    0.004213902095735605    0.004354628017390727    
  0.004213903876324866    0.003797734265595466    0.0031258652937680743    0.0022166929303081206    0.0011137661905810115    
  0.00013214689124855093    0.001467146515520704    0.0028424177786482664    0.004246732952510205    0.005652270391434952    
  0.007002853531956961    0.008203605310032279    0.009155572535272655    0.009803953367660975    0.010156068322808784    
  0.010264870458928411    0.0059841663418835535    0.005908192905012827    0.005668299837425549    0.005231905441119939    
  0.004587645566167445    0.0037716526193945434    0.0028382543043761243    0.001848885871411176    0.0008283070732660694    
  0.0002030817869155174    0.0012265905879485666    0.002216686190128466    0.0031219784365894374    0.0038893054000042086    
  0.004471511049454285    0.00483716993325612    0.004957245604153244    0.0048371713337019015    0.004471506009334788    
  0.0038893045764908023    0.003121981546633173    0.0022166803638146845    0.0012265880216761034    0.00020307540260996454    
  0.0008283008357595921    0.0018488966659643902    0.002838255424575047    0.0037716588193726806    0.004587649124584709    
  0.005231910509952751    0.005668296664080421    0.0059081902909678    0.0059841663418835535    0.0025584941483616213    
  0.0025147258585514675    0.0023750378302575424    0.002119540666229867    0.0017438700180060316    0.0012533115852389823    
  0.0006680759526594897    2.5737454487918027e-06    0.0007271463199443187    0.001504185718549157    0.0023151781616372797    
  0.003125862227273188    0.003889290212908504    0.004558141063714956    0.00507871572717444    0.005411579237781756    
  0.0055272369233012805    0.00541157568808837    0.005078706366160775    0.004558137381672032    0.003889309353878966    
  0.0031258614445544212    0.0023151870504751985    0.0015041739769832948    0.0007271428807702248    2.59251397945579e-06    
  0.0006680684900420917    0.0012533084301342811    0.0017438709415927317    0.0021195480591655984    0.0023750349416730163    
  0.0025147203102788077    0.0025584941483616213    7.873635085737602e-05    6.126313220720569e-05    1.222682735366437e-06    
  0.00010901802086598783    0.0002809267110800611    0.0005268107892584587    0.0008595506572584702    0.0012923095139424116    
  0.0018225276150017704    0.0024365518534856232    0.003106309418234506    0.00379773085283271    0.004471504413742144    
  0.005078704159456479    0.005566487836407269    0.005887755700359215    0.0059966947536866    0.00588775282142269    
  0.005566481685731326    0.005078700824356538    0.00447151559017305    0.003797721081334288    0.0031063203513120134    
  0.00243655810326588    0.001822537711735683    0.0012923096502436534    0.0008595558160973069    0.0005268119873527103    
  0.00028091954881810714    0.00010901126968145583    1.2288449176353835e-06    6.126489833855979e-05    7.873635085737602e-05    
  0.0014179859351387378    0.0014197102028414956    0.001424756878235515    0.0014407296516439636    0.0014804703321602373    
  0.0015743125611593226    0.0017601625505229105    0.0020588527493553793    0.0024760674789125097    0.0029951803409193787    
  0.003587354552235834    0.00421389473686645    0.0048371764593338855    0.005411586143792062    0.005887766650120689    
  0.006203002565828416    0.00631867560310079    0.0062030072338483296    0.005887759787117608    0.005411583170371227    
  0.004837187850891665    0.004213900492569339    0.0035873606147516324    0.002995182481063275    0.0024760590792422556    
  0.0020588472978853014    0.001760163289190362    0.001574328182531162    0.0014804675648410614    0.001440718352527055    
  0.0014247626866878318    0.0014197179231957328    0.0014179859351387378    0.0019155473531615357    0.0019135763056435887    
  0.0018977322641580395    0.0018794013482645723    0.0018779489083478262    0.0019230170784775354    0.0020585924924176563    
  0.0023094979182815773    0.0026935183325838123    0.0031841243365012795    0.0037469156899302414    0.004354627619660933    
  0.004957248084019019    0.0055272315999286845    0.005996689576294116    0.006318667926332372    0.006430144174810885    
  0.0063186659449278    0.00599669387433654    0.005527239723581051    0.004957253990135551    0.0043546153147801915    
  0.0037469196995455886    0.003184126156406895    0.0026935110185281716    0.002309500128911727    0.0020585922255770155    
  0.0019230164324822165    0.0018779449125298116    0.0018793987538489358    0.0018977311018359194    0.0019135708110720247    
  0.0019155473531615357    0.0014179789347810883    0.0014197115910456323    0.00142476584621966    0.001440724586220446    
  0.0014804674893633574    0.0015743171703427113    0.0017601624956441763    0.002058847529412845    0.002476062011910255    
  0.0029951823348734873    0.0035873602097299564    0.004213900498500036    0.004837171559678764    0.005411593810981326    
  0.00588776642281878    0.0062030082672503515    0.006318679250063168    0.0062029980294482775    0.005887761883946808    
  0.005411580140196243    0.004837183032269576    0.0042138991993324396    0.003587362916250881    0.0029951765237197212    
  0.002476064733383966    0.0020588435549371864    0.0017601626609160296    0.0015743232480172262    0.0014804637129863997    
  0.0014407258760073245    0.0014247589076725347    0.0014197156543051233    0.0014179789347810883    7.873911470692262e-05    
  6.126416041814672e-05    1.232752938031432e-06    0.00010901288586406699    0.000280926248859143    0.0005268107252301862    
  0.0008595505937638031    0.0012923081205375242    0.0018225332164846495    0.002436555937960513    0.003106322943971816    
  0.003797740754874827    0.004471501499780561    0.0050786970653944425    0.005566489563338257    0.005887768483372516    
  0.005996685539583831    0.005887757089782419    0.005566490706090712    0.005078700884197948    0.004471506596564653    
  0.0037977236684783302    0.003106318460003221    0.002436552362718102    0.0018225347382728805    0.0012923111405038251    
  0.000859554489820045    0.0005268150244831199    0.0002809166294360071    0.00010901834270781238    1.2283064580092554e-06    
  6.126886646372657e-05    7.873911470692262e-05    0.002558493069689942    0.0025147303084698393    0.0023750305489722776    
  0.002119538257008933    0.00174387027305122    0.001253312908107524    0.000668071627431004    2.578662109773639e-06    
  0.0007271370661925668    0.0015041844100484524    0.002315184222987393    0.003125867389853725    0.0038892892437587465    
  0.004558135631168122    0.005078705880108583    0.005411577826088773    0.005527240926733808    0.005411584327081184    
  0.005078707408723292    0.0045581365780166215    0.0038893033022980163    0.0031258634837732003    0.0023151845644228688    
  0.0015041799233305284    0.0007271333776874351    2.570661900610508e-06    0.0006680737870553848    0.0012533082017066987    
  0.0017438716772561445    0.0021195468854648125    0.0023750267341472943    0.0025147176784995184    0.002558493069689942    
  0.005984158588049071    0.005908190572021447    0.005668297909679356    0.0052319064710501665    0.004587647224390711    
  0.0037716605138079853    0.002838253528878157    0.0018488856201315804    0.0008283128947741243    0.00020308247679203304    
  0.0012265958902457732    0.0022166912014849193    0.0031219683922533836    0.003889296334351447    0.004471511514451808    
  0.0048371710775740725    0.00495724619536149    0.004837175958307321    0.004471516068257895    0.003889301176905883    
  0.0031219855654826267    0.002216681200619469    0.0012265986942116612    0.00020307147753832204    0.0008283057730144045    
  0.0018489007207835458    0.002838253547758707    0.0037716612202469777    0.004587645884677285    0.005231907343248822    
  0.00566829850407911    0.005908187002917816    0.005984158588049071    0.010264875920525052    0.01015608412537764    
  0.009803962312802577    0.009155557059127638    0.008203596965604387    0.007002860410152953    0.005652275360979508    
  0.004246734853107714    0.002842419028355878    0.0014671567163180926    0.00013214829922890173    0.0011137778939665874    
  0.002216680908195994    0.0031258625076343964    0.0037977441479346637    0.0042139020668938    0.0043546245031631375    
  0.004213900496659846    0.0037977371141296634    0.0031258602237723516    0.002216684113380317    0.0011137623588197629    
  0.00013213734272112687    0.0014671458017130703    0.002842408205373302    0.004246744371589835    0.005652271819113973    
  0.007002845546089201    0.008203604221832497    0.009155566667748385    0.009803961380408894    0.010156076439992936    
  0.010264875920525052    0.015282329021727901    0.015133166123041606    0.014647984911368225    0.013764129911404526    
  0.012474966305728892    0.010855569154430833    0.009037991504179195    0.007150481212856168    0.005270079118489968    
  0.0034459413823072784    0.0017117324173173863    0.00013214842293091185    0.0012265862650952936    0.0023151702875455512    
  0.003106319105090666    0.003587360831527542    0.0037469154654842835    0.0035873551409830707    0.003106319909117828    
  0.0023151698236305042    0.001226585757817624    0.00013216194198667036    0.0017117310929394094    0.003445943330372784    
  0.005270089193672413    0.007150488419909299    0.0090379893403831    0.010855555817532269    0.012474969209375332    
  0.013764137295223544    0.014647994415475544    0.015133155093951729    0.015282329021727901    0.02086051126389381    
  0.02065921163414258    0.020019801422103155    0.018872633091318414    0.017222336749807964    0.015157611593331365    
  0.01284473368062331    0.010428243962922672    0.008013114104527048    0.005658779644141998    0.0034459342530960124    
  0.00146715405217634    0.00020308793066723391    0.0015041773709595272    0.002436557012710962    0.0029951852910073537    
  0.003184125938802681    0.002995189075334051    0.002436558133627668    0.0015041817984961705    0.00020309117667168103    
  0.0014671545522053952    0.0034459292335270787    0.005658769208596398    0.008013119845055055    0.010428246005970213    
  0.012844729988665921    0.015157601427984098    0.017222358180568907    0.018872648701359407    0.020019803806060034    
  0.020659188358533472    0.02086051126389381    0.026727385232226213    0.02646963792767881    0.025653705720610983    
  0.024227808391625246    0.022204913714258763    0.01969390030271382    0.016877193977871383    0.013919320808624772    
  0.010932917355349323    0.008013113030683338    0.005270075360887816    0.0028424144632318003    0.0008282997274402209    
  0.0007271341396034104    0.0018225318954070027    0.0024760540406293845    0.002693509331781763    0.0024760609410719413    
  0.001822541676975878    0.0007271434525171973    0.0008283083420088035    0.0028424181398517263    0.0052700713662377115    
  0.008013114584469714    0.010932918595954305    0.01391932100770593    0.016877200101765747    0.019693903472059703    
  0.02220492116885686    0.0242278087877533    0.025653698332408187    0.026469623888992207    0.026727385232226213    
  0.032508996438688556    0.03219404815537961    0.031211184283898897    0.029530027968752315    0.02716030818843189    
  0.02423429921033391    0.020945250568913033    0.017465027605595596    0.013919316659470063    0.010428250896624573    
  0.007150486033948292    0.004246733643451719    0.00184889482460454    2.56859647931412e-06    0.0012923132199974866    
  0.00205884071590666    0.0023095007681728035    0.00205883994975716    0.0012923163473257673    2.5775505190109173e-06    
  0.0018488865777509678    0.004246728150008344    0.007150476456736562    0.01042824669894017    0.013919319462107883    
  0.017465032464395416    0.02094527047330425    0.02423431016062075    0.02716031938769329    0.029530032301618048    
  0.031211191030917122    0.03219405562519912    0.032508996438688556    0.0377516806366544    0.03740086953151099    
  0.036308386497370865    0.03445012001536465    0.031827377400542145    0.02858326044223821    0.02489569902143258    
  0.020945269883263454    0.01687720457454991    0.012844731878544333    0.009037995734551597    0.005652266706315269    
  0.0028382662095549358    0.0006680790448522966    0.0008595556001097831    0.0017601638573001264    0.002058596646552356    
  0.0017601548215640487    0.0008595575894566955    0.0006680820586547418    0.0028382578906703676    0.005652283060462739    
  0.009037996077257297    0.01284473783398887    0.016877200447469765    0.020945262838434845    0.024895681846876124    
  0.028583252238189947    0.03182739436202881    0.03445012917979975    0.03630837773537357    0.037400868909503324    
  0.0377516806366544    0.04203815010214947    0.04167302039748752    0.04057239908794668    0.03867939736484692    
  0.03597855322996859    0.03256119927795824    0.02858324121096166    0.024234286186516126    0.01969389802088264    
  0.015157621544217764    0.01085556523516643    0.007002850385719508    0.003771659232254331    0.0012533084384026365    
  0.0005268266582819809    0.0015743202840965862    0.0019230195241761513    0.00157432328227037    0.0005268202230662188    
  0.001253310184051278    0.0037716494097487234    0.007002849163421985    0.010855554196646177    0.015157611432472684    
  0.019693906971280036    0.0242342973846501    0.02858323075181578    0.03256118365894293    0.03597857913560269    
  0.038679406357193274    0.040572380331610515    0.041672998362391384    0.04203815010214947    0.04505754462837325    
  0.044741089391786865    0.043748787882132045    0.04200317317531324    0.03941059820151332    0.035978569369906926    
  0.031827380876166586    0.0271603069171805    0.02220492143044098    0.01722234224341854    0.01247495761041165    
  0.008203599237110554    0.00458764606660096    0.0017438764402980228    0.0002809243706258727    0.0014804612229407507    
  0.0018779474242062995    0.001480463263955376    0.00028093097052555275    0.001743876552785223    0.004587637766224171    
  0.008203604561982318    0.012474958667436442    0.01722235460609403    0.022204913654653838    0.02716033264244394    
  0.031827371007643636    0.0359785625716962    0.03941060256892398    0.04200319714321354    0.04374878266910399    
  0.04474107780165161    0.04505754462837325    0.04680610445030841    0.046575883623908555    0.045813140662846544    
  0.04435644366745769    0.04200319585459421    0.038679405300036857    0.03445011297872415    0.02953003831804923    
  0.024227810167535526    0.0188726485211863    0.013764142327799036    0.00915557607456413    0.005231912412357508    
  0.0021195504622824385    0.00010902444298649069    0.0014407153968400022    0.0018794060222886992    0.0014407117791997942    
  0.0001090217558103025    0.002119555645444467    0.005231899948139674    0.00915557007452012    0.013764115499919863    
  0.018872654790037805    0.024227803997725905    0.02953004853182961    0.034450119739787594    0.03867940435213673    
  0.042003191007566505    0.04435646719539698    0.04581311272728951    0.046575896304360515    0.04680610445030841    
  0.047581962921012445    0.04744714017448516    0.04694514320936446    0.0458131486249808    0.043748823354364565    
  0.04057240398433486    0.036308406543281095    0.031211208786919954    0.025653709472902988    0.020019812277519887    
  0.01464799308277398    0.009803966625855629    0.005668309011564851    0.0023750436765495333    1.2372818529036607e-06    
  0.0014247556703300738    0.0018977325645711965    0.0014247477017453728    1.236081907820102e-06    0.0023750359314960797    
  0.0056683004398141645    0.009803979680554678    0.01464797973176188    0.020019819183431833    0.025653708675658533    
  0.031211219330647223    0.036308373437451635    0.04057240163472813    0.04374883583083245    0.04581314212202743    
  0.046945157070181674    0.04744715242945756    0.047581962921012445    0.04779155881830842    0.04773577645604309    
  0.04744712479577066    0.04657588059560331    0.04474107769530481    0.04167299674334515    0.03740083937391679    
  0.03219405440883803    0.026469625614195434    0.0206592061724178    0.01513315265442904    0.010156076003540319    
  0.005908183637912312    0.002514720482862912    6.125073502924492e-05    0.0014197172966271424    0.0019135872266960682    
  0.001419714817510442    6.124789535290676e-05    0.0025147152398818915    0.005908174790087418    0.010156082424398593    
  0.015133148070631135    0.020659210372513462    0.026469628210975395    0.03219406032821732    0.037400836129826816    
  0.041672993928354475    0.04474108012208121    0.04657589751986876    0.04744712051225023    0.047735721158054925    
  0.04779155881830842    0.04780751558287106    0.04779160764476542    0.047581956632524396    0.04680611248697951    
  0.045057554457593935    0.042038168217873303    0.0377516445901739    0.03250899755945769    0.026727406251853044    
  0.020860513747808486    0.015282320888114197    0.010264873919824889    0.005984177591945077    0.0025585151116566587    
  7.872888900075971e-05    0.0014179729023024916    0.0019155496960341805    0.0014179743360722378    7.872553557464116e-05    
  0.0025585054116061905    0.005984166802318904    0.010264893553649799    0.015282325677420801    0.02086051159620398    
  0.026727410896225077    0.032509019930809395    0.037751659128986634    0.04203817326654518    0.04505753235523743    
  0.0468061206868042    0.047581952842192396    0.047791622087630374    0.04780751558287106    0.04549316627255499    
  0.0454763951520721    0.04534402249326239    0.04472536233979967    0.04321772850129079    0.04052357384192063    
  0.03661843865654646    0.031733176623519925    0.02624923828964153    0.02059800412697018    0.015174885890120384    
  0.010264656169467047    0.006055344257189393    0.0026812916040150955    0.0002262502982644586    0.0012569167697858647    
  0.0017513230622620212    0.0012569162299163902    0.00022624729122949089    0.0026812836838484783    0.006055337988154353    
  0.010264667504973032    0.01517488556596414    0.020598006772797522    0.026249250711575578    0.03173317527089135    
  0.036618442004320385    0.04052357041748078    0.043217742858899406    0.04472535756068734    0.04534403118945312    
  0.045476386298329466    0.04549316627255499    0.04547635290031832    0.04545956000495372    0.045243508410973424    
  0.04453367217327176    0.04294733027554136    0.04021277721054598    0.03630126862389909    0.03144211257489614    
  0.02600238732247159    0.020403440623156174    0.01502822449410127    0.010158380931229614    0.005986997313145255    
  0.002644476010426112    0.00021368959620164896    0.0012527619232852872    0.0017412052887220853    0.0012527592584833938    
  0.00021369201071416396    0.002644489445370861    0.005986984109858413    0.010158387127926785    0.015028195382428581    
  0.02040342650370764    0.02600238744662622    0.03144213161715509    0.03630127414753921    0.04021277011846704    
  0.042947345152877354    0.04453367389917838    0.04524351095784291    0.04545955443487722    0.04547635290031832    
  0.045344050476859785    0.04524353848884139    0.044847682808699434    0.043896110530008706    0.0420948997460492    
  0.03923544010361438    0.0353163276577073    0.030531429477314884    0.025226061612032225    0.019786525351875965    
  0.014560517661254099    0.00982466437020845    0.00576756137542724    0.002521639379268776    0.00017142625482451963    
  0.00124192393181672    0.0017125732548305148    0.0012419189382431692    0.0001714303386099905    0.002521639503090111    