#     DFTpy    
  CRYSTAL 
    
  PRIMVEC    
  3.283729834116861    -1.8041000000000003e-10    3.4196000000000003e-10    
  -1.8041000000000003e-10    3.2837298339260506    1.6477000000000002e-10    
  6.248900000000001e-10    3.0115000000000004e-10    6.0158566968605305    
  PRIMCOORD    
  4    1    
  Si    1.6418649169958703    1.6418649178665903    1.8486381689499003    
  Si    6.088500000000001e-10    -5.634800000000001e-10    1.1592901774581201    
  Si    9.338000000000002e-11    4.2556e-10    4.8565665159901705    
  Si    1.6418649174881301    1.6418649166192603    4.167218531829611    
  BEGIN_BLOCK_DATAGRID_3D    
  3d_datagrid_density    
  BEGIN_DATAGRID_3D#0    
  33    33    61    
  0.0    0.0    0.0    
  3.283729834116861    -1.8041000000000003e-10    3.4196000000000003e-10    
  -1.8041000000000003e-10    3.2837298339260506    1.6477000000000002e-10    
  6.248900000000001e-10    3.0115000000000004e-10    6.0158566968605305    
  -0.0015052102665945868    -0.0020843023227102584    -0.0036604527614212427    -0.005825992248696488    -0.007985890322925205    
  -0.009558240312049507    -0.010157166839644773    -0.009657094104024471    -0.008184588821945591    -0.005991218080696415    
  -0.0033567865495349103    -0.0005951980484668888    0.0019919233588283256    0.004177749181943211    0.00580263431664431    
  0.00679210549801754    0.0071224654297064325    0.006792088525092069    0.005802625613160396    0.004177737505781041    
  0.0019919228834911584    -0.0005952003613999052    -0.0033568005489335094    -0.005991236127695185    -0.008184576592559892    
  -0.009657090978104294    -0.010157165260996297    -0.009558274419740182    -0.007985883903091507    -0.005826007671959735    
  -0.003660415375756985    -0.0020843077481322394    -0.0015052102665945868    -0.002084296390294057    -0.0026299267213899928    
  -0.0041216235223441805    -0.006166164569404553    -0.008183972481544712    -0.009616504044223343    -0.010100688455736237    
  -0.009532547301601748    -0.008022762845256591    -0.0058136601177637805    -0.003192663801553122    -0.0004629603065349567    
  0.0020926672170628107    0.004247702288473362    0.005850668779388257    0.006822020807628534    0.007147325679236787    
  0.0068220205982989154    0.00585066325075838    0.004247696340715695    0.002092674013420234    -0.0004629543392363525    
  -0.003192649615490491    -0.0058136527211714315    -0.00802274109679106    -0.009532554153957163    -0.010100705284683148    
  -0.009616553077608973    -0.008183980976143245    -0.0061661464891303785    -0.004121562546164971    -0.0026299189028036705    
  -0.002084296390294057    -0.003660484905801336    -0.004121600026423135    -0.005378608666016085    -0.007068673159680135    
  -0.008682198285640628    -0.009713829140230912    -0.009893298183782479    -0.009132130029135958    -0.0075183251081420086    
  -0.005288222408728022    -0.00271406906515432    -7.038314660498014e-05    0.0023906748034451773    0.004459978860701918    
  0.005987966089002729    0.006915009871318897    0.007225356193709888    0.006915005513471272    0.005987967582437187    
  0.004459961995832622    0.0023906838158650207    -7.037687355295039e-05    -0.0027140650727170705    -0.005288229504536657    
  -0.00751832492392838    -0.009132108266304265    -0.009893292711966912    -0.0097138430681151    -0.008682163818621781    
  -0.007068650453011964    -0.005378580169260863    -0.004121604273507049    -0.003660484905801336    -0.005826004720849733    
  -0.006166147141733814    -0.007068678836215315    -0.008221523264675467    -0.009224886128718704    -0.009717568619069495    
  -0.009464799687620538    -0.008422754472282343    -0.006677566939828973    -0.0044457087203501775    -0.0019495439529813845    
  0.000561649657306021    0.002875661567808034    0.004804034329194994    0.006220328767168924    0.007073437327018045    
  0.007360741495027778    0.007073437209449466    0.0062203290863482585    0.004804024866375895    0.0028756624715861752    
  0.0005616664015121022    -0.0019495363382550442    -0.004445725585987607    -0.0066775528434469145    -0.008422744568195582    
  -0.009464819898467123    -0.009717564895916523    -0.009224888715768953    -0.008221516084830217    -0.007068641946138563    
  -0.0061661285793966    -0.005826004720849733    -0.007985893495632211    -0.008183949312261548    -0.00868219433073611    
  -0.009224895087928515    -0.009575807458861189    -0.009463512186621201    -0.008746657132600704    -0.007402403045945556    
  -0.005539199521334918    -0.0033231114173980407    -0.0009426194865045497    0.0014007036834592398    0.0035173427404368044    
  0.005269811254710381    0.00654571572825    0.007313854156241309    0.007568042709303369    0.007313843400050253    
  0.006545706267221597    0.005269784515143278    0.0035173610174770954    0.0014006850288039322    -0.0009426290817115027    
  -0.0033231170946731886    -0.0055392006449724    -0.00740240362834683    -0.008746647477275401    -0.009463543207889832    
  -0.009575831157873943    -0.009224913363594663    -0.008682179977091546    -0.008183982499659846    -0.007985893495632211    
  -0.009558252088383436    -0.00961650870393229    -0.009713811891280458    -0.009717565205698598    -0.009463536383476695    
  -0.008806290611721758    -0.007672745570977331    -0.00608834100535273    -0.00414068858983694    -0.0019771223977056965    
  0.0002571130827050496    0.0023985440522781977    0.004298483825639338    0.0058439573906212215    0.006971009709760493    
  0.007643143322221219    0.007868495189707872    0.007643143742994358    0.0069710093122819314    0.005843956668761241    
  0.0042984994434283105    0.0023985439927865894    0.00025711649709078227    -0.0019771278295943923    -0.004140665346720916    
  -0.006088332063666534    -0.007672755832237756    -0.00880632368904965    -0.00946351336100547    -0.009717557900833937    
  -0.009713807313328732    -0.009616520527414218    -0.009558252088383436    -0.010157207574291961    -0.010100699823029427    
  -0.00989330616419301    -0.009464798371519041    -0.008746667408407198    -0.0076727533602150505    -0.00625473399555881    
  -0.004513803984088981    -0.002539600631052934    -0.0004618232787868813    0.0015955219602704002    0.003519801848903849    
  0.005186575725962286    0.0065302525792209545    0.007500381111131559    0.008084607959944257    0.008277577467020252    
  0.008084605231660713    0.007500388224467625    0.006530249038480626    0.005186581934353542    0.0035198058129671315    
  0.0015955285503808639    -0.0004618190704990624    -0.0025395884084999875    -0.004513800969411826    -0.006254716620694755    
  -0.007672777106071295    -0.00874665443574424    -0.009464795896830627    -0.009893286604560347    -0.010100704383822335    
  -0.010157207574291961    -0.009657095674784923    -0.009532569135781668    -0.009132128281086034    -0.008422767387480322    
  -0.007402398368905332    -0.006088337840184705    -0.004513779989824018    -0.0027179790484622253    -0.0007919801792654222    
  0.0011511586486265448    0.0030181027289759126    0.0047097533250548    0.006156028930050035    0.007305369154798155    
  0.00814241220479558    0.008648964623078298    0.00882083100415153    0.008648953740329632    0.008142418915463842    
  0.007305356520115397    0.006156037052637063    0.004709749710526248    0.0030181275617287605    0.001151166368094308    
  -0.0007919605078147381    -0.002717973773416836    -0.004513802060333731    -0.006088375316306846    -0.007402415319394921    
  -0.008422754211622403    -0.009132092579639326    -0.00953256576600777    -0.009657095674784923    -0.00818458221224562    
  -0.008022748483943245    -0.007518301073955933    -0.006677570118834003    -0.00553919592562568    -0.004140661128236952    
  -0.002539574672532208    -0.0007919733381267248    0.001014490769579097    0.0027911452711661044    0.004452014886138615    
  0.005929314470558319    0.00717517167395375    0.008164974697188956    0.00888961156525419    0.009332687763656408    
  0.00948660883445153    0.009332682632270517    0.00888960248252685    0.008164958979562681    0.007175165666308373    
  0.005929311781654498    0.004452015653032496    0.002791135220316007    0.0010144829092877798    -0.0007919788128853749    
  -0.0025395914364686723    -0.004140704006587606    -0.005539185877343027    -0.006677556496662316    -0.007518307518587591    
  -0.008022759944071652    -0.00818458221224562    -0.005991222096829248    -0.005813658092664356    -0.005288218199959815    
  -0.004445742121719708    -0.003323098174582301    -0.001977126172602169    -0.00046181740841851814    0.0011511711666769273    
  0.002791128658492976    0.0043805574707051105    0.005844112136116322    0.00713027025647457    0.008214903586104959    
  0.009082931481898314    0.009726297249909515    0.010120173386089906    0.01025493926291169    0.010120172758335155    
  0.009726307322476471    0.009082910783279491    0.00821491444811782    0.007130276814589581    0.005844123087763021    
  0.0043805631945058    0.002791148753437142    0.0011511596767395025    -0.0004618150784466759    -0.0019771270510027614    
  -0.003323097940001762    -0.00444572451050233    -0.005288204991800122    -0.0058136731082337675    -0.005991222096829248    
  -0.0033568040431950406    -0.003192659419187532    -0.0027140775210327092    -0.0019495533929275854    -0.0009426360694274727    
  0.0002571064514316722    0.0015955208635337389    0.003018114795684936    0.00445201334181262    0.005844124640394119    
  0.007125934526430718    0.008266949039192437    0.009236484087586427    0.010025545605280328    0.010611715686926938    
  0.010976539798315137    0.011098293650377653    0.010976536919301137    0.010611697375455763    0.010025542836443687    
  0.00923648498504201    0.008266966106923958    0.007125944507416399    0.005844115663351348    0.004452018169539283    
  0.00301811282981747    0.001595525677523486    0.00025710183155714034    -0.0009426305498427361    -0.00194952720901442    
  -0.002714075178255063    -0.0031926635692557707    -0.0033568040431950406    -0.000595191548863102    -0.00046297121766720073    
  -7.038152219258642e-05    0.0005616708459712088    0.0014007068326626505    0.002398556591844578    0.0035198160864601293    
  0.004709759585051056    0.005929308448126165    0.007130271536847157    0.008266959966688522    0.009299959651310618    
  0.010206456209148097    0.010942882025519404    0.01150436712551902    0.011853956796866669    0.01197130873603475    
  0.011853947800124442    0.011504368828491403    0.010942877297411635    0.010206452500824373    0.009299974867874296    
  0.008266969715847816    0.007130279985893601    0.005929309700047545    0.0047097569759033    0.00351980019379231    
  0.0023985417886179562    0.00140070080013937    0.0005616664989158475    -7.03637652172497e-05    -0.00046296999672416667    
  -0.000595191548863102    0.001991926260734327    0.002092687855718195    0.002390677435019884    0.0028756721473447546    
  0.0035173553785950223    0.0042984940348665375    0.0051865759590627725    0.006156046253191648    0.007175172671373579    
  0.008214910078447898    0.009236481776312035    0.01020644911876595    0.011070459900791016    0.011796020933808878    
  0.012349009266135863    0.012696934442133226    0.012812755858326964    0.012696922668023533    0.012348997022893852    
  0.011795994743721262    0.011070473394959084    0.010206455384558314    0.009236482453141206    0.008214916226642487    
  0.0071751810036142505    0.006156041029611192    0.005186584161699312    0.004298484383751873    0.00351735899227929    
  0.0028756682833764938    0.00239068439876285    0.0020926715254827723    0.001991926260734327    0.004177750691482645    
  0.004247700954260712    0.004459956853851394    0.004804023136398468    0.005269795243662277    0.005843963903589763    
  0.0065302560938605425    0.007305375657061727    0.008164965391455043    0.009082924093587876    0.01002554496847243    
  0.010942880268402904    0.011796013244892935    0.01252346961896952    0.013084650795342958    0.0134441969419297    
  0.0135633148234358    0.013444190378171725    0.013084668692937488    0.012523477489314644    0.011796010434216802    
  0.010942879708185905    0.010025557628312937    0.00908293007077834    0.008164973728591932    0.007305357218008508    
  0.006530246545447221    0.0058439450153753075    0.005269802738610214    0.004804027791618687    0.004459975016360379    
  0.004247694542553651    0.004177750691482645    0.00580262342698331    0.005850671241593334    0.005987951508988774    
  0.006220331980591727    0.006545686594319987    0.006970997577643399    0.007500383806802226    0.008142423859336102    
  0.00888959355060977    0.009726295163524171    0.010611703289855237    0.011504360295571907    0.01234899757223593    
  0.013084654200995598    0.01365942155660371    0.01403033707935829    0.01416228939129844    0.014030326466047231    
  0.013659420071932032    0.013084640473994888    0.012348991831759738    0.011504364240746716    0.010611712004760732    
  0.009726305628051785    0.008889601294914992    0.008142413828550982    0.007500387625116107    0.00697099268458347    
  0.006545698600412221    0.006220332461772928    0.005987961533766624    0.005850668284293618    0.00580262342698331    
  0.006792099813739894    0.006822015580716445    0.006915013696830856    0.007073435667651008    0.007313848445960286    
  0.007643150261225682    0.008084620323998119    0.008648958125267536    0.009332683350565625    0.010120168145197863    
  0.010976534413017644    0.011853941578128193    0.012696930930783328    0.013444186524839844    0.014030333852644144    
  0.014412740067825192    0.01454641431061606    0.014412723843919365    0.01403033057209506    0.01344416575538794    
  0.012696920242299872    0.011853959816629499    0.010976550654726285    0.010120172627498552    0.009332693856493747    
  0.008648953030678471    0.008084607434971507    0.007643142884789774    0.007313846305494894    0.007073440124291447    
  0.006915015256375774    0.006822022809164296    0.006792099813739894    0.007122472988186088    0.007147330898941785    
  0.007225353457907499    0.007360744649920474    0.007568047109506964    0.007868506119731576    0.008277578671671159    
  0.00882083586061479    0.00948660637229823    0.0102549466722395    0.011098302914369204    0.011971305076823213    
  0.012812762570564294    0.013563321090918653    0.0141622915778875    0.01454641917285458    0.01468261101023418    
  0.014546405278209027    0.014162280095204252    0.013563300816655986    0.012812753972816596    0.011971304092339891    
  0.011098298506975468    0.010254938862326892    0.009486610284770793    0.00882083348896887    0.008277584913367577    
  0.00786847326243016    0.007568045821482217    0.0073607429244118144    0.007225366357813236    0.007147328789325089    
  0.007122472988186088    0.00679211111463063    0.006822025748030685    0.006915009431693198    0.007073430366000562    
  0.007313842027941059    0.007643138126537515    0.008084614337613703    0.008648957484725056    0.009332671260677954    
  0.010120183721867213    0.010976537820613528    0.011853943145824412    0.012696931570714472    0.013444183361028813    
  0.014030335168062824    0.014412731399463816    0.01454640289136062    0.014412727812147526    0.014030336090026642    
  0.013444177184252068    0.012696924807717946    0.011853953061504607    0.010976544865078533    0.0101201760434713    
  0.009332699007725376    0.008648951491764248    0.008084610004368458    0.007643134081062143    0.007313841872300022    
  0.007073437454145504    0.006915015895707088    0.00682202031223998    0.00679211111463063    0.005802626234839477    
  0.005850661409902448    0.005987954209396684    0.006220319677753934    0.006545694035624073    0.006971008136326908    
  0.007500383088938058    0.008142406530413458    0.008889601082670538    0.009726297783306364    0.010611703100122301    
  0.0115043556756238    0.012348993522013657    0.013084654321152097    0.01365942926996265    0.014030334108232945    
  0.014162275824600364    0.014030325187256427    0.013659410802417872    0.013084646386362208    0.012348990141189238    
  0.01150436404038324    0.010611706464721905    0.009726305618987505    0.008889605994130325    0.008142418897553115    
  0.0075003870775328845    0.006970989284194268    0.006545698240837134    0.006220331485231234    0.005987966420884149    
  0.005850665789162715    0.005802626234839477    0.004177740456565836    0.004247696578033961    0.004459954270673747    
  0.004804019467894198    0.005269802668044661    0.00584396777925431    0.006530256980434457    0.007305365866499514    
  0.008164969365280255    0.009082923409199039    0.010025546574798828    0.010942875814238119    0.011795995162086738    
  0.012523485502013232    0.013084648452274592    0.013444195744006047    0.013563305845160639    0.013444178460702956    
  0.01308465719116529    0.012523474593043904    0.011795988646375202    0.010942884190571607    0.01002555131577482    
  0.009082917225325279    0.008164969557928985    0.007305366919647688    0.006530253640521765    0.0058439581059782685    
  0.005269802927867679    0.004804032683494504    0.0044599735375635925    0.004247695170290725    0.004177740456565836    
  0.001991924875153627    0.002092688327108295    0.002390675778962027    0.002875661563036713    0.0035173564351308915    
  0.004298498634033136    0.005186588999790449    0.0061560377919136966    0.007175171816038151    0.008214919342805313    
  0.009236485790616523    0.01020645168898116    0.011070474047498741    0.011796008259263868    0.012349016606398163    
  0.012696930715551762    0.012812759612489268    0.012696929542790352    0.012348998233784544    0.011795999209754549    
  0.011070476309956058    0.010206465471431997    0.009236491598553451    0.008214900750903675    0.007175171451536504    
  0.0061560470172809115    0.0051865873165506384    0.004298483505762601    0.003517354739835663    0.002875672594765948    
  0.0023906854955149525    0.002092669941791337    0.001991924875153627    -0.000595191941635114    -0.00046295867273540614    
  -7.037478287472867e-05    0.0005616616551484077    0.0014007012158095892    0.002398547951837479    0.0035198178882635245    
  0.004709755656908964    0.005929308841524626    0.007130274908180254    0.008266969542511967    0.009299961972687341    
  0.010206454064727595    0.010942877692115266    0.011504367351613452    0.011853959079476575    0.011971321104075786    
  0.011853956642353504    0.011504386400160287    0.010942871577017033    0.010206465017397783    0.009299966710765719    
  0.008266970086910894    0.007130275612395493    0.0059293145576442404    0.004709760172514126    0.003519803628035078    
  0.002398531932764105    0.0014007113290359621    0.0005616690613033234    -7.036700668633169e-05    -0.00046295596956883746    
  -0.000595191941635114    -0.0033568043924398017    -0.0031926494238362618    -0.002714077114233016    -0.0019495452880887497    
  -0.0009426412048667131    0.00025710367589148195    0.0015955139621787078    0.0030181281442957764    0.00445202000816027    
  0.005844114840154439    0.007125931044487264    0.008266956365731637    0.009236487419275506    0.010025545999833308    
  0.01061170695793174    0.010976539724374179    0.011098293723220576    0.010976531399641701    0.010611711675911751    
  0.010025544118651008    0.009236490073270305    0.008266959231598177    0.007125938080967865    0.0058441210807067935    
  0.00445201127344734    0.0030181286248810116    0.0015955353303957636    0.0002570932609311084    -0.0009426235026335426    
  -0.0019495239285516144    -0.002714062880912438    -0.003192666210202931    -0.0033568043924398017    -0.005991229399883336    
  -0.005813671667364009    -0.005288225354813291    -0.004445731110728329    -0.0033230993470763927    -0.0019771131346962736    
  -0.00046181274214325915    0.0011511696068496138    0.0027911438437125975    0.004380557894544871    0.005844109280065583    
  0.007130270145681779    0.008214910195585363    0.009082929056703482    0.009726291961016608    0.010120172933022906    
  0.010254936507862676    0.010120170683726509    0.009726298914405532    0.009082921783197723    0.008214900032852974    
  0.007130277584775212    0.00584411243966655    0.004380554473874741    0.0027911494385841635    0.0011511626662273485    
  -0.0004618309445429306    -0.0019771294554707768    -0.0033231044368832972    -0.004445712640387817    -0.005288202797185604    
  -0.005813660902616255    -0.005991229399883336    -0.008184584761173765    -0.008022739081836953    -0.00751832286568876    
  -0.006677565000476247    -0.005539192073328887    -0.004140667723937383    -0.002539587091519988    -0.0007919769055977916    
  0.001014492103580128    0.0027911359396550293    0.004452012155897641    0.0059293000229085355    0.007175171851212655    
  0.008164971044313008    0.008889609990363007    0.009332694766034925    0.00948661153070717    0.0093326870338832    
  0.00888960948375798    0.008164953590152287    0.007175170948723679    0.0059293000023349805    0.004452021524444166    
  0.0027911402896295926    0.0010144942760764433    -0.0007919769138459065    -0.0025395808386539584    -0.004140701747830115    
  -0.0055391832801437385    -0.0066775670938512945    -0.007518312118188325    -0.008022752273032905    -0.008184584761173765    
  -0.009657080573167724    -0.009532550205754284    -0.009132145273834616    -0.00842276491809612    -0.007402411074529201    
  -0.006088361435287666    -0.004513797359426916    -0.0027179676672039604    -0.0007919923003582059    0.001151158100791761    
  0.003018125980582329    0.00470975739428939    0.006156031314298055    0.007305369421024404    0.008142419853624003    
  0.008648957932568677    0.008820833874245027    0.008648967379979923    0.00814242381406292    0.007305356642984829    
  0.006156027182273879    0.004709749916104451    0.003018128825565467    0.001151164427370893    -0.0007919711669461026    
  -0.0027179777444513594    -0.0045138147025754315    -0.00608837533960092    -0.0074024004181852225    -0.008422756641392203    
  -0.00913210079685107    -0.00953254120959077    -0.009657080573167724    -0.01015721388318148    -0.010100699524479919    
  -0.009893327294627472    -0.00946480984360254    -0.008746656952486644    -0.007672763400130487    -0.006254733293662042    
  -0.004513808876958234    -0.002539583665205619    -0.0004618135188887054    0.0015955172696521184    0.0035197949453249235    
  0.0051865841945549    0.006530250468015629    0.0075003914279392885    0.008084619805600123    0.008277573159063469    
  0.008084617400461546    0.007500383221952701    0.0065302438310875935    0.005186586096769801    0.0035198034220843863    
  0.0015955333928315103    -0.00046180798508060157    -0.0025395923182824336    -0.004513819373662365    -0.006254727585291752    
  -0.007672787161836153    -0.008746643469490212    -0.009464808893107971    -0.009893281119453883    -0.010100705281095107    
  -0.01015721388318148    -0.00955823847478467    -0.009616513830518002    -0.009713817317680448    -0.009717579060698199    
  -0.00946351281441689    -0.008806303453967344    -0.007672743861509484    -0.0060883512708377946    -0.004140695725660831    
  -0.001977116034367798    0.00025710797856684444    0.0023985457603881623    0.00429849185346638    0.005843954314048601    
  0.006971005446116958    0.007643151693834951    0.007868490079203183    0.007643147468071596    0.006971003910085272    
  0.005843956012144034    0.0042984797677377805    0.0023985469701237033    0.0002571075261137666    -0.0019771119258017505    
  -0.004140667041163666    -0.006088355936392846    -0.0076727550803566465    -0.008806299995996998    -0.009463551863213801    
  -0.009717564978465851    -0.009713812712437934    -0.009616542954818721    -0.00955823847478467    -0.007985885369583527    
  -0.008183968181015876    -0.008682202216237127    -0.009224872362069888    -0.009575820792019457    -0.009463526121384546    
  -0.008746668084035155    -0.007402401527321333    -0.005539197077753772    -0.0033230969777748036    -0.0009426214116799373    
  0.0014007102450813175    0.0035173520437296792    0.005269806142416483    0.006545713595118025    0.007313855783989526    
  0.007568045685518322    0.007313840166031395    0.0065456946498415975    0.0052697829682663445    0.0035173582475687237    
  0.0014007021609868814    -0.0009426252006784508    -0.003323089489336532    -0.005539194284350736    -0.007402401634695827    
  -0.008746645147278836    -0.009463554531159485    -0.009575797469640539    -0.009224897328632766    -0.008682190338557643    
  -0.008183989234386627    -0.007985885369583527    -0.005825992998872805    -0.00616613877008035    -0.007068665826242496    
  -0.008221502541326616    -0.009224909801682354    -0.009717561575035876    -0.009464793724209426    -0.00842274435615468    
  -0.006677565978060441    -0.004445721798494408    -0.0019495471462245564    0.0005616645073563022    0.002875664654618499    
  0.004804027749367105    0.0062203307474639185    0.007073441186109346    0.007360743957185268    0.007073432728504166    
  0.006220337499365017    0.004804027120547378    0.002875655917386975    0.0005616747971092105    -0.0019495257106067743    
  -0.004445713384959064    -0.006677560831031701    -0.008422740976974754    -0.009464833974537594    -0.00971757746922348    
  -0.00922488700383656    -0.008221505824212527    -0.007068662044699076    -0.006166095708560357    -0.005825992998872805    
  -0.003660447365688617    -0.004121599429171376    -0.005378599141292974    -0.007068668846370335    -0.008682212001946507    
  -0.009713823065031116    -0.009893307627116094    -0.009132113194447948    -0.007518312628002921    -0.005288229741007537    
  -0.0027140717236100874    -7.038377453386533e-05    0.0023906833808122066    0.004459971959179508    0.0059879638041588955    
  0.006915007687025221    0.007225351631019896    0.006915005213145656    0.005987968233834117    0.00445995698951112    
  0.0023906813618804427    -7.037345054772602e-05    -0.0027140643406599017    -0.005288221503222049    -0.0075183212135830155    
  -0.009132121528085931    -0.009893287740643965    -0.009713829725841266    -0.008682223011480335    -0.007068646282717127    
  -0.005378582429920051    -0.004121603726885034    -0.003660447365688617    -0.0020843130454839555    -0.0026299245936203994    
  -0.004121605842075952    -0.006166145876145466    -0.008183964061014574    -0.00961651721576826    -0.0101006980000998    
  -0.009532534575227604    -0.008022751823011149    -0.005813665744252809    -0.0031926652062780254    -0.0004629669461604261    
  0.002092669131638518    0.0042477004065786745    0.0058506642399134366    0.006822026606192387    0.007147318266183234    
  0.006822016652519737    0.005850669144198219    0.00424769087728652    0.002092682589555635    -0.00046296032146705843    
  -0.003192668236506813    -0.005813664987989466    -0.008022765105554984    -0.00953256392012878    -0.010100730935694264    
  -0.00961652040115874    -0.008183964646902605    -0.006166128469041913    -0.004121587948290165    -0.0026299114967192746    
  -0.0020843130454839555    -0.0015052102665945868    -0.0020843023227102584    -0.0036604527614212427    -0.005825992248696488    
  -0.007985890322925205    -0.009558240312049507    -0.010157166839644773    -0.009657094104024471    -0.008184588821945591    
  -0.005991218080696415    -0.0033567865495349103    -0.0005951980484668888    0.0019919233588283256    0.004177749181943211    
  0.00580263431664431    0.00679210549801754    0.0071224654297064325    0.006792088525092069    0.005802625613160396    
  0.004177737505781041    0.0019919228834911584    -0.0005952003613999052    -0.0033568005489335094    -0.005991236127695185    
  -0.008184576592559892    -0.009657090978104294    -0.010157165260996297    -0.009558274419740182    -0.007985883903091507    
  -0.005826007671959735    -0.003660415375756985    -0.0020843077481322394    -0.0015052102665945868    -0.0003972276267886623    
  -0.0009469574366592551    -0.00247122580240598    -0.004603218154529586    -0.0067881994356278706    -0.008476638280934402    
  -0.009256826167362378    -0.008964368370118828    -0.00768165284889738    -0.005636614263641903    -0.003127095103242986    
  -0.0004738588447520334    0.0020327521586046755    0.00416591272015634    0.005769424863957365    0.0067504758654937675    
  0.0070785710966482914    0.006750458457795572    0.005769413702654927    0.004165886178193421    0.002032761977469423    
  -0.0004738583317453813    -0.003127093755716084    -0.0056366380259872135    -0.0076816339600046515    -0.008964384619797918    
  -0.009256826824208622    -0.008476708103353412    -0.006788193562762606    -0.004603235637379964    -0.0024711821952362665    
  -0.0009469579352998145    -0.0003972276267886623    -0.0009469476121778719    -0.0014726688966018762    -0.0029210562494734788    
  -0.004938561983587914    -0.007000653353353458    -0.008547141383388189    -0.009219332852089404    -0.00885468202475948    
  -0.0075309170760885485    -0.005471859553032272    -0.002974387016109645    -0.0003492177340940448    0.0021248083787709566    
  0.0042313168988677196    0.005809399134679913    0.006774840390111298    0.007097603746177387    0.0067748393666789836    
  0.005809406046678594    0.004231306110951561    0.002124811058897014    -0.0003492302509082917    -0.0029743677263413173    
  -0.005471865997751027    -0.007530884480738052    -0.00885467816656039    -0.009219338136197188    -0.008547170718243319    
  -0.007000643925346125    -0.004938544202707238    -0.002920994826006542    -0.0014726575433055326    -0.0009469476121778719    