
     Program PWSCF v.6.5 starts on 10Apr2024 at 18:14:48 

     This program is part of the open-source Quantum ESPRESSO suite
     for quantum simulation of materials; please cite
         "P. Giannozzi et al., J. Phys.:Condens. Matter 21 395502 (2009);
         "P. Giannozzi et al., J. Phys.:Condens. Matter 29 465901 (2017);
          URL http://www.quantum-espresso.org", 
     in publications or presentations arising from this work. More details at
     http://www.quantum-espresso.org/quote

     Serial version
     Reading input from he.in
Warning: card &IONS ignored
Warning: card / ignored
Warning: card &CELL ignored
Warning: card / ignored
Warning: card &FCP ignored
Warning: card / ignored
Warning: card &RISM ignored
Warning: card / ignored

     Current dimensions of program PWSCF are:
     Max number of different atomic species (ntypx) = 10
     Max number of k-points (npk) =  40000
     Max angular momentum in pseudopotentials (lmaxx) =  3

     gamma-point specific algorithms are used
     Message from routine setup:
     using ibrav=0 with symmetry is DISCOURAGED, use correct ibrav instead

     G-vector sticks info
     --------------------
     sticks:   dense  smooth     PW     G-vecs:    dense   smooth      PW
     Sum        6817    6817   1701               423701   423701   52923



     bravais-lattice index     =            0
     lattice parameter (alat)  =      18.8973  a.u.
     unit-cell volume          =    6748.3346 (a.u.)^3
     number of atoms/cell      =            1
     number of atomic types    =            1
     number of electrons       =         2.00
     number of Kohn-Sham states=            4
     kinetic-energy cutoff     =      60.0000  Ry
     charge density cutoff     =     240.0000  Ry
     convergence threshold     =      1.0E-06
     mixing beta               =       0.7000
     number of iterations used =            8  plain     mixing
     Exchange-correlation= PBE
                           (   1   4   3   4   0   0   0)

     celldm(1)=  18.897261  celldm(2)=   0.000000  celldm(3)=   0.000000
     celldm(4)=   0.000000  celldm(5)=   0.000000  celldm(6)=   0.000000

     crystal axes: (cart. coord. in units of alat)
               a(1) = (   1.000000   0.000000   0.000000 )  
               a(2) = (   0.000000   1.000000   0.000000 )  
               a(3) = (   0.000000   0.000000   1.000000 )  

     reciprocal axes: (cart. coord. in units 2 pi/alat)
               b(1) = (  1.000000  0.000000  0.000000 )  
               b(2) = (  0.000000  1.000000  0.000000 )  
               b(3) = (  0.000000  0.000000  1.000000 )  


     PseudoPot. # 1 for He read from file:
     /Users/valeria/Documents/PP/nc/He.upf
     MD5 check sum: bea2bb8a1cebdc3616da13d914a49928
     Pseudo is Norm-conserving, Zval =  2.0
     Generated using ONCVPSP code by D. R. Hamann
     Using radial grid of  722 points,  3 beta functions with: 
                l(1) =   0
                l(2) =   0
                l(3) =   1

     atomic species   valence    mass     pseudopotential
        He             2.00     4.00260     He( 1.00)

     48 Sym. Ops., with inversion, found



   Cartesian axes

     site n.     atom                  positions (alat units)
         1           He  tau(   1) = (   0.5000000   0.5000000   0.5000000  )

     number of k points=     1  Gaussian smearing, width (Ry)=  0.0050
                       cart. coord. in units 2pi/alat
        k(    1) = (   0.0000000   0.0000000   0.0000000), wk =   2.0000000

     Dense  grid:   211851 G-vectors     FFT dimensions: (  96,  96,  96)

     Estimated max dynamical RAM per process >     166.05 MB

     Initial potential from superposition of free atoms

     starting charge    2.00000, renormalised to    2.00000

     negative rho (up, down):  1.604E-04 0.000E+00
     Starting wfcs are    1 randomized atomic wfcs +    3 random wfcs

     total cpu time spent up to now is        0.9 secs

     Self-consistent Calculation

     negative rho (up, down):  1.604E-04 0.000E+00

     iteration #  1     ecut=    60.00 Ry     beta= 0.70
     Davidson diagonalization with overlap
     ethr =  1.00E-02,  avg # of iterations =  6.0

     Threshold (ethr) on eigenvalues was too large:
     Diagonalizing with lowered threshold

     Davidson diagonalization with overlap
     c_bands:  2 eigenvalues not converged
     ethr =  3.57E-07,  avg # of iterations = 20.0

     negative rho (up, down):  4.328E-05 0.000E+00

     total cpu time spent up to now is        3.9 secs

     total energy              =      -5.71523430 Ry
     Harris-Foulkes estimate   =      -5.71522409 Ry
     estimated scf accuracy    <       0.00000824 Ry

     iteration #  2     ecut=    60.00 Ry     beta= 0.70
     Davidson diagonalization with overlap
     ethr =  4.12E-07,  avg # of iterations =  3.0

     total cpu time spent up to now is        4.6 secs

     End of self-consistent calculation

          k = 0.0000 0.0000 0.0000 ( 26462 PWs)   bands (ev):

   -15.7443  -0.1554   1.2299   1.2303

     the Fermi energy is    -7.2570 ev

!    total energy              =      -5.71523615 Ry
     Harris-Foulkes estimate   =      -5.71523471 Ry
     estimated scf accuracy    <       0.00000061 Ry

     The total energy is the sum of the following terms:

     one-electron contribution =      -6.45051799 Ry
     hartree contribution      =       3.37381335 Ry
     xc contribution           =      -2.03795825 Ry
     ewald contribution        =      -0.60057326 Ry
     smearing contrib. (-TS)   =      -0.00000000 Ry

     convergence has been achieved in   2 iterations

 Energies determined by pw2casino tool
 -------------------------------------
 Kinetic energy      2.4982909590984614       au  =     4.9965819181969229       Ry
 Local energy       -4.2918835661906583       au  =    -8.5837671323813165       Ry
 Non-Local energy   -1.4316663895813810       au  =    -2.8633327791627621       Ry
 Ewald energy      -0.30028663224905472       au  =   -0.60057326449810944       Ry
 xc contribution    -1.0189791247712823       au  =    -2.0379582495425645       Ry
 hartree energy      1.6869066765092018       au  =     3.3738133530184036       Ry
 Smearing (-TS)     -7.8078000509278640E-090  au  =    -1.5615600101855728E-089  Ry
 Total energy       -2.8576180771866913       au  =    -5.7152361543733825       Ry
 -------------------------------------
 Total energy0      -2.8576180771847133       au  =    -5.7152361543694266       Ry
 External energy0    0.0000000000000000       au  =     0.0000000000000000       Ry
 -------------------------------------

