#     DFTpy    
  CRYSTAL 
    
  PRIMVEC    
  1.204105702504757    -2.0855722544216544    0.0    
  1.204105702504757    2.0855722544216544    0.0    
  0.0    0.0    4.071181202551724    
  PRIMCOORD    
  2    1    
  Si    1.204105702504757    0.6951907514738848    1.017795300637931    
  Si    1.2041057025047572    -0.6951907514738848    3.0533859019137926    
  BEGIN_BLOCK_DATAGRID_3D    
  3d_datagrid_density    
  BEGIN_DATAGRID_3D#0    
  11    11    19    
  0.0    0.0    0.0    
  1.204105702504757    -2.0855722544216544    0.0    
  1.204105702504757    2.0855722544216544    0.0    
  0.0    0.0    4.071181202551724    
  0.23007899472853383    0.2449454601131868    0.28705718152655874    0.34588964152536583    0.3999938015367867    
  0.42256669480785514    0.3999938167532853    0.3458896522477689    0.28705718213891446    0.2449454528296204    
  0.23007899472853383    0.24494545201962784    0.24494486658795567    0.2736259557249051    0.32475609615448187    
  0.3815172604375799    0.4197352462917325    0.4197370587897559    0.38150702829120015    0.324761037265412    
  0.27362509773394295    0.24494545201962784    0.2870571992813315    0.2736259821261577    0.28705768569286233    
  0.32475507668508835    0.37447662757702344    0.415852548116202    0.4318502528754434    0.4158568234072108    
  0.3744776467294622    0.324761059498112    0.2870571992813315    0.3458896516063447    0.3247561155893964    
  0.32475502681456137    0.3458988128709648    0.38151406790365344    0.4158515779631075    0.4357041111021767    
  0.4357113708031717    0.41585679133087494    0.38150704966788507    0.3458896516063447    0.39999379543386865    
  0.381517235644675    0.37447661999667    0.38151406765871504    0.39997625495122807    0.4197408979932303    
  0.43185377626513627    0.4357040975674786    0.43185022708978804    0.41973706332014893    0.39999379543386865    
  0.4225666860162032    0.4197352587814889    0.41585253258393395    0.41585161252836184    0.419740881963674    
  0.42257063949576473    0.419740902848506    0.41585158830679675    0.4158525446802204    0.41973523698831405    
  0.4225666860162032    0.3999938100809243    0.4197370757522424    0.4318501893747495    0.43570409789585995    
  0.4318537214163977    0.4197409281319636    0.39997625509163603    0.38151405294207263    0.3744766120852219    
  0.38151725734542496    0.3999938100809243    0.34588966067414917    0.3815070123288402    0.4158567814505529    
  0.4357113835071043    0.43570410921122243    0.415851596347997    0.38151405875076394    0.3458988337911872    
  0.3247550553079037    0.32475609629505564    0.34588966067414917    0.2870571919720816    0.3247610556852789    
  0.37447765862839416    0.4158568031348602    0.43185023511611453    0.4158525400669378    0.37447666031634497    
  0.3247550545028967    0.2870576833640482    0.27362598177964265    0.2870571919720816    0.2449454429104386    
  0.27362507071987024    0.3247610748170963    0.3815070062546084    0.4197370798918067    0.41973520228026184    
  0.38151725633966965    0.324756074165007    0.2736259612361088    0.24494485801981775    0.2449454429104386    
  0.23007899472853383    0.2449454601131868    0.28705718152655874    0.34588964152536583    0.3999938015367867    
  0.42256669480785514    0.3999938167532853    0.3458896522477689    0.28705718213891446    0.2449454528296204    
  0.23007899472853383    0.24769181388952266    0.26281697630301976    0.3054680668250777    0.3638888680837823    
  0.41541470501645533    0.43602199137780884    0.4153971835586664    0.36389358952717027    0.3054743834810143    
  0.2628195082563694    0.24769181388952266    0.26281953397432    0.2628213738166438    0.28728489406999264    
  0.3300672196105812    0.3760553480072119    0.40642758193921963    0.40643018610122283    0.3760614897709849    
  0.330063448515056    0.2872825027647671    0.26281953397432    0.305474415978152    0.29635716794741473    
  0.3054700265520108    0.3300667976204032    0.3606204416546897    0.38578188494593296    0.39594837052729226    
  0.385781803854088    0.36061738947969274    0.33006346781085155    0.305474415978152    0.36389357911287534    
  0.3548606856032382    0.3548618944101208    0.3638942324037939    0.37605317092484    0.3857794857706378    
  0.39201416740163975    0.39201451715322055    0.3857818258599499    0.3760614978775896    0.36389357911287534    
  0.4153971531795279    0.4162275798287972    0.4146698617205295    0.4162324786610729    0.41540171349726124    
  0.40643431794165213    0.3959497397664336    0.3920141192941367    0.39594834209054786    0.40643018460020613    
  0.4153971531795279    0.4360219627886136    0.45349114872841473    0.4548014610030256    0.4548016452355986    
  0.45347910864322705    0.4360256273666645    0.40643432199046214    0.3857794749205497    0.3857818783551193    
  0.406427558591862    0.4360219627886136    0.41541473770111365    0.45348382418054856    0.4663512276857221    
  0.46528217544516637    0.4663579917750709    0.45347913262916467    0.41540173602062846    0.3760531158581967    
  0.360620409710303    0.3760553918934664    0.41541473770111365    0.36388885964216416    0.41622356029512103    
  0.4548028811727211    0.4652920569335336    0.46528219084206146    0.45480164498234926    0.4162324773406762    
  0.36389424394752234    0.33006677855655475    0.3300671919694952    0.36388885964216416    0.30546807100024925    
  0.35486604269545285    0.41467627470935536    0.45480289629037246    0.4663512604494177    0.45480147114568403    
  0.41466991480448223    0.3548619178404046    0.3054700232523036    0.28728494002626676    0.30546807100024925    
  0.2628169733542476    0.2963652755162585    0.35486603384329113    0.4162235641704204    0.45348384011549026    
  0.4534911028152759    0.4162275871037306    0.35486064318347676    0.29635716299085524    0.26282136327499306    
  0.2628169733542476    0.24769181388952266    0.26281697630301976    0.3054680668250777    0.3638888680837823    
  0.41541470501645533    0.43602199137780884    0.4153971835586664    0.36389358952717027    0.3054743834810143    
  0.2628195082563694    0.24769181388952266    0.29603768912333095    0.3118081863165402    0.354869611804231    
  0.4082309467662974    0.44635644016842463    0.458370842079617    0.4462901080511652    0.40824415551075566    
  0.3549099694508414    0.31180438767475754    0.29603768912333095    0.3118043948714438    0.3117980409944046    
  0.3321053639634088    0.3668339639656412    0.40123313688205575    0.42165716969146655    0.42166709563699106    
  0.40128493099778983    0.3668209709604566    0.3320702162941362    0.3118043948714438    0.3549099969819647    
  0.35010693516076863    0.35486958265132895    0.36682717297531675    0.37909796293253695    0.38756741571936804    
  0.39097953939072827    0.38756821748865694    0.3790572072504056    0.36682098956052406    0.3549099969819647    
  0.40824415177347945    0.40718574526752693    0.4072292467101021    0.4082401605718193    0.40123015355932384    
  0.3875722037720326    0.37821433245543984    0.37819660200591954    0.3875682444933671    0.4012849440515433    
  0.40824415177347945    0.44629013592211353    0.4463944155557503    0.4399698191851877    0.4464082908814749    
  0.4463509681856875    0.4216649194792452    0.39096820637939084    0.37821430732372785    0.3909794977346367    
  0.4216670847461721    0.44629013592211353    0.4583708212818827    0.45366791640478854    0.42187571639260446    
  0.4218604961312312    0.4535944801666307    0.45839922522859206    0.42166494977318036    0.3875721887627712    
  0.38756741784909565    0.4216571881627862    0.4583708212818827    0.44635648131221534    0.45363608613274636    
  0.4017131666112784    0.36735316608817803    0.40177553519432624    0.4535945181387964    0.44635102743840505    
  0.4012300975252243    0.3790979476907876    0.4012331464443069    0.44635648131221534    0.40823096331920344    
  0.4463911504420662    0.42187174103219177    0.36738504563555147    0.3673532103215008    0.4218604839460376    
  0.44640832184988877    0.4082401738734373    0.36682714804289973    0.36683394432456917    0.40823096331920344    
  0.35486963375885594    0.40723579393742626    0.4399682733254715    0.4218717657977281    0.40171321017540706    
  0.42187572836509407    0.43996988438117424    0.4072292620268584    0.35486960587981226    0.33210540361210994    
  0.35486963375885594    0.31180818119524145    0.3500940033764096    0.4072357820030621    0.44639112532296804    
  0.45363610152936296    0.4536678660294762    0.44639443126461464    0.40718571091283307    0.35010690550196877    
  0.3117980237849849    0.31180818119524145    0.29603768912333095    0.3118081863165402    0.354869611804231    
  0.4082309467662974    0.44635644016842463    0.458370842079617    0.4462901080511652    0.40824415551075566    
  0.3549099694508414    0.31180438767475754    0.29603768912333095    0.3577768804573853    0.3742696196857478    
  0.41550948465439874    0.4537294829382598    0.4630297588389599    0.4590457982507599    0.46286761826269357    
  0.45375512918578276    0.4156267230905687    0.3742446991604778    0.3577768804573853    0.3742447049230176    
  0.3742343480530518    0.39093842050743055    0.41719328070320316    0.4378072603780698    0.4463710396084852    
  0.4463883285809233    0.43795093465747403    0.41716430228095935    0.39083368005964436    0.3742447049230176    
  0.4156267457789787    0.4142264957242248    0.41549329384618233    0.41716096254085044    0.4139679518622573    
  0.4079217597879357    0.40546782996180625    0.40793411642347877    0.4138390872148043    0.41716430064219395    
  0.4156267457789787    0.45375513727219413    0.4522355025597178    0.45237768630885766    0.4537709486396974    
  0.43780864201292746    0.40794425472481244    0.38639747638026467    0.38634842806293074    0.40793410615465514    
  0.437950977215399    0.45375513727219413    0.4628675651731369    0.43260220855155834    0.4085690645287523    
  0.4326197257623288    0.46300502006152355    0.4463774393196741    0.40543364995761466    0.38639745680203214    
  0.40546780764782825    0.44638830720998385    0.4628675651731369    0.4590458015930528    0.3832219746372575    
  0.29417160064134606    0.2941303028754998    0.38305215051578534    0.45914736702112957    0.4463774325900196    
  0.4079442781104613    0.4079217691675355    0.4463710389578419    0.4590458015930528    0.4630297728995186    
  0.3831393588328874    0.2389334382259903    0.17842740628867831    0.239074590518368    0.38305221271425055    
  0.46300498822836045    0.4378086076149796    0.413967913678694    0.43780722801276745    0.4630297728995186    
  0.45372951352534724    0.4325837257692745    0.294171323623518    0.17849234105250072    0.17842741670207307    
  0.2941302927809103    0.4326196813350733    0.45377096951646756    0.4171609411199389    0.41719328062582905    
  0.45372951352534724    0.4155094753464566    0.452394483791147    0.40853288635809015    0.294171347599328    
  0.23893347119035338    0.29417160417199256    0.408569094092143    0.4523776984467579    0.415493292077173    
  0.3909384645583876    0.4155094753464566    0.37426958835494195    0.41415321706091807    0.45239448781797853    
  0.43258373921482396    0.38313937686006716    0.38322192014673373    0.432602221770083    0.4522354469717023    
  0.4142264836028782    0.37423431814980657    0.37426958835494195    0.3577768804573853    0.3742696196857478    
  0.41550948465439874    0.4537294829382598    0.4630297588389599    0.4590457982507599    0.46286761826269357    
  0.45375512918578276    0.4156267230905687    0.3742446991604778    0.3577768804573853    0.4022291321125216    
  0.41924493412041813    0.457405927527971    0.4786976120866089    0.4610302447485482    0.4437973694441727    
  0.46081701943754966    0.4787266014832657    0.4575877718338908    0.41920103394715813    0.4022291321125216    
  0.4192010925340764    0.41918650896131754    0.43423098662389326    0.4540620869080732    0.46332021192897316    
  0.4626577719497285    0.46268401207953    0.46351445431946    0.4540305693468093    0.43406500020619326    
  0.4192010925340764    0.45758781553044936    0.4573166598470016    0.4573755836495848    0.4540202982785935    
  0.44145566170501593    0.42643322529407446    0.42051246349919075    0.42645924107071687    0.4412667555399365    
  0.45403059457976763    0.45758781553044936    0.47872658528004386    0.4709667628381654    0.47118660967318765    
  0.4787570762232567    0.4633200072398058    0.4264672208653379    0.39871873086564347    0.39863502054560124    
  0.42645925549117847    0.4635144809215831    0.47872658528004386    0.46081701281927145    0.39752556211732937    
  0.35832034783150307    0.39755093173425987    0.46098770868447136    0.46267809973028734    0.42045057348533005    
  0.3987187194510428    0.42051243347163403    0.4626839967704207    0.46081701281927145    0.4437973755650695    
  0.3095942630585336    0.1937895222625592    0.193731379992581    0.30939994953511885    0.44393565577055427    
  0.46267811931050695    0.42646722017656774    0.4264332080448816    0.46265774987774044    0.4437973755650695    
  0.461030262202493    0.30949846737978715    0.13281552774408897    0.0781997690564444    0.13295567931045388    
  0.309399957224565    0.46098774572568746    0.46331994956206707    0.441455608357773    0.46332026944848187    
  0.461030262202493    0.4786975991106564    0.39749060543058584    0.1937976436515394    0.07824796960174742    
  0.07819977086241832    0.19373136504473054    0.39755094672661834    0.47875709329744115    0.45402027157579683    
  0.4540620455781222    0.4786975991106564    0.45740593992644457    0.47121400095296667    0.3582549121581238    
  0.19379765326358372    0.13281555941979578    0.1937895398131274    0.3583203800949453    0.4711866169563887    
  0.4573755733961084    0.4342310505833107    0.45740593992644457    0.41924492220552156    0.457188241230089    
  0.47121401942912355    0.3974905680208931    0.3094984812122355    0.3095942237373524    0.3975256013691072    
  0.47096670116822453    0.4573166448496517    0.41918652254410055    0.41924492220552156    0.4022291321125216    
  0.41924493412041813    0.457405927527971    0.4786976120866089    0.4610302447485482    0.4437973694441727    
  0.46081701943754966    0.4787266014832657    0.4575877718338908    0.41920103394715813    0.4022291321125216    
  0.4022298099313098    0.41924425171997254    0.45740662113769803    0.47869685800939    0.46103095941293104    
  0.44379668875232836    0.4608177109903912    0.4787258650084614    0.45758852187028753    0.41920035196006494    
  0.4022298099313098    0.4192003885060736    0.419187215625123    0.43423029783473954    0.45406278628689717    
  0.46331952031120743    0.46265848625907735    0.4626833009173618    0.4635151929819838    0.45402987812218193    
  0.43406566317910555    0.4192003885060736    0.4575885295932043    0.45731593163044776    0.4573762715917247    
  0.4540195661487613    0.4414563661817966    0.42643250046899167    0.42051316108153064    0.426458516515628    
  0.44126747369442254    0.4540298712532696    0.4575885295932043    0.47872587730057947    0.47096748737874905    
  0.47118587008672935    0.4787578460156381    0.4633192687481392    0.4264679129822288    0.3987180654616549    
  0.39863568212879935    0.42645853149919155    0.46351521316824124    0.47872587730057947    0.46081773918189867    
  0.39752491191953926    0.35832096074673675    0.39755024724896637    0.4609883936704072    0.4626774028187906    
  0.42045123777564786    0.3987180464931104    0.4205131312240803    0.46268329492755395    0.46081773918189867    
  0.4437966926271119    0.3095948595719317    0.19378904595469018    0.19373185577946334    0.30939933747753967    
  0.44393639483061603    0.46267741362986486    0.4264679155177254    0.42643251065926835    0.4626584877452845    
  0.4437966926271119    0.46103096126316145    0.3094978772498217    0.1328159461914472    0.07819944210780361    
  0.13295608977553092    0.30939934751860504    0.4609884686763085    0.46331920911116864    0.44145634108091336    
  0.4633195181913026    0.46103096126316145    0.4786968859529726    0.3974912856570975    0.1937971451413142    
  0.07824828603739765    0.07819945663290437    0.19373185537421259    0.3975502691671033    0.4787578558080275    
  0.45401954209769985    0.45406277237908066    0.4786968859529726    0.45740666912706923    0.47121329647361193    
  0.3582555369891115    0.19379718007815797    0.13281596319354566    0.19378905315345238    0.35832099343848683    
  0.47118592173653207    0.4573762504465006    0.43423035180164227    0.45740666912706923    0.41924424588805104    
  0.45718897730870217    0.4712132664170772    0.3974912534361327    0.3094978817185912    0.30959481521181403    
  0.39752493764340585    0.4709674169025287    0.45731589600808664    0.41918720207232407    0.41924424588805104    
  0.4022298099313098    0.41924425171997254    0.45740662113769803    0.47869685800939    0.46103095941293104    
  0.44379668875232836    0.4608177109903912    0.4787258650084614    0.45758852187028753    0.41920035196006494    
  0.4022298099313098    0.35777624025002014    0.37427026275013625    0.415508791173785    0.4537302013688022    
  0.4630290225277781    0.45904651167936644    0.4628668851149386    0.4537558355886639    0.4156260426924867    
  0.3742453421667257    0.35777624025002014    0.37424535681214366    0.37423370801278777    0.3909390797423453    
  0.41719262052105005    0.4378079771562264    0.4463703323430813    0.44638901824687305    0.4379502216058583    
  0.41716498533018287    0.39083302902440803    0.37424535681214366    0.41562605180403156    0.4142271739119589    
  0.4154926260257879    0.417161656580362    0.41396726741734213    0.40792243994527544    0.4054671597149745    
  0.40793481124187536    0.41383841011136385    0.4171649747040769    0.41562605180403156    0.4537558527756447    
  0.45223480206567834    0.4523783999974423    0.45377023945070477    0.4378093111327366    0.4079435785148734    
  0.3863981459049133    0.38634777246764335    0.40793477735099093    0.4379502738978879    0.4537558527756447    
  0.46286686453895665    0.4326028948262505    0.40856839141343    0.43262040458327733    0.46300430172210055    
  0.4463781232655968    0.4054329766037874    0.3863981294048291    0.40546712341942925    0.4463890217106402    
  0.46286686453895665    0.4590465111696902    0.38322132185665575    0.2941721727809312    0.29412971694533285    
  0.38305281108526334    0.4591466631519552    0.4463781464731692    0.4079436202146528    0.4079224321355194    
  0.4463703142854343    0.4590465111696902    0.46302905525370186    0.38314001436994544    0.2389329183538829    
  0.17842787377420402    0.23907406441093865    0.38305285461510197    0.4630042631484678    0.43780928867797914    
  0.41396723341878316    0.43780793711710625    0.46302905525370186    0.4537302224017081    0.43258303173551305    
  0.2941719029992892    0.17849187823178791    0.17842787539424504    0.2941297031443406    0.43262037213795945    
  0.4537702471144315    0.41716163258236433    0.4171925919430185    0.4537302224017081    0.41550879027390414    
  0.45239518661235995    0.40853220238142773    0.29417192929990893    0.23893294644293156    0.294172179050462    
  0.408568424391994    0.4523783959692561    0.41549262516992075    0.39093913487677223    0.41550879027390414    
  0.3742702379922158    0.4141525226741646    0.45239520053687277    0.43258304189932373    0.38314002851140755    
  0.383221286314897    0.4326028857169481    0.45223476842957366    0.4142271502681276    0.37423367532242996    
  0.3742702379922158    0.35777624025002014    0.37427026275013625    0.415508791173785    0.4537302013688022    
  0.4630290225277781    0.45904651167936644    0.4628668851149386    0.4537558355886639    0.4156260426924867    
  0.3742453421667257    0.35777624025002014    0.29603824725490474    0.31180758192284436    0.3548702494832948    
  0.4082302850784707    0.4463571529950252    0.4583701272950839    0.4462908245997336    0.40824346287619645    
  0.35491058986137325    0.311803796471007    0.29603824725490474    0.31180384039360315    0.3117986228826909    
  0.3321047426114927    0.3668345991636431    0.40123245308145233    0.4216578744011932    0.42166638540778245    
  0.40128561716892763    0.36682032913107443    0.3320708190550578    0.31180384039360315    0.35491061957256487    
  0.3501062999698428    0.35487023541315044    0.3668265342131526    0.37909860979789706    0.3875667768714012    
  0.3909801820525932    0.38756758488410864    0.37905783927941267    0.36682034063655083    0.35491061957256487    
  0.40824347332046074    0.4071864215072642    0.40722856891321224    0.4082408121356235    0.4012294924759971    
  0.38757286189557605    0.37821365626264003    0.37819725119411823    0.3875675854017709    0.40128562168566806    
  0.40824347332046074    0.44629083216259535    0.4463937233170293    0.4399705187756215    0.4464075909910652    
  0.4463516921840688    0.4216642240572102    0.39096887963166993    0.3782136413795467    0.39098018725723405    
  0.42166637797644785    0.44629083216259535    0.45837011103731556    0.4536686007737288    0.42187504456696395    
  0.42186117414078783    0.4535937900270731    0.4583999333985279    0.42166421996127856    0.387572848311543    
  0.3875667528391101    0.42165785639750786    0.45837011103731556    0.4463571787881312    0.45363538304151113    
  0.4017138329062944    0.3673525265711237    0.4017762213651444    0.45359381026684226    0.446351720930367    
  0.4012294611905364    0.37909857895476545    0.40123250995996584    0.4463571787881312    0.4082303074399705    
  0.4463918676118164    0.4218710646635903    0.3673856933893736    0.36735256869801675    0.42186114402609    
  0.4464076231064942    0.4082408396575335    0.3668265043531949    0.3668345726491177    0.4082303074399705    
  0.35487024970265124    0.40723511145900526    0.4399689927063854    0.4218710823643859    0.4017138826135077    
  0.42187504804359344    0.4399705944431877    0.4072285796359339    0.35487023833609194    0.33210477828358936    
  0.35487024970265124    0.31180757903847733    0.3500946444014109    0.407235135250367    0.44639183002935545    
  0.45363537263656006    0.4536685775424244    0.4463937558932543    0.40718636818489296    0.35010630037235224    
  0.31179861641936474    0.31180757903847733    0.29603824725490474    0.31180758192284436    0.3548702494832948    
  0.4082302850784707    0.4463571529950252    0.4583701272950839    0.4462908245997336    0.40824346287619645    
  0.35491058986137325    0.311803796471007    0.29603824725490474    0.24769128612063016    0.2628175213058396    
  0.30546746342126213    0.36388950213123833    0.41541402639763075    0.4360226784663556    0.4153964846590366    
  0.3638942282360688    0.30547381320392997    0.26282005407834413    0.24769128612063016    0.2628200646632714    
  0.2628208453282582    0.28728548290926237    0.33006660324363407    0.3760560031841255    0.406426887384178    
  0.4064308606045583    0.3760608691830243    0.33006405179260573    0.2872819297566696    0.2628200646632714    
  0.30547381430907267    0.29635773066350474    0.3054694148078946    0.33006739853144    0.36061982138766346    
  0.38578252282887115    0.3959477116982649    0.3857824573641436    0.36061674528512266    0.3300640858734112    
  0.30547381430907267    0.3638942081964043    0.35486006833565964    0.35486252444873495    0.3638935964837949    
  0.376053817677782    0.3857788099494878    0.39201485740027625    0.3920138267480681    0.3857824772039567    
  0.3760608689363514    0.3638942081964043    0.4153965051811829    0.41622824472217035    0.41466917408801784    
  0.41623313834292996    0.415401020346968    0.40643497904957704    0.3959490742728461    0.3920148148133793    
  0.3959476937956209    0.4064308572556126    0.4153965051811829    0.43602265859103845    0.45349044263577815    
  0.4548021486626022    0.4548009368980645    0.4534797961091904    0.43602494937546077    0.40643501378834324    
  0.38577883172001837    0.38578252483618636    0.4064268911942104    0.43602265859103845    0.41541402743260525    
  0.4534845515480419    0.4663505043961726    0.46528289479533286    0.46635727091868245    0.4534798486024102    
  0.4154010559174654    0.3760537638044283    0.3606197904596603    0.37605601311570086    0.41541402743260525    
  0.36388951403848585    0.41622289283427355    0.45480357069838095    0.4652913365873222    0.4652829264495036    
  0.45480092082568624    0.41623315441802605    0.3638935936829025    0.33006738559952253    0.33006658212475554    
  0.36388951403848585    0.30546748822064584    0.35486666812864287    0.41467558228203527    0.4548036135262194    
  0.466350559765849    0.45480218698299074    0.4146692219217771    0.3548625594149976    0.3054694324290773    
  0.28728552251914746    0.30546748822064584    0.2628175276032897    0.2963646850442187    0.35486666372484255    
  0.41622287133133695    0.45348456097854956    0.45349039219427567    0.4162282602165853    0.35486002743418    
  0.29635771177039594    0.2628208169057411    0.2628175276032897    0.24769128612063016    0.2628175213058396    
  0.30546746342126213    0.36388950213123833    0.41541402639763075    0.4360226784663556    0.4153964846590366    
  0.3638942282360688    0.30547381320392997    0.26282005407834413    0.24769128612063016    0.23007950841050134    
  0.24494492954325112    0.2870577504862033    0.3458890164457384    0.39999447139469174    0.42256600531168326    
  0.39999448755760764    0.34588902539602484    0.2870577567265578    0.2449449221531392    0.23007950841050134    
  0.24494491850295824    0.24494539533894147    0.273625398180465    0.3247566999389718    0.3815166022747557    
  0.4197359351075644    0.4197363756106271    0.38150768400171986    0.3247604279624513    0.2736256593817042    
  0.24494491850295824    0.2870577707170374    0.27362542218322633    0.2870582570405053    0.32475446511132416    
  0.37447727149162047    0.4158518605364348    0.4318509482631833    0.4158561428401724    0.3744783018447007    
  0.32476045324434666    0.2870577707170374    0.34588903244480385    0.3247567181430468    0.3247544179752256    
  0.3458994365673211    0.3815134209935482    0.41585226817772203    0.4357034049306332    0.43571206814190716    
  0.4158561093434457    0.3815076991492278    0.34588903244480385    0.3999944649849402    0.3815165844279178    
  0.37447726921631613    0.3815134134527145    0.39997692044878863    0.4197402112110764    0.4318544730661082    
  0.43570339223820814    0.4318509227804804    0.4197363816364933    0.3999944649849402    0.42256600372491104    
  0.41973594332514935    0.4158518513673952    0.4158522892207717    0.4197401969304822    0.4225713269020691    
  0.41974022222339624    0.41585227021047105    0.4158518633740953    0.4197359256021447    0.42256600372491104    
  0.399994483640355    0.419736391301253    0.43185088910960356    0.4357034037682122    0.4318544187916133    
  0.4197402399992034    0.3999769207422132    0.3815133932681555    0.37447726036236    0.38151660373127816    
  0.399994483640355    0.345889035094546    0.3815076717516534    0.4158561056906475    0.4357120862040202    
  0.43570340318618206    0.4158522820605365    0.3815134014961792    0.3458994602400628    0.3247544447767211    
  0.32475670135094764    0.345889035094546    0.28705775769649367    0.3247604468021408    0.3744783068594833    
  0.4158561198301299    0.43185093067869906    0.4158518618408068    0.3744773086086672    0.32475444704217904    
  0.28705825508934424    0.27362542553491886    0.28705775769649367    0.24494491463991888    0.27362562760450665    
  0.324760462472954    0.3815076660556782    0.41973639070741253    0.41973588661904265    0.38151659975519026    
  0.32475668370722344    0.2736254024363431    0.24494538496267543    0.24494491463991888    0.23007950841050134    
  0.24494492954325112    0.2870577504862033    0.3458890164457384    0.39999447139469174    0.42256600531168326    
  0.39999448755760764    0.34588902539602484    0.2870577567265578    0.2449449221531392    0.23007950841050134    
  0.24769128157164963    0.2628200616934946    0.30547380759653    0.363894213246046    0.4153964839566229    
  0.4360226944377928    0.4154140392607004    0.3638895194845427    0.3054674628132183    0.2628175150320807    
  0.24769128157164963    0.2628175390200923    0.2628208267636343    0.29635770183025406    0.35486006377718315    
  0.4162282515739854    0.45349040428410425    0.45348454197380395    0.4162228656447881    0.3548666495126858    
  0.2963646999744607    0.2628175390200923    0.305467494625085    0.2872855042830423    0.3054694425328204    
  0.35486255005111617    0.4146691905933426    0.4548022033018687    0.46635053915448027    0.45480360648454216    
  0.4146756112137922    0.3548666653304846    0.305467494625085    0.3638895061897153    0.330066606722817    
  0.3300673824056744    0.36389359260286797    0.41623317200621895    0.45480093597720367    0.4652829061284552    
  0.465291317828404    0.4548036210847006    0.41622288311852074    0.3638895061897153    0.4154140072230867    
  0.37605601157270413    0.3606198025322409    0.3760538152265821    0.41540102633242504    0.4534798184777004    
  0.4663573158932545    0.46528286144449027    0.466350502593704    0.453484536884097    0.4154140072230867    
  0.43602264962806775    0.4064269361378314    0.38578251631242805    0.3857788280892169    0.4064349883817997    
  0.43602494017453913    0.45347982385465274    0.45480092047276616    0.4548021882366479    0.4534903945086525    