#     DFTpy    
  CRYSTAL 
    
  PRIMVEC    
  1.7259437160276996    -2.989422207164206    0.0    
  1.7259437160276996    2.989422207164206    0.0    
  0.0    0.0    3.248784058551724    
  PRIMCOORD    
  1    1    
  Si    0.0    0.0    0.0    
  BEGIN_BLOCK_DATAGRID_3D    
  3d_datagrid_density    
  BEGIN_DATAGRID_3D#0    
  15    15    15    
  0.0    0.0    0.0    
  1.7259437160276996    -2.989422207164206    0.0    
  1.7259437160276996    2.989422207164206    0.0    
  0.0    0.0    3.248784058551724    
  0.08496677752887638    0.15393706564561258    0.3603255608284509    0.4436193175416515    0.30039113748920937    
  0.16245675836285503    0.09472337708094435    0.0763924188944984    0.09472336760550405    0.1624567663509856    
  0.3003911687119868    0.4436192865939221    0.3603255481610702    0.15393709038188494    0.08496677752887638    
  0.15393703493744387    0.15375959769621908    0.30033121695995235    0.44798176622021396    0.36713063472583146    
  0.21030967420250876    0.11515023501190422    0.07751458108712918    0.0775428660282775    0.11511450057647238    
  0.210360645372262    0.3670816850224677    0.4479150807085271    0.30032217831659475    0.15393703493744387    
  0.3603256118094062    0.30033114289614005    0.36066059618174884    0.44785633265397484    0.3892453115705783    
  0.24081575499963942    0.13226611525921783    0.08023872791596838    0.06587307292362973    0.08024023447710672    
  0.13226396733212015    0.24079912580979845    0.3893600371373685    0.4479150568138117    0.3603256118094062    
  0.4436192853266742    0.44798174097257115    0.44785630834072004    0.44342087880688436    0.3670718424081947    
  0.24091959209745373    0.13895938401351382    0.08257431670171293    0.0596043599087802    0.059618946763778345    
  0.08255488940842458    0.139000228913488    0.24079914521739437    0.3670817001540044    0.4436192853266742    
  0.30039119736132575    0.3671306516774143    0.38924529583657347    0.3670718209651005    0.3005985254374057    
  0.21033143910034438    0.1322040052384761    0.08256651978918156    0.05776301109849917    0.050437375927895    
  0.05776546436068758    0.08255486469907412    0.13226398183969698    0.21036063915347797    0.30039119736132575    
  0.16245676031841155    0.21030967828421324    0.24081576960057702    0.24091961210040855    0.21033147124433174    
  0.16231225609436264    0.11513110160172074    0.08028732680635334    0.059608765874847924    0.0504426705884479    
  0.050437373467572336    0.05961894917189166    0.08024024273865842    0.11511451654384969    0.16245676031841155    
  0.09472336773582594    0.1151502346785089    0.132266128664708    0.13895936244932186    0.13220398972713113    
  0.11513109217364262    0.09483546935340585    0.07752715408533742    0.06583343851618592    0.05960877625405578    
  0.05776300741614588    0.05960436919242499    0.0658730816418633    0.07754287185350307    0.09472336773582594    
  0.0763924042083896    0.07751457684129615    0.08023871424650128    0.08257432364275298    0.08256653669840473    
  0.08028731978872085    0.0775271349795841    0.07629458275365353    0.07752713147981409    0.08028731974076248    
  0.08256655140717066    0.08257431235222257    0.0802387108657601    0.07751458230845415    0.0763924042083896    
  0.09472336033445913    0.07754287847800315    0.0658730702902477    0.059604363193392886    0.05776300382315907    
  0.05960877704613386    0.0658334562533291    0.07752714300215013    0.09483546659699879    0.11513109477298614    
  0.13220398973473121    0.13895936465745526    0.13226611275291725    0.11515023610163531    0.09472336033445913    
  0.16245674780312455    0.11511449167653168    0.08024023756970851    0.059618955598031445    0.05043738097179222    
  0.05044267161798204    0.059608780170562106    0.08028733072661307    0.11513109028425822    0.16231224270501723    
  0.2103314553980399    0.24091959374352775    0.24081574166134434    0.21030971504448004    0.16245674780312455    
  0.30039116507572156    0.21036067453739515    0.13226399525386207    0.08255487680494798    0.05776544848990121    
  0.05043737125427288    0.05776301193700247    0.08256652324416106    0.13220399151399106    0.21033143964700282    
  0.30059856588110956    0.3670718320885649    0.3892452902731596    0.3671306088801972    0.30039116507572156    
  0.4436193473622401    0.3670817337995107    0.2407991290333077    0.139000222948807    0.08255486389402512    
  0.05961894427524068    0.05960436456585191    0.0825743194888415    0.1389593754274486    0.2409196288181816    
  0.3670718443608161    0.4434208328692347    0.4478563194627733    0.4479817104464004    0.4436193473622401    
  0.36032553708262005    0.44791505018803635    0.38936004756446185    0.2407991428014468    0.1322639716650639    
  0.0802402370819255    0.06587307743283671    0.0802387192093394    0.13226610419166135    0.24081576883840905    
  0.3892453219625337    0.44785630650078767    0.3606605490762564    0.3003311882231378    0.36032553708262005    
  0.1539370277664384    0.3003222046280855    0.4479150242828054    0.36708170628999764    0.21036062225836846    
  0.11511450264723302    0.0775428692276453    0.07751458930532952    0.11515023244750171    0.21030968007601397    
  0.36713063694397013    0.4479817496118995    0.3003311907290491    0.15375958477748303    0.1539370277664384    
  0.08496677752887638    0.15393706564561258    0.3603255608284509    0.4436193175416515    0.30039113748920937    
  0.16245675836285503    0.09472337708094435    0.0763924188944984    0.09472336760550405    0.1624567663509856    
  0.3003911687119868    0.4436192865939221    0.3603255481610702    0.15393709038188494    0.08496677752887638    
  0.14423327782367415    0.21963144735869505    0.39973127496680066    0.4309873999918543    0.28171636264150773    
  0.15280084527640167    0.09010333623742443    0.07301205408610437    0.09010332517490183    0.15280085480985464    
  0.2817164065635383    0.4309873888997007    0.39973130295823134    0.2196314706733675    0.14423327782367415    
  0.219631430280103    0.21942439452626167    0.3530855465029947    0.44965006407444463    0.3464695067835111    
  0.19719139989902867    0.10904353647971392    0.07408695131777228    0.07411040021646353    0.10901387466903155    
  0.19723176262950493    0.3464279753053222    0.4496132419887915    0.35305039875278194    0.219631430280103    
  0.39973135114406294    0.353085493223446    0.4000402874836916    0.4495384686359988    0.3688582885819991    
  0.22559321571738855    0.12489839770381764    0.07664496405475872    0.06321827543249423    0.07664683476112844    
  0.12489633556926023    0.22558632486900526    0.36892690722592486    0.4496132412373414    0.39973135114406294    
  0.430987404654601    0.44965005249006734    0.44953844353016675    0.43082318143324194    0.34643475039620053    
  0.22566685505657935    0.13110645971365045    0.07879719075864869    0.05735908718181566    0.05736865728803885    
  0.07878335909806794    0.13113309851262442    0.22558636004267998    0.3464279949805941    0.430987404654601    
  0.28171640148449334    0.3464695069634565    0.3688582174284858    0.34643477541966156    0.2818777022546563    
  0.19720266623076568    0.12485578719750991    0.07879066352617742    0.055626850173640184    0.04875985683973071    
  0.055629203793183826    0.07878334731877668    0.12489635684425923    0.1972317343699414    0.28171640148449334    
  0.15280084395831467    0.19719139945733768    0.2255932398151758    0.22566687707039307    0.1972026960781667    
  0.1526906435304717    0.10902986148230912    0.0766798249338757    0.05736117063405297    0.048765166967091836    
  0.048759857950375886    0.05736866587713994    0.07664684934401926    0.10901388203585313    0.15280084395831467    
  0.09010333115552784    0.10904352250812316    0.12489840796950138    0.13110645835734164    0.12485578140561981    
  0.10902984814933446    0.09018909515678317    0.07409583495500824    0.06319170849571706    0.05736117366546953    
  0.05562684282085783    0.057359096307437525    0.06321829014551796    0.07411040219207463    0.09010333115552784    
  0.07301204059720845    0.0740869439957087    0.07664495675186077    0.07879719954262344    0.0787906861391547    
  0.07667982225309908    0.07409584039040536    0.07293900828199934    0.0740958337456    0.07667981967139859    
  0.07879068977790962    0.0787971882845926    0.07664495447593447    0.07408695197724988    0.07301204059720845    
  0.09010332501989382    0.07411040990773797    0.0632182834436477    0.05735909503910076    0.05562683888105594    
  0.0573611782535104    0.06319173496792552    0.07409583982101205    0.09018909443575514    0.10902984414044035    
  0.12485579134604001    0.131106447666854    0.1248983998028431    0.10904351702619729    0.09010332501989382    
  0.15280083213913376    0.10901385671880286    0.07664683486119424    0.057368664408295536    0.0487598688046822    
  0.04876516313676436    0.05736118493685713    0.07667983299179165    0.10902983949133765    0.15269063487478435    
  0.19720270744253257    0.22566687951672645    0.2255932270639496    0.197191410913972    0.15280083213913376    
  0.2817163818489988    0.19723178266882344    0.12489636183520729    0.0787833580163973    0.0556291963829343    
  0.04875984998406738    0.05562685480172452    0.07879066801768564    0.12485577514456725    0.19720266922547502    
  0.2818777453169037    0.3464347655939697    0.36885827295223117    0.3464694863401649    0.2817163818489988    
  0.43098739811368986    0.3464280133470403    0.22558632931079348    0.1311331064184744    0.07878334899292548    
  0.05736865794525503    0.05735910081312258    0.07879719545814202    0.13110645277316008    0.22566691039394998    
  0.34643477099210757    0.43082322562483577    0.4495385325226201    0.44964997992495986    0.43098739811368986    
  0.39973130777812316    0.4496132713040128    0.36892687655907985    0.2255863354659015    0.12489633743829048    
  0.07664684931177349    0.06321829234321481    0.0766449572656991    0.12489838337480885    0.22559324092144203    
  0.3688582629782072    0.4495384652077811    0.40004028631755695    0.3530855053414291    0.39973130777812316    
  0.21963141293265975    0.35305043855028373    0.44961320489208173    0.3464280009031859    0.19723173845824749    
  0.10901387833050298    0.07411040707064157    0.07408695594818784    0.1090435156329549    0.19719140699562054    
  0.34646947827698715    0.44965002870920545    0.35308552406459415    0.21942441581995298    0.21963141293265975    
  0.14423327782367415    0.21963144735869505    0.39973127496680066    0.4309873999918543    0.28171636264150773    
  0.15280084527640167    0.09010333623742443    0.07301205408610437    0.09010332517490183    0.15280085480985464    
  0.2817164065635383    0.4309873888997007    0.39973130295823134    0.2196314706733675    0.14423327782367415    
  0.3290485903233877    0.38164182976822664    0.4469385890425888    0.3758249518411446    0.23131220005198105    
  0.12780546255343025    0.07809785632712506    0.06424275564679405    0.07809784353010776    0.12780546803458176    
  0.23131221425987752    0.3758249287529821    0.4469386429586728    0.38164185730113803    0.3290485903233877    
  0.3816418030789046    0.38150766455559937    0.4389989272282439    0.4169783685340883    0.2869258461232946    
  0.16298088329148241    0.09317215406258524    0.06515289684223517    0.06516084947294805    0.09316227160538842    
  0.16299348444191172    0.28690965415307706    0.41697968619331477    0.4389612255515216    0.3816418030789046    
  0.44693862893592096    0.4389988791356869    0.44707646239634335    0.4169394218957648    0.30767809661399087    
  0.18565692102598877    0.10571813599585599    0.06721100188150451    0.05628679560094701    0.06721218728957155    
  0.10571626612340823    0.1856607179348986    0.3076851211961914    0.41697963168314994    0.44693862893592096    
  0.3758249714158554    0.4169783904522167    0.4169393869989426    0.3757580848710012    0.28691864181116905    
  0.18567866395345375    0.11064869687778969    0.06887927976550257    0.051480268433326634    0.0514817666841516    
  0.06887638607553988    0.11065331694745177    0.18566074045343134    0.2869096451991286    0.3758249714158554    
  0.23131220596098587    0.28692589016313597    0.3076780594353625    0.2869186340371796    0.23137160007775653    
  0.16297938328560702    0.10570745281263184    0.06887729015112692    0.05003102874780978    0.04439327892024388    
  0.05003200613477525    0.06887637167730362    0.10571629155901995    0.16299346628954883    0.23131220596098587    
  0.12780545988829367    0.16298086613934584    0.18565692313713492    0.18567868017752232    0.16297940142626105    
  0.12776811076377612    0.09316857169713649    0.06722058604488383    0.05147982711898575    0.044395839188690285    
  0.04439327766279518    0.051481763553909196    0.06721220831818593    0.09316227754025182    0.12780545988829367    
  0.07809784128961786    0.0931721568350941    0.10571814451302017    0.11064869519888557    0.10570745260832135    
  0.0931685653170046    0.07812788482849864    0.0651551290219208    0.056280690341540464    0.0514798309014695    
  0.050031022256297804    0.051480273503791085    0.05628680416765882    0.06516084912839551    0.07809784128961786    
  0.06424274875286595    0.0651528855745522    0.06721099343867906    0.06887927911329068    0.06887730774455911    
  0.06722058150789609    0.06515513563959392    0.064217728958981    0.06515512514052468    0.06722058496820388    
  0.06887731223727123    0.06887927423373438    0.067210990208148    0.06515288800560524    0.06424274875286595    
  0.0780978549680182    0.06516085790222369    0.056286803613550936    0.05148026839970134    0.05003101632518993    
  0.051479831719597524    0.05628069568494067    0.06515513391506546    0.0781278766291935    0.09316856622956275    
  0.10570745521416565    0.11064869630512358    0.1057181565819541    0.09317215087156655    0.0780978549680182    
  0.12780545758697356    0.09316226496917437    0.067212200020158    0.05148177147169807    0.04439328061328216    
  0.044395833283394866    0.05147984091187866    0.06722059862378778    0.09316856073656743    0.12776810953965853    
  0.16297941720566222    0.18567867842217894    0.18565689810929234    0.16298088761467844    0.12780545758697356    
  0.23131218655331226    0.1629934967065817    0.10571629700825842    0.06887638575039547    0.05003198898727628    
  0.044393271500505704    0.05003103141325191    0.06887729804772542    0.10570744763266142    0.16297939178683496    
  0.2313716485992804    0.28691861824234227    0.307678112707435    0.2869258333273382    0.23131218655331226    
  0.3758249435649733    0.28690969071863376    0.18566069050776096    0.11065330807640933    0.0688763758574344    
  0.05148176349053649    0.05148026947383981    0.06887927847632219    0.11064868663989527    0.18567868870134813    
  0.2869186243530439    0.37575805899918835    0.4169394386664488    0.4169783359558247    0.3758249435649733    
  0.4469385741448903    0.41697965284167515    0.3076851293571207    0.18566068642420538    0.10571628017196294    
  0.06721220709239815    0.05628681384967115    0.06721098968018756    0.10571812539616776    0.18565691992182906    
  0.30767810663041134    0.4169394068309354    0.44707650839285634    0.4389989318514557    0.4469385741448903    
  0.3816417800241015    0.43896129285577323    0.41697965098393275    0.28690966196899526    0.16299347849237195    
  0.09316226544548806    0.06516085972497787    0.06515288490743877    0.09317214584084271    0.16298088279541262    
  0.28692587452307367    0.41697835422972657    0.43899894158091146    0.38150764515157004    0.3816417800241015    
  0.3290485903233877    0.38164182976822664    0.4469385890425888    0.3758249518411446    0.23131220005198105    
  0.12780546255343025    0.07809785632712506    0.06424275564679405    0.07809784353010776    0.12780546803458176    
  0.23131221425987752    0.3758249287529821    0.4469386429586728    0.38164185730113803    0.3290485903233877    
  0.43945047195726333    0.4341749948106311    0.3843453472676319    0.27629781958556376    0.1674395597436324    
  0.09715718352163422    0.06295139875537559    0.05310843259164204    0.06295139648286438    0.0971571948965038    
  0.16743953540458448    0.27629778780449177    0.38434541812601697    0.43417499372294    0.43945047195726333    
  0.43417494299181886    0.43416021796085025    0.4044847262520943    0.3180504037994844    0.2065372256012936    
  0.12097408316925623    0.07340485616225306    0.05375784611715076    0.05375850891340292    0.07340391260001573    
  0.12097492690215031    0.20653578983880602    0.3180532529498502    0.4044763843324487    0.43417494299181886    
  0.38434535422513505    0.40448464956505403    0.38435711600980926    0.3180499895980734    0.2218419479810911    
  0.13636000690623834    0.08201313386584695    0.055186765386504716    0.047380405137733526    0.055186954005299105    
  0.08201313886240578    0.13636061714386297    0.22184026719177904    0.3180532299527066    0.38434535422513505    
  0.27629781472924514    0.31805043889208967    0.3180499986204886    0.27628968993886743    0.20653817227188928    
  0.1363599144174773    0.0854144871441709    0.05632884408413022    0.043881181761034886    0.0438806079237869    
  0.0563292091015266    0.0854138384695803    0.13636063002665352    0.20653577656272423    0.27629781472924514    
  0.1674395509298454    0.20653726489550236    0.2218419398622228    0.2065381749282938    0.1674450260859418    
  0.12097260872656798    0.08201333996076483    0.056329137117767845    0.04279992689930799    0.03869206998163248    
  0.04280007678567713    0.056329191042851806    0.08201316337992205    0.12097490071930977    0.1674395509298454    
  0.09715717766785312    0.12097408117922183    0.13635999489865253    0.1363599434222227    0.12097261497656413    
  0.09715407500910195    0.07340557353292627    0.05518630794574731    0.04388094181353298    0.03869194525185884    
  0.03869206858376866    0.04388060543828822    0.05518697244043699    0.07340390831255808    0.09715717766785312    
  0.06295139415523304    0.07340485227418994    0.0820131337157553    0.08541447421310584    0.08201333909119994    
  0.07340556539742331    0.06295293155175301    0.05375781728171631    0.04738087811461353    0.0438809465299457    
  0.04279992539194381    0.043881186813914334    0.04738040481424116    0.053758494176217156    0.06295139415523304    
  0.053108429512169944    0.05375784560977292    0.055186754563032764    0.05632883993008264    0.05632914632186191    
  0.05518630483284471    0.05375782273139563    0.05310720535343814    0.05375780730019332    0.05518630975701619    
  0.05632915448964225    0.056328837644284764    0.05518675931709988    0.053757834324227    0.053108429512169944    
  0.0629513946068289    0.05375850618877362    0.047380403142757974    0.043881174075558825    0.042799919500089816    
  0.04388094342291213    0.04738087894104294    0.05375782043555546    0.06295292667133424    0.07340556713302647    
  0.08201333257425478    0.08541448545221896    0.08201314413424492    0.07340484909275471    0.0629513946068289    
  0.09715718367257598    0.07340390563954034    0.05518695797337834    0.043880611737981585    0.038692070514083465    
  0.038691931954207885    0.043880964267270936    0.055186319176387985    0.07340555681675917    0.09715406181200191    
  0.1209726199223099    0.1363599148943479    0.1363600132926675    0.1209740841397063    0.09715718367257598    
  0.16743952858604064    0.12097493115117626    0.08201316662247787    0.056329199682847296    0.04280007780224504    
  0.03869205875211966    0.04279993377058634    0.056329141537312284    0.08201333904391385    0.12097261895015232    
  0.16744505609315494    0.20653813598044582    0.22184196648057902    0.2065371967218631    0.16743952858604064    
  0.2762978245415213    0.20653580059705673    0.13636058653724395    0.0854138459190178    0.056329192645684756    
  0.043880602606968015    0.04388118489769293    0.05632884118557253    0.08541447153926764    0.13635991843704698    
  0.20653816788498822    0.27628967926969417    0.3180500329295132    0.31805040425645764    0.2762978245415213    
  0.38434538415019115    0.3180532709539112    0.22184029340742076    0.13636061319493767    0.08201314881044275    
  0.05518697002264445    0.04738041013412466    0.05518675762049048    0.08201312172571512    0.1363599940373242    
  0.2218419420800171    0.31805001554161116    0.3843571223937329    0.40448467612769495    0.38434538415019115    
  0.4341749388257681    0.40447642791627475    0.3180532049993611    0.20653576718682504    0.12097491743358482    
  0.07340391055110805    0.0537585060030386    0.0537578461259021    0.07340483941905035    0.12097408785725071    
  0.20653721938427874    0.318050414254007    0.40448471387957957    0.4341601697440384    0.4341749388257681    
  0.43945047195726333    0.4341749948106311    0.3843453472676319    0.27629781958556376    0.1674395597436324    
  0.09715718352163422    0.06295139875537559    0.05310843259164204    0.06295139648286438    0.0971571948965038    
  0.16743953540458448    0.27629778780449177    0.38434541812601697    0.43417499372294    0.43945047195726333    
  0.3329140474170356    0.3116343269966353    0.25216273892943386    0.17613598014712795    0.11146352333501573    
  0.06993159279666675    0.04884403827286356    0.042575832643442606    0.048844037060134404    0.06993159603533952    
  0.11146350703006878    0.1761359660402437    0.252162769510536    0.3116342865013974    0.3329140474170356    
  0.3116342597624704    0.3116354628298272    0.2709530767516707    0.202940266213547    0.13429672838904536    
  0.08417504434934298    0.055371205312339536    0.042975257446758064    0.04297566490736893    0.05537068354290664    
  0.0841749145677615    0.13429694797776787    0.20294167752710546    0.2709497841978413    0.3116342597624704    
  0.25216273687561597    0.27095302435319746    0.2521606206331715    0.20293995981168111    0.1433146124070887    
  0.09328455042324545    0.06070906399736627    0.04387615012231748    0.038836964751270665    0.04387612831856651    
  0.06070972149748833    0.09328451092237666    0.14331278157903843    0.202941642054031    0.25216273687561597    
  0.17613598260110125    0.2029403022756889    0.20293996745053622    0.17613782069199235    0.13429830744107712    
  0.09328301097338369    0.0628347226102528    0.04462094762201639    0.036522526508871875    0.03652222052632084    
  0.04462084883278457    0.06283410024161276    0.09328449983986499    0.13429691728970028    0.17613598260110125    
  0.111463524688592    0.13429676208516236    0.14331460775696508    0.1342983264469544    0.11146119691605215    
  0.08417443017120797    0.060710188015827754    0.04462075841677642    0.03578817112142179    0.033036351075822507    
  0.03578855598213301    0.04462083315347572    0.060709738934537925    0.084174893975903    0.111463524688592    
  0.06993158466448093    0.08417504085482251    0.09328454479566343    0.09328303068340171    0.0841744239363196    
  0.06993348748565356    0.055371131336543554    0.04387566919476552    0.036522286650440314    0.03303676731006749    
  0.033036347117326295    0.03652221610442463    0.043876141297520294    0.055370668736243786    0.06993158466448093    
  0.04884402796854207    0.055371197428195164    0.060709066615809    0.06283470746088136    0.0607101821891143    
  0.055371126815909895    0.04884241165032636    0.04297538254604099    0.03883748498713172    0.036522291560807274    
  0.03578816673194958    0.036522532955719694    0.038836970369326346    0.04297565272811091    0.04884402796854207    
  0.04257582846764849    0.04297525740544977    0.04387614098007358    0.044620945948503514    0.04462077062899246    
  0.0438756644229916    0.042975379129491    0.042577350594186276    0.042975371768558916    0.04387567095718646    
  0.04462077472876558    0.04462094409777599    0.043876142567793944    0.042975248811263925    0.04257582846764849    
  0.04884403347533396    0.04297566739328324    0.038836968771880566    0.03652252157530796    0.035788163669363465    
  0.03652229081446494    0.038837489305037005    0.042975378782812365    0.0488424023193063    0.05537112733413321    
  0.060710183876413935    0.06283472113327344    0.06070907805608688    0.05537119814932501    0.04884403347533396    
  0.06993159377872563    0.05537066889960844    0.043876132401401646    0.036522222844562365    0.03303635330034807    
  0.033036757637631704    0.036522304479021286    0.043875676882126784    0.05537112147626676    0.0699334765322143    
  0.08417443420258677    0.0932830195568637    0.09328454998433054    0.08417503755215008    0.06993159377872563    
  0.11146350334893422    0.08417492575594768    0.06070974147164182    0.04462083835688662    0.03578856194075953    
  0.03303634168450852    0.035788176565751686    0.04462076676492397    0.060710183801162144    0.08417442693577212    
  0.11146124456461515    0.13429829107309577    0.1433146287856869    0.13429670988190123    0.11146350334893422    
  0.17613599839997174    0.1342969629493639    0.09328447661038268    0.06283410801925793    0.04462083235280698    
  0.036522216254858464    0.03652253046301855    0.04462094786116193    0.06283470503329606    0.0932830245197649    
  0.13429831200077125    0.17613780023441325    0.20293996727392224    0.20294028670095848    0.17613599839997174    
  0.2521627453693269    0.20294166210621378    0.14331278560485086    0.09328449296428021    0.06070973116014973    
  0.04387614327076426    0.038836977144546495    0.043876146452846224    0.060709060129813114    0.09328453248259248    
  0.1433146050624157    0.2029399544571348    0.2521606293621566    0.27095301956040685    0.2521627453693269    
  0.3116342636981915    0.27094982838437787    0.2029416335670798    0.13429693545432045    0.08417490738934019    
  0.0553706747203468    0.042975665719062285    0.042975254295729785    0.055371195197171166    0.08417503602830045    
  0.13429672636376933    0.20294026665855655    0.27095305831435323    0.3116354196863881    0.3116342636981915    
  0.3329140474170356    0.3116343269966353    0.25216273892943386    0.17613598014712795    0.11146352333501573    
  0.06993159279666675    0.04884403827286356    0.042575832643442606    0.048844037060134404    0.06993159603533952    
  0.11146350703006878    0.1761359660402437    0.252162769510536    0.3116342865013974    0.3329140474170356    
  0.1958599052155189    0.18257067796705104    0.14856679521140304    0.10803322038512883    0.07368974109397755    
  0.05062800288642307    0.03830187497370273    0.0345390919230606    0.03830187095771104    0.050628004902246344    
  0.07368973738784836    0.10803321657441779    0.1485668306218525    0.18257068548449884    0.1958599052155189    
  0.18257067206410726    0.18257075213878948    0.15896911531312746    0.12217193120442972    0.08593868639889093    
  0.058703574057324445    0.04218118563999518    0.0347692134621612    0.03476894691651343    0.042181325523722155    
  0.05870336187847725    0.08593867320827159    0.12217203538955927    0.158969127956906    0.18257067206410726    
  0.14856681174621683    0.15896909509829163    0.14856689898817468    0.12217232297581063    0.09072775883663577    
  0.06378383107743003    0.045346960008266594    0.035310034979700665    0.0322173080423258    0.035310246879286786    
  0.04534677047056409    0.0637843005774978    0.09072752558408627    0.12217200262244905    0.14856681174621683    
  0.10803321424398048    0.12217194444697925    0.1221723196266843    0.10803274717064325    0.08593854031867289    
  0.06378439625967353    0.04660387274182583    0.0357702717834838    0.030748074767924224    0.030747730555793686    
  0.035770433691975655    0.04660350609270309    0.06378430015752161    0.08593866089732462    0.10803321424398048    
  0.07368973791011738    0.08593869616739999    0.09072774691101176    0.08593852829836097    0.07369033296230156    
  0.05870316427081775    0.04534667170249976    0.03577022649116932    0.030268395385190723    0.028504649524662456    
  0.030268412758484856    0.03577042744204467    0.04534678226617556    0.05870334676945052    0.07368973791011738    
  0.05062799860581956    0.058703566890582114    0.0637838260332561    0.06378439097797418    0.058703168589411464    
  0.05062776959414524    0.042181678524814324    0.0353100669029476    0.030748290131889632    0.028504121144121097    
  0.028504648200797084    0.03074773037851107    0.03531026072348532    0.04218132402836396    0.05062799860581956    
  0.03830187108643089    0.04218118457628754    0.04534695866567194    0.04660387051285019    0.0453466700862664    
  0.042181676023193816    0.0383014934025264    0.0347692921144453    0.032216834521303736    0.030748289782954706    
  0.030268390980151706    0.03074807613767254    0.03221731394341747    0.034768943967848305    0.03830187108643089    
  0.034539088026553616    0.03476921165132027    0.03531002398733555    0.03577027511156105    0.03577023580276539    
  0.035310058918675585    0.034769300422540304    0.034539003136298284    0.03476928760343437    0.03531006488481385    
  0.03577023670387256    0.035770270924581696    0.035310031867638064    0.03476921223475811    0.034539088026553616    
  0.038301872348616886    0.034768953732745994    0.03221731438975278    0.03074806942304145    0.030268388541258413    
  0.03074829347656159    0.03221684000354097    0.034769291664428596    0.038301489204057265    0.042181679513593744    