#     DFTpy    
  CRYSTAL 
    
  PRIMVEC    
  4.568689655172414    0.0    0.0    
  0.0    4.568689655172414    0.0    
  0.0    0.0    4.568689655172414    
  PRIMCOORD    
  8    1    
  Si    0.0    0.0    0.0    
  Si    1.1421724137931035    1.1421724137931035    1.1421724137931035    
  Si    0.0    2.284344827586207    2.284344827586207    
  Si    1.1421724137931035    3.426517241379311    3.426517241379311    
  Si    2.284344827586207    0.0    2.284344827586207    
  Si    3.426517241379311    1.1421724137931035    3.426517241379311    
  Si    2.284344827586207    2.284344827586207    0.0    
  Si    3.426517241379311    3.426517241379311    1.1421724137931035    
  BEGIN_BLOCK_DATAGRID_3D    
  3d_datagrid_density    
  BEGIN_DATAGRID_3D#0    
  21    21    21    
  0.0    0.0    0.0    
  4.568689655172414    0.0    0.0    
  0.0    4.568689655172414    0.0    
  0.0    0.0    4.568689655172414    
  0.05219101996568001    0.09758071251820752    0.2737117975321165    0.47116357259584946    0.46705086609982205    
  0.3472520805110844    0.23851734147737128    0.16759571810412133    0.1272262940535142    0.10734877814161624    
  0.10143938406573638    0.10734876913534906    0.1272263061031826    0.16759568122098426    0.2385174143577886    
  0.34725205755454885    0.46705092539338083    0.47116352401770856    0.2737118200508303    0.09758069405403805    
  0.05219101996568001    0.09758071531511517    0.15399264305711444    0.3344281603854394    0.49689564551621407    
  0.4696754313413862    0.3493386138924313    0.2433949758578757    0.17367909172795923    0.13343753125495983    
  0.11337558316729923    0.10734879691542865    0.11337557992444948    0.13343751664746617    0.17367910403391637    
  0.24339496137842892    0.3493386136196423    0.4696753573007985    0.4968957151964393    0.3344281469417399    
  0.15399266185295693    0.09758071531511517    0.27371178145342234    0.33442815539860576    0.4700964726222837    
  0.5343082609164213    0.4666601742767068    0.35279884127523087    0.2569974395814767    0.19220097222306817    
  0.15345689444037755    0.13343756642344648    0.12722626772440643    0.1334375255529085    0.15345694429324053    
  0.19220097155529337    0.2569974418202507    0.3527988223728231    0.4666602447915841    0.5343082023841126    
  0.47009651044102196    0.3344281512439912    0.27371178145342234    0.47116361453874667    0.49689562152245015    
  0.5343082052130558    0.5167621322898168    0.44178203201924154    0.3528004729892096    0.2784669421712823    
  0.22567326999570345    0.1922010057964382    0.17367906524120375    0.16759575340113694    0.17367905493023955    
  0.19220100265642087    0.22567326805051935    0.2784668757894581    0.35280051479276536    0.4417819967400293    
  0.5167621794114158    0.534308210537742    0.49689563388130836    0.47116361453874667    0.467050825859644    
  0.46967549698400696    0.466660126384687    0.441781993297862    0.3973689167933599    0.3493369639835946    
  0.30887676643845796    0.27846695758307066    0.2569973905941833    0.24339503142885197    0.23851725942288876    
  0.24339501415852208    0.2569974199144953    0.27846692359797853    0.3088768204157485    0.349336937756792    
  0.3973689205213891    0.44178201856347193    0.46666015952522233    0.4696754846880915    0.467050825859644    
  0.34725210756239044    0.34933855117136375    0.35279891355121173    0.3528004630104524    0.34933698513311595    
  0.3472537192425721    0.34933698960288534    0.3528004240570329    0.3527989826107377    0.34933850606214256    
  0.3472522371183381    0.34933847555955644    0.3527989649962304    0.35280049331442426    0.34933695644263413    
  0.3472537373228919    0.3493369499403871    0.3528004821507621    0.3527988950671927    0.3493385640542844    
  0.34725210756239044    0.23851730943231544    0.2433950149040289    0.25699740181649966    0.27846692949020174    
  0.3088767743252472    0.34933702317871246    0.39736883745937024    0.4417821709914243    0.4666600612943352    
  0.46967554188544547    0.46705068138935685    0.46967557857158015    0.46666007254500286    0.4417821015634414    
  0.3973689203067541    0.34933697035993394    0.3088767695811808    0.2784669222348033    0.25699741916209073    
  0.24339500794453084    0.23851730943231544    0.1675957661312822    0.1736790327564924    0.19220100356252193    
  0.2256732429760981    0.2784669504690287    0.35280039237197486    0.44178212237091713    0.5167619970394823    
  0.5343083841181325    0.4968954790877779    0.47116377132596987    0.49689548217202467    0.5343084073722684    
  0.5167620176807244    0.4417820834748995    0.3528004859474295    0.27846693445455434    0.22567325556675136    
  0.1922009893871947    0.17367903511958127    0.1675957661312822    0.12722625212351701    0.13343756320074987    
  0.15345687517432505    0.19220104048801412    0.25699737102244846    0.3527989813138678    0.46666008041482915    
  0.5343083864092703    0.4700963085242041    0.3344283427704197    0.27371158742031015    0.3344283171464172    
  0.47009633584153104    0.5343083673180982    0.4666600968456493    0.3527988845756735    0.25699742036979006    
  0.19220099672945726    0.15345690131177134    0.13343756008487176    0.12722625212351701    0.10734881470344258    
  0.11337555453618642    0.1334375725406869    0.17367901179081918    0.24339506554452764    0.3493384924080986    
  0.4696755946382638    0.4968954571376434    0.3344283142918202    0.15399251273234513    0.09758083850640256    
  0.15399251311442436    0.3344283085575444    0.4968955481524141    0.4696755481543612    0.34933853488741884    
  0.2433949995927217    0.17367906059649743    0.1334375599467301    0.11337557062528922    0.10734881470344258    
  0.10143934060720822    0.10734882100101631    0.12722627264180772    0.1675957580578026    0.23851729118571932    
  0.3472521847278061    0.46705069703268803    0.4711637885403712    0.2737116198512256    0.09758082935533163    
  0.05219093774306677    0.0975807948975449    0.2737116540451478    0.471163708273496    0.4670507719121168    
  0.3472521701525074    0.23851734744381742    0.16759573388946358    0.12722626719178354    0.10734880182165635    
  0.10143934060720822    0.10734878248761483    0.1133755935227472    0.13343752167191908    0.17367904538908455    
  0.2433950174866937    0.3493385334710362    0.46967552005305463    0.4968955776879435    0.3344282777202811    
  0.1539925431880903    0.09758079975330705    0.1539925311427799    0.33442825818710764    0.49689553904022665    
  0.46967554006538687    0.3493385472725564    0.2433949577587897    0.17367907813859737    0.13343751733388734    
  0.11337559712793707    0.10734878248761483    0.12722631747846605    0.1334375066267348    0.15345695780465105    
  0.1922009752316483    0.2569974354917436    0.3527988767516802    0.46666015609813705    0.5343082968550502    
  0.4700963683468526    0.3344282593420891    0.2737117208667501    0.3344282217000837    0.4700964542134286    
  0.534308253159874    0.4666601735896711    0.35279883969427256    0.25699749394043453    0.19220092875808348    
  0.15345698427154922    0.13343749288140427    0.12722631747846605    0.16759569158517107    0.17367911095363475    
  0.1922009328000123    0.2256733482423342    0.27846686331479237    0.3528005137219321    0.4417820072032681    
  0.5167621252599575    0.5343082461152429    0.496895652023458    0.4711636389212708    0.49689559283052476    
  0.5343082441445587    0.5167622079998088    0.4417819353400111    0.3528005625261952    0.2784668319044155    
  0.22567333573919496    0.19220089200161525    0.17367913965262233    0.16759569158517107    0.2385173936842281    
  0.24339491773520383    0.2569975070357531    0.27846678454209073    0.308876884313762    0.3493368901755552    
  0.39736900221805616    0.441781995088796    0.46666020433104005    0.4696754458983207    0.46705081524103953    
  0.4696754173465107    0.4666602183957482    0.4417819514364771    0.3973690627330887    0.3493368403606276    
  0.3088769105750093    0.2784668018197027    0.25699752934322184    0.24339491308925362    0.2385173936842281    
  0.34725201117197557    0.3493386914634841    0.352798776392842    0.35280059793507623    0.3493368394000022    
  0.3472538537466851    0.3493368395644685    0.3528005663407283    0.35279883823831115    0.34933861868154736    
  0.3472520705431913    0.3493386199703513    0.35279881196788804    0.3528005881740883    0.3493368425105728    
  0.3472538740117516    0.3493368123084226    0.35280061787087413    0.3527987711661388    0.3493386844368599    
  0.34725201117197557    0.4670509671857921    0.4696753330560622    0.4666602610237689    0.44178186956049215    
  0.3973690448714452    0.3493368530504395    0.30887688791810025    0.27846684350388995    0.25699750731568466    
  0.2433949383329603    0.2385173782793721    0.24339491240281963    0.2569975246654063    0.27846679886323455    
  0.3088769438710392    0.349336774082214    0.3973690530373043    0.44178187426953014    0.4666603051264423    
  0.4696753216866446    0.4670509671857921    0.4711635218445299    0.4968957854726489    0.5343081061392663    
  0.5167622745514684    0.4417819292016644    0.3528005726874611    0.2784668104929086    0.2256733399205725    
  0.1922009334264065    0.17367912561216983    0.16759570498344326    0.17367910806075507    0.1922008991007421    
  0.2256733811293238    0.27846679116907225    0.3528006614367901    0.44178186873943226    0.516762285911959    
  0.5343081336023093    0.49689573412680954    0.4711635218445299    0.2737118430341954    0.3344280625530062    
  0.4700965059869823    0.5343081508018864    0.46666025386299914    0.35279879888197385    0.2569975137473589    
  0.19220092415472068    0.15345696601736386    0.13343749615493314    0.12722631201190024    0.13343747768354247    
  0.15345698623201262    0.19220090377859053    0.25699753410876364    0.3527987565610962    0.4666603267975664    
  0.5343080781710774    0.4700965967887198    0.33442808328739043    0.2737118430341954    0.0975806911426371    
  0.15399268841607147    0.33442814644186    0.49689568814415613    0.4696754071666662    0.34933865835295214    
  0.24339492768434415    0.17367912618124812    0.13343750588221662    0.11337559758010446    0.10734877213093105    
  0.11337561951515408    0.13343750368716845    0.173679151047307    0.24339491112366102    0.3493386681432925    
  0.46967529401051183    0.4968957707815783    0.3344280855895934    0.15399270080968727    0.0975806911426371    
  0.05219101996568001    0.09758071251820752    0.2737117975321165    0.47116357259584946    0.46705086609982205    
  0.3472520805110844    0.23851734147737128    0.16759571810412133    0.1272262940535142    0.10734877814161624    
  0.10143938406573638    0.10734876913534906    0.1272263061031826    0.16759568122098426    0.2385174143577886    
  0.34725205755454885    0.46705092539338083    0.47116352401770856    0.2737118200508303    0.09758069405403805    
  0.05219101996568001    0.09758068834519144    0.1539926738456666    0.3344281413759365    0.49689569827945895    
  0.4696754299419297    0.34933863483531197    0.2433949573326397    0.17367910563082767    0.13343753671721015    
  0.11337559005455    0.10734878150218773    0.11337561431654164    0.1334375003660687    0.17367912832319599    
  0.24339491824082074    0.3493387098490751    0.4696753662621035    0.49689576903482674    0.3344281424471864    
  0.15399267327276067    0.09758068834519144    0.15399265848706065    0.2311831840445005    0.4295133174803047    
  0.5774941359367304    0.5308613988962964    0.39736719236946333    0.28015984191258736    0.20057037513592804    
  0.152180332883122    0.12537469571769963    0.11337559265164011    0.11378792503000915    0.12781521005394778    
  0.16021624565005613    0.2185487170067613    0.30887518874350844    0.4161899196903704    0.46053127812181666    
  0.3526405431359181    0.20279792842525074    0.15399265848706065    0.33442817893600624    0.4295133027675336    
  0.5896985229442734    0.6571366139005613    0.5766709733993051    0.44178380087635444    0.32452991151636    
  0.2409143246252823    0.18610279752823428    0.15218032995526157    0.13343755131007073    0.12781518558261842    
  0.1356766319577226    0.16004436717076456    0.2061715187617765    0.2784684121785049    0.3701123441893788    
  0.44003804168594174    0.42524033791954663    0.3526405346039745    0.33442817893600624    0.4968956400097383    
  0.5774942040912144    0.657136552507731    0.6586202669177513    0.5766730035012347    0.46665832861801054    
  0.3701140126074807    0.2960943715854674    0.24091427977046176    0.20057043234658384    0.17367903209913615    
  0.1602162876234288    0.16004434530403322    0.17448693395428347    0.20617283765624095    0.25699600271210116    
  0.3245314675628931    0.39399255559870144    0.4400380119584619    0.4605312977692072    0.4968956400097383    
  0.4696754646152731    0.5308613261658359    0.5766710028733019    0.5766728908200974    0.5308594611950236    
  0.4696772932071402    0.416188162343213    0.37011394620689175    0.3245299628074408    0.2801597520165347    
  0.24339504568415493    0.2185485964299034    0.20617159529385015    0.20617280742055977    0.21854738115150593    
  0.2433963592059548    0.28015833738999846    0.3245314704685438    0.37011235266007214    0.4161898954533128    
  0.4696754646152731    0.3493385450254442    0.3973672604378595    0.4417838026170558    0.46665836947069217    
  0.46967728027742145    0.4670490159061508    0.46967725788951176    0.4666584104891691    0.4417837173392365    
  0.3973673092761664    0.3493385351163417    0.3088753523250691    0.2784682965329918    0.2569960965230302    
  0.24339634272282712    0.23851599634835022    0.24339634520581713    0.2569960353186133    0.2784683541308669    
  0.3088753060993519    0.3493385450254442    0.24339500848812878    0.2801597934330577    0.32452991908980194    
  0.3701139481171729    0.4161881941429743    0.4696772495932172    0.5308594936074601    0.5766728956246069    
  0.5766711120868717    0.530861185864041    0.46967559779620266    0.4161897711520159    0.3701124143586128    
  0.3245313968155606    0.28015841385061085    0.2433963459926621    0.21854734465387268    0.20617282576726986    
  0.206171576545712    0.21854864406406632    0.24339500848812878    0.1736790579191731    0.20057041446021295    
  0.2409142917454079    0.29609440144449223    0.3701139268519038    0.46665837522101644    0.5766728665526599    
  0.6586203721825392    0.6571364119666406    0.5774943871382353    0.49689549105194136    0.4605314367166174    
  0.44003790225041883    0.3939926668896511    0.3245313962031357    0.25699606387432633    0.20617279916293185    
  0.17448695000388564    0.1600443274422545    0.16021630679174653    0.1736790579191731    0.1334375697387126    
  0.15218030910150557    0.18610283442309705    0.24091429961828179    0.32452994008515323    0.4417837109836948    
  0.5766711161776293    0.6571364251488808    0.5896987355317803    0.4295131343376712    0.33442832793086796    
  0.3526403583603324    0.4252404390801914    0.4400379245863816    0.3701124036532561    0.2784683131724742    
  0.20617160636352758    0.16004433862286482    0.13567664219026954    0.12781519160945162    0.1334375697387126    
  0.11337556061744009    0.12537472123556295    0.15218031073807892    0.2005703976825544    0.28015980350763897    
  0.39736729603064597    0.5308612565877826    0.5774943359657032    0.429513160276702    0.23118332115158224    
  0.1539925215991728    0.20279804546905877    0.35264039730908675    0.46053145568159876    0.4161898459605626    
  0.3088753036520318    0.21854860619992422    0.16021628017069414    0.1278151854845425    0.11378796767578128    
  0.11337556061744009    0.10734879706116585    0.1133755736559135    0.1334375631467749    0.17367903541088242    
  0.243395048581642    0.3493385361963309    0.46967554153755053    0.49689553870324493    0.33442831746869384    
  0.15399253677188932    0.09758081742904981    0.1539925302276926    0.3344283013859999    0.496895521319371    
  0.4696755243667425    0.3493385778527449    0.2433950161904184    0.17367906895954058    0.13343752900135722    
  0.11337559678212362    0.10734879706116585    0.11337559131816606    0.11378793931007944    0.12781519078804468    
  0.16021627315816908    0.21854862681137377    0.3088753214246979    0.4161898016884045    0.46053141312638635    
  0.35264042516810495    0.20279805327999414    0.15399253512572117    0.23118328680570727    0.42951321513384805    
  0.5774942534419952    0.5308614079267407    0.3973672122420891    0.2801598310294443    0.2005703595896813    
  0.1521803627832293    0.12537468320138437    0.11337559131816606    0.1334375271790023    0.12781519665808075    
  0.13567660076470214    0.1600443611799306    0.20617155655258498    0.278468346384494    0.3701123646904536    
  0.44003796001872625    0.425240389562717    0.35264044182385174    0.3344282949656988    0.42951318177739184    
  0.5896986324021656    0.6571365760304815    0.5766709308642557    0.4417838414919713    0.3245298692799778    
  0.2409143897872635    0.1861027902844399    0.15218034506176334    0.1334375271790023    0.17367913998503673    
  0.1602162244710108    0.16004438935048398    0.17448693531645842    0.2061728682047353    0.2569960103479823    
  0.32453147929440374    0.3939926225483883    0.44003794576160926    0.46053138433213836    0.4968956114846397    
  0.5774941940456862    0.6571365999916794    0.6586201962843601    0.5766730445637274    0.46665821927697565    
  0.37011411625742735    0.29609422636487803    0.24091439464293196    0.20057032049453058    0.17367913998503673    
  0.24339490189917676    0.21854872399142267    0.20617150080510974    0.2061728640808943    0.21854731197992672    
  0.2433964176968107    0.28015832545017566    0.32453151105574757    0.3701123378518312    0.41618987554933823    
  0.4696754261647177    0.5308613747929316    0.5766709327969657    0.5766730640082688    0.5308593061998892    
  0.4696774616057983    0.41618798098958515    0.3701141376720009    0.3245297831876884    0.2801599302000812    
  0.24339490189917676    0.3493387062905643    0.308875181520338    0.27846844239891977    0.256995940525371    
  0.24339644794336918    0.2385159129831259    0.2433964316587006    0.2569959759982665    0.27846841623685886    
  0.3088752313983331    0.3493386703429505    0.3973671483962116    0.4417839283088891    0.4666582029598133    
  0.4696774532680606    0.4670488196337992    0.46967747860532094    0.46665815184022647    0.4417839641271454    
  0.3973671014652677    0.3493387062905643    0.469675349032479    0.4161899901186925    0.37011223821202477    
  0.32453154247844984    0.2801582900188989    0.24339646309405646    0.21854726061329344    0.20617289316239196    
  0.20617152458728719    0.2185486849106905    0.24339494017266683    0.2801598812564894    0.32452979399599796    
  0.37011411822439483    0.4161880260264989    0.4696774720372694    0.5308591719000454    0.5766731919978152    
  0.5766708001723956    0.5308615256519705    0.469675349032479    0.4968957956167836    0.46053121067559777    
  0.44003811207559135    0.39399248246005314    0.3245315634765038    0.2569959295680424    0.2061728887892544    
  0.17448687881566163    0.16004439931217698    0.1602162225221137    0.17367913018289108    0.20057030304007606    
  0.24091443015607358    0.2960942202657625    0.37011413914779556    0.46665816305639846    0.5766731928133865    
  0.6586200447656857    0.657136734242012    0.5774940340920769    0.4968957956167836    0.33442809201727863    
  0.35264059017921195    0.4252402276672325    0.44003809329200627    0.37011225379443285    0.27846842873217076    
  0.20617151157349    0.16004440451993204    0.13567658004436287    0.12781524776985442    0.1334374836767966    
  0.15218038470486595    0.18610273527506316    0.24091442173580638    0.32452976584519055    0.4417839391935553    
  0.5766708130406282    0.6571367100919591    0.5896984468277611    0.42951343635381894    0.33442809201727863    
  0.15399269183184108    0.20279789381484453    0.3526405870096983    0.4605312285208046    0.41618997175492584    
  0.30887520981451294    0.21854869646821026    0.16021622285340642    0.12781524006572217    0.11378791623480988    
  0.11337561663975353    0.12537465363844225    0.15218038487312283    0.20057031763214284    0.2801599309936727    
  0.39736710632499456    0.5308614614161502    0.577494073348687    0.4295133565610174    0.2311831438186308    
  0.15399269183184108    0.09758068834519144    0.1539926738456666    0.3344281413759365    0.49689569827945895    
  0.4696754299419297    0.34933863483531197    0.2433949573326397    0.17367910563082767    0.13343753671721015    
  0.11337559005455    0.10734878150218773    0.11337561431654164    0.1334375003660687    0.17367912832319599    
  0.24339491824082074    0.3493387098490751    0.4696753662621035    0.49689576903482674    0.3344281424471864    
  0.15399267327276067    0.09758068834519144    0.2737117885340704    0.3344281359347809    0.4700965345276652    
  0.5343081760320842    0.4666602197016322    0.3527988378797689    0.25699747004797835    0.19220095643921367    
  0.15345696325955244    0.13343751156556377    0.12722630430942108    0.1334375031751852    0.15345696722508506    
  0.1922009255935731    0.25699751741626314    0.3527988128732661    0.46666027382621217    0.5343081542528347    
  0.4700965463515677    0.33442811613431284    0.2737117885340704    0.3344281322132153    0.4295133152206045    
  0.5896985214631105    0.6571366058441992    0.5766709174003862    0.4417838377301952    0.32452985506356785    
  0.24091435761823002    0.18610281256544206    0.15218032906493498    0.13343751619398977    0.12781519671819194    
  0.1356766078854747    0.160044370579423    0.20617152049814108    0.2784684155133475    0.37011224883027133    
  0.4400380907695832    0.42524030657834677    0.3526405564841733    0.3344281322132153    0.4700965246531702    
  0.5896985298108383    0.7259193042505648    0.755814460419312    0.6586224306121758    0.5167601961558408    
  0.3939943085977563    0.3020968992246708    0.2346408721496801    0.1861028362226544    0.1534569413728797    
  0.13567661184902696    0.13233257731614081    0.144376162872972    0.17448814719643665    0.22567192310810708    
  0.29609588449526836    0.3684454589058721    0.41129435102786055    0.42524029843874306    0.4700965246531702    
  0.5343082341004943    0.657136597781557    0.7558144399844466    0.7558167639549881    0.657134472613531    
  0.5343101845069904    0.4400362268770892    0.3684471027196997    0.3020969333084713    0.24091433475523982    
  0.1922009882685618    0.16004431605949    0.1443762041892355    0.14437722979546044    0.1600432186477289    
  0.19220221090460846    0.24091296459760453    0.3020984270864496    0.3684454451128992    0.4400380048727232    
  0.5343082341004943    0.46666013796210193    0.5766709686704597    0.6586223915425136    0.6571343620298228    
  0.5774962485393801    0.4968937367011054    0.4605331227831669    0.440036249378698    0.3939942350925693    
  0.32452992030514094    0.25699738429471986    0.2061715704520675    0.17448809114245095    0.16004324752256296    
  0.16021740216960745    0.17367788748842497    0.2005716283495993    0.24091298036518763    0.2960958240391982    
  0.37011235767419004    0.46666013796210193    0.3527988682992234    0.44178380632579484    0.5167602903354224    
  0.5343101611378961    0.4968937478264546    0.47116548420690757    0.4968937376824966    0.5343101311996153    
  0.5167603291245606    0.4417837284043739    0.35279901935132163    0.27846826057386426    0.22567203984817807    
  0.19220216733899534    0.17367791708761504    0.1675968864345396    0.17367789963307054    0.1922021980004061    
  0.2256719850197916    0.2784683507418341    0.3527988682992234    0.25699740686632816    0.32452989416090167    
  0.39399421423533376    0.44003621706762636    0.4605331047067742    0.49689380283448686    0.5774961869285679    
  0.6571345801482963    0.6586222731114071    0.5766710425684822    0.4666600488402327    0.370112427347537    
  0.29609575704225244    0.2409130513173065    0.20057160761313106    0.17367790773275754    0.16021736148745178    
  0.16004324831531924    0.17448811107023912    0.20617157745418474    0.25699740686632816    0.19220101467032738    
  0.24091430259122185    0.3020969405143811    0.36844710490214205    0.4400362803742062    0.534310110225315    
  0.6571345408709032    0.7558165844518525    0.7558146191142721    0.6571364448823696    0.5343084192940534    
  0.4400378686076096    0.36844558720927295    0.30209831428853606    0.24091304116823078    0.19220218252274046    
  0.1600432539269402    0.14437720794202222    0.14437617436846162    0.16004433170386848    0.19220101467032738    
  0.1534569027481636    0.1861028421248294    0.2346408486739507    0.30209695241504614    0.393994204207107    
  0.5167603419717878    0.6586222858208848    0.7558146075566119    0.7259191325800967    0.5896987322022843    
  0.4700962872286525    0.4252404673036291    0.4112941763966599    0.3684455618602815    0.29609575853262476    
  0.2256720044803278    0.17448811641867298    0.1443761944133027    0.13233255474394637    0.1356766579653443    
  0.1534569027481636    0.1334375458416837    0.1521803041525486    0.18610285403980936    0.24091427435079227    
  0.3245299577998795    0.44178372193195037    0.5766710664454755    0.657136411670622    0.589698751931744    
  0.4295131234782489    0.3344283259836824    0.35264037197826453    0.4252404524521674    0.44003793093581167    
  0.3701124215182799    0.27846832118191434    0.2061715510127866    0.16004433816848546    0.13567664154494855    
  0.12781518580911097    0.1334375458416837    0.1272262477386011    0.13343756074723173    0.15345692493469895    
  0.19220098316170425    0.256997405749147    0.35279894694474884    0.4666600645600753    0.5343083871659225    
  0.47009635236248254    0.3344283093306718    0.27371164255953007    0.3344282777895253    0.4700963804809967    
  0.534308310299805    0.4666601184260223    0.3527989205698518    0.25699742823436506    0.19220098202839167    
  0.1534569248426825    0.13343754213855233    0.1272262477386011    0.13343752226033942    0.12781521002823293    
  0.13567662287185847    0.16004431886287954    0.2061715768900734    0.2784683301115518    0.37011238736875596    
  0.4400379368648295    0.42524045493703094    0.3526404063146894    0.33442826789321795    0.42951315648406074    
  0.5896986233704443    0.6571364916592342    0.5766710049213932    0.4417838106576177    0.32452985645048094    
  0.24091436979140507    0.18610280249637537    0.1521803390101768    0.13343752226033942    0.15345698198651142    
  0.1356765933954438    0.13233259792437585    0.14437615617319166    0.17448811861660757    0.22567197167264808    
  0.29609579515069867    0.36844552016346255    0.4112942414593009    0.4252404028449949    0.4700964186986973    
  0.5896985850931903    0.7259193068251043    0.7558145014654272    0.6586224202878947    0.5167601774878576    
  0.39399436095696394    0.3020968295778388    0.23464096487298436    0.18610274953269454    0.15345698198651142    
  0.1922009337427793    0.16004439214023242    0.14437612215629317    0.14437729372217234    0.16004321987261924    
  0.19220222214950866    0.24091298425396918    0.3020984027013414    0.368445467105916    0.4400380267199481    
  0.5343083056126976    0.6571365187871191    0.7558144811598093    0.7558168148371068    0.6571343236242861    
  0.534310284685797    0.4400361226193514    0.36844719323120795    0.30209680565712227    0.24091441931349028    
  0.1922009337427793    0.2569975081386303    0.20617147207485545    0.1744881916920314    0.16004313911193463    
  0.1602174664762479    0.17367782916348645    0.2005716628013998    0.24091297504427242    0.29609586066225824    
  0.37011232291467105    0.466660177761726    0.5766708792430719    0.6586224601912045    0.6571343603684927    
  0.5774963693405785    0.4968935782878665    0.46053325642154264    0.4400360929723284    0.3939944211005673    
  0.32452978678612115    0.2569975081386303    0.352798754589882    0.278468461425014    0.22567189105094349    
  0.1922022787481997    0.17367782213515268    0.16759695939045555    0.17367784648132192    0.1922022353690001    
  0.2256719245350645    0.27846839215349706    0.352798853844285    0.4417838639589859    0.5167601583004107    
  0.534310311531626    0.4968935906529749    0.47116569021872073    0.4968935262993346    0.5343103405329812    
  0.5167600622258992    0.44178396618027854    0.352798754589882    0.4666603365243941    0.3701121884711619    
  0.2960959262360118    0.24091288074987685    0.20057171039832128    0.17367784191529087    0.1602174627404217    
  0.1600431905488373    0.1744881791763035    0.2061714851355724    0.2569974857140101    0.3245298197945471    
  0.3939943891683904    0.44003609324094317    0.4605333371243022    0.49689353949577447    0.5774963783755359    
  0.6571342756466455    0.6586225590542999    0.5766707988379268    0.4666603365243941    0.5343081178954183    
  0.44003811525937864    0.368445379276058    0.302098495283282    0.24091289289054554    0.1922022659394053    
  0.16004317471660487    0.14437728029628866    0.14437612425494667    0.16004440368647493    0.1922009293139083    
  0.24091438965588186    0.30209681628136664    0.3684472322405479    0.44003606830881586    0.534310374750752    
  0.6571342568880123    0.7558169275619246    0.7558142945395172    0.6571367107633739    0.5343081178954183    