#     DFTpy    
  CRYSTAL 
    
  PRIMVEC    
  5.042206896551723    0.0    0.0    
  0.0    5.042206896551723    0.0    
  0.0    0.0    2.777931034482758    
  PRIMCOORD    
  4    1    
  Si    0.0    0.0    0.0    
  Si    2.5211034482758614    2.5211034482758614    1.388965517241379    
  Si    0.0    2.5211034482758614    0.6944827586206895    
  Si    2.5211034482758614    0.0    2.0834482758620685    
  BEGIN_BLOCK_DATAGRID_3D    
  3d_datagrid_density    
  BEGIN_DATAGRID_3D#0    
  23    23    13    
  0.0    0.0    0.0    
  5.042206896551723    0.0    0.0    
  0.0    5.042206896551723    0.0    
  0.0    0.0    2.777931034482758    
  0.05581127888602999    0.09872242128509263    0.2514573642165419    0.401223230802635    0.3931608671663861    
  0.32643300734077846    0.2936491768174788    0.30665946249655684    0.3484814786172755    0.3834425257906351    
  0.3867987054064451    0.3804817164823727    0.3867987894765808    0.38344246372115304    0.3484814647129945    
  0.30665949174092144    0.2936492569115391    0.3264330430216786    0.39316090998421505    0.4012231000245944    
  0.251457380474214    0.09872240438836423    0.05581127888602999    0.09872239462219969    0.14833963746901646    
  0.2933280897471627    0.4023305767460875    0.3728833946177967    0.3060748993549178    0.27503271269888124    
  0.2873650719250327    0.32847114351660767    0.36785414331036637    0.3807981938649501    0.3796741531891815    
  0.3807982455873371    0.3678541319353106    0.3284710637242343    0.2873650125542011    0.27503267051645325    
  0.30607493990963164    0.3728834911177205    0.40233053038193234    0.2933280614256608    0.14833964702933924    
  0.09872239462219969    0.25145733792597835    0.2933279770786168    0.37249165544759766    0.3825540403934305    
  0.31775769301724915    0.2549851964407396    0.22855026943335102    0.23882104686335118    0.2758719522686416    
  0.31952622114244955    0.34783276827587895    0.3560603402072424    0.3478328005671643    0.31952615875692586    
  0.2758719119590257    0.23882110041238733    0.2285502869146905    0.25498516646078434    0.3177577328874476    
  0.382554021677645    0.3724916586900044    0.2933280810789988    0.25145733792597835    0.40122322693723245    
  0.4023305745275035    0.38255413654264475    0.3209587077238815    0.24704111939081294    0.1955403407429794    
  0.175099739546799    0.18256786194070215    0.21166481049792216    0.25019954535623923    0.28178173902479015    
  0.29378855582297414    0.28178172480686803    0.2501995120870299    0.21166480310146227    0.18256787653357529    
  0.17509974323748548    0.19554035497592634    0.24704111409459295    0.3209586301122967    0.3825541351096065    
  0.40233063289377546    0.40122322693723245    0.39316086963316493    0.37288341653299    0.31775771055194757    
  0.24704114404818917    0.1855008723088994    0.14672122584104294    0.1315351204175469    0.13654284346871845    
  0.15732717391471324    0.18613419400370287    0.21145153917646783    0.22164913208080717    0.2114515891998876    
  0.1861341894239827    0.1573271434621585    0.13654284792485583    0.13153512987865137    0.14672119586282723    
  0.1855008991280654    0.24704108600281183    0.317757689110658    0.3728834707198932    0.39316086963316493    
  0.3264330050745388    0.30607487087903035    0.25498517285583866    0.1955403216961079    0.14672120558934018    
  0.11636535182173767    0.10432513791112889    0.1076434290846643    0.1227049099107434    0.14400668596964208    
  0.16292705063370333    0.17052838498903278    0.16292703611156045    0.14400670469222823    0.12270487189869848    
  0.10764345291923709    0.1043251646758184    0.11636535187709778    0.1467211950810091    0.1955403161953302    
  0.2549852081413952    0.3060748654289328    0.3264330050745388    0.29364919456334637    0.2750326767573911    
  0.2285502808976389    0.17509973871188675    0.13153511349657182    0.10432517628913553    0.09325375358007384    
  0.09555574072730781    0.10798812796275739    0.1259616342437347    0.14197211196366782    0.14835361647923387    
  0.14197203835814534    0.12596163275236852    0.10798809118671894    0.09555575461516393    0.09325377200848402    
  0.10432514981206585    0.13153508302620662    0.17509973771329557    0.22855027307954714    0.27503265396425214    
  0.29364919456334637    0.30665948558760253    0.2873650167704108    0.23882102716931536    0.18256786167948122    
  0.13654282423516106    0.10764344852309242    0.09555573934583858    0.09743409534322645    0.11002406272952998    
  0.12847000799552583    0.14499104990099565    0.15164095471924352    0.14499108968442193    0.128469986130721    
  0.11002404528691656    0.09743411460163909    0.09555574981070271    0.10764343197244025    0.13654281101796822    
  0.18256785713980872    0.23882105335239892    0.2873650730369028    0.30665948558760253    0.3484815272859954    
  0.32847110639671023    0.2758719642747153    0.2116647732016842    0.15732718059206532    0.12270494612061503    
  0.10798813776258932    0.11002408476811855    0.12506007618630666    0.14706314024376527    0.1668687796596834    
  0.17496070137334024    0.16686874061024354    0.14706310455219793    0.12506000616432258    0.11002412256508826    
  0.10798814148170055    0.12270492842080159    0.15732718230721368    0.21166474574016717    0.2758719660068046    
  0.32847120484096953    0.3484815272859954    0.38344250053835005    0.36785411224575765    0.3195262271592514    
  0.2501995134726739    0.1861341769055695    0.1440067045034586    0.12596166998967256    0.1284700235255474    
  0.14706312724490841    0.174435786508364    0.19930381024334323    0.2095592455688485    0.19930387024795393    
  0.17443577937061794    0.14706314196455272    0.1284700349496328    0.12596167652383292    0.14400672545730012    
  0.1861341874966577    0.25019946961610184    0.3195262142076851    0.36785418096100964    0.38344250053835005    
  0.38679874860765934    0.38079818837398133    0.347832778742848    0.2817817128774713    0.21145157238184295    
  0.1629270399177028    0.141972089024575    0.14499102520193474    0.1668687546805324    0.19930380876051979    
  0.22881343789374356    0.24091588615506612    0.22881344753476207    0.19930383367133978    0.16686870860949707    
  0.1449910384498451    0.14197205781520733    0.16292705599834095    0.21145157004915266    0.28178175246407317    
  0.34783282565634366    0.3807982747444446    0.38679874860765934    0.3804816765852653    0.37967421276815816    
  0.35606028232221704    0.2937885077260084    0.22164910906878937    0.17052837500320261    0.14835361944422495    
  0.1516409660974986    0.17496073632314363    0.2095591869932795    0.24091583995460308    0.25369263101594625    
  0.24091592138522824    0.20955916067805075    0.17496072406343707    0.15164102094555412    0.14835365290314895    
  0.17052835501555608    0.22164907265406714    0.29378846017847215    0.3560603158370295    0.3796741670856488    
  0.3804816765852653    0.3867987650841305    0.38079815928931793    0.347832817927796    0.28178173148411645    
  0.21145157606979284    0.16292700693806192    0.14197206064559012    0.1449910825480329    0.1668686938272556    
  0.1993037978568287    0.22881345539643608    0.2409158413094424    0.2288134296204912    0.19930381915936612    
  0.1668686963133193    0.14499104716944755    0.14197205900477702    0.16292708204557715    0.21145157170947285    
  0.28178167888915945    0.3478327636362033    0.38079822966627797    0.3867987650841305    0.3834424436117267    
  0.3678540909222673    0.31952621763789274    0.25019951695846104    0.1861342176913258    0.14400672242139778    
  0.12596166035553216    0.12847005430084893    0.14706316141634745    0.17443581076314066    0.19930377803165744    
  0.20955927928718115    0.19930383634879092    0.17443577330821047    0.14706313444017668    0.12847005170373016    
  0.12596168081187523    0.14400671679266389    0.18613419880093815    0.25019948997876257    0.31952621587335295    
  0.3678541723265184    0.3834424436117267    0.34848150562962155    0.3284711101986236    0.27587192710648906    
  0.21166481680900856    0.15732717988029263    0.12270491474722366    0.10798811449545964    0.11002406469607036    
  0.12506004646934257    0.1470631512768631    0.1668687724688693    0.17496073921590383    0.1668687416402371    
  0.14706310627324484    0.1250600463531367    0.11002409217617355    0.1079881328280959    0.12270491604801483    
  0.15732717954772701    0.21166477946207393    0.2758719538683054    0.32847122256693784    0.34848150562962155    
  0.3066595026484276    0.2873649949369067    0.23882104814612462    0.1825678626772217    0.13654278699845124    
  0.1076434503913841    0.09555572814982591    0.09743410983324481    0.11002405011992683    0.1284699736017755    
  0.1449910405901177    0.15164095953955425    0.14499109042480038    0.12847001159366778    0.11002404075115338    
  0.09743412483297724    0.09555573775670766    0.10764346070199604    0.13654280423685244    0.1825678616870791    
  0.23882099755105027    0.28736504606968566    0.3066595026484276    0.29364919480128926    0.2750327164282712    
  0.22855025456051858    0.1750997349224892    0.13153512081927327    0.10432516778372854    0.09325375860706753    
  0.09555573305565482    0.1079881397316427    0.12596163937754454    0.141972068025003    0.14835360246892818    
  0.1419720608048    0.12596165748508348    0.10798809765229672    0.0955557505119223    0.09325377596630625    
  0.10432516182399601    0.13153511227752407    0.17509972655603545    0.22855025040812588    0.27503264391209836    
  0.29364919480128926    0.32643300077257004    0.30607487455468985    0.25498513945902385    0.19554034661930803    
  0.14672119139106907    0.11636537018435664    0.10432511404432127    0.10764344390791841    0.12270492570970368    
  0.14400665717251393    0.16292704794854052    0.17052836060350848    0.16292705448041273    0.14400669838837124    
  0.1227048946026695    0.10764344552720287    0.10432514551241504    0.11636534072031876    0.14672119531778235    
  0.19554032596718937    0.254985153029617    0.3060748818953786    0.32643300077257004    0.3931608408921121    
  0.3728834163780078    0.3177577241982885    0.24704114189338194    0.1855008748917626    0.14672124016425714    
  0.131535133085956    0.13654282079609148    0.1573271774188916    0.18613419716772778    0.2114515624148496    
  0.22164912258509167    0.21145161749284147    0.1861341949747058    0.15732715166150793    0.13654286381156439    
  0.13153511365857    0.14672120507794387    0.1855009022445346    0.24704110246024774    0.31775777023452867    
  0.37288351713941353    0.3931608408921121    0.4012231945076296    0.40233058645660463    0.3825539944254275    
  0.32095869201787175    0.24704112562487032    0.1955403575488793    0.17509976687030313    0.18256786671533057    
  0.21166484100623112    0.25019953783078586    0.2817817403912856    0.2937884581681155    0.28178173867918743    
  0.2501995102402348    0.21166477387054036    0.1825678999777897    0.17509976397763105    0.19554034954940128    
  0.2470411123133665    0.3209586633020405    0.38255407945485403    0.40233062243470435    0.4012231945076296    
  0.2514573811534799    0.293328008778569    0.372491648062028    0.3825540355887715    0.3177577365077491    
  0.2549852004332162    0.22855026603158207    0.23882104756411734    0.2758719553873168    0.31952619561331475    
  0.347832798086262    0.35606035724307084    0.3478328198667016    0.31952616828081126    0.27587192667078053    
  0.2388210453341765    0.22855027804642739    0.25498517838379464    0.3177577235844286    0.38255395986590884    
  0.37249165369302617    0.29332806381357984    0.2514573811534799    0.09872241443961334    0.14833961764194709    
  0.29332811333029446    0.40233056459542177    0.3728834158505484    0.30607486975861564    0.27503264742181555    
  0.28736502680185777    0.3284711429177938    0.3678541674667762    0.3807982485556115    0.3796742168543805    
  0.3807983474774569    0.36785412963458874    0.3284710722214288    0.28736501479752435    0.27503264612897305    
  0.3060749256480113    0.3728834526055507    0.4023305735737889    0.29332806125402805    0.14833964618242584    
  0.09872241443961334    0.05581127888602999    0.09872242128509263    0.2514573642165419    0.401223230802635    
  0.3931608671663861    0.32643300734077846    0.2936491768174788    0.30665946249655684    0.3484814786172755    
  0.3834425257906351    0.3867987054064451    0.3804817164823727    0.3867987894765808    0.38344246372115304    
  0.3484814647129945    0.30665949174092144    0.2936492569115391    0.3264330430216786    0.39316090998421505    
  0.4012231000245944    0.251457380474214    0.09872240438836423    0.05581127888602999    0.09875054201934375    
  0.1472056992261333    0.28653407290331645    0.3858318448179703    0.3479909197168586    0.2743125000798172    
  0.23460259497097    0.23430183034953467    0.26385215031397335    0.307016758565126    0.34177651681183374    
  0.3542376655683241    0.3417766124162548    0.30701675060559913    0.2638521384636029    0.2343018447524644    
  0.23460264614683057    0.27431244781360725    0.34799087984605886    0.38583175161673305    0.28653405166696244    
  0.1472057051546678    0.09875054201934375    0.14939795973225695    0.19928007278486562    0.3214582276470413    
  0.38402737451022095    0.33107535636765206    0.2585866306795125    0.22100828255282737    0.22063516966158672    
  0.24847992111017497    0.28968444869707405    0.32375915463684574    0.33634052919048596    0.32375917101506246    
  0.28968446147488947    0.2484799313679616    0.22063517711564967    0.22100819476628175    0.2585866753734226    
  0.33107541879484226    0.38402737619095906    0.32145822940380814    0.1992801137270008    0.14939795973225695    
  0.29979669713940027    0.3319108974642706    0.3809733022032569    0.3615939318926049    0.28550668497177306    
  0.2191342986380402    0.1870892932499953    0.18655003883566235    0.20986592055591674    0.24514072382784285    
  0.2757087275261545    0.2876184450904041    0.27570878643195257    0.24514064354076176    0.2098658933397937    
  0.18655006285209924    0.1870892995417889    0.21913430769751438    0.28550671854274623    0.3615939366964008    
  0.3809733745129238    0.3319109761520547    0.29979669713940027    0.4207773312479696    0.41419345537760466    
  0.3785320742070294    0.30592469348082096    0.22764725756092435    0.1732502319671284    0.14813579027953613    
  0.14742038059308143    0.1649839707179789    0.19198023072248305    0.21620091056940066    0.22599849144422973    
  0.21620090933822705    0.19198023365598674    0.16498398193920666    0.14742040228186598    0.14813580469940885    
  0.1732502385773668    0.2276472551145414    0.30592464266843156    0.37853213543506903    0.41419348444554116    
  0.4207773312479696    0.4054181531078296    0.3820596700190622    0.320309780333307    0.24381672365444856    
  0.17830667499213834    0.1360775631866009    0.11681268411712765    0.11595539865380436    0.12860753741282546    
  0.14832919392024888    0.1663635379404108    0.1737627904745374    0.16636362801559104    0.14832918821030106    
  0.1286075286347375    0.11595541740708086    0.11681268518569891    0.13607755763402674    0.17830669709618352    
  0.243816640346847    0.32030974985652255    0.382059745104181    0.4054181531078296    0.3526364493754183    
  0.3294617564274608    0.2715066366795764    0.20456136247711584    0.1496881953596784    0.11468636492594018    
  0.0986388522942726    0.09763031395801199    0.1074086662512156    0.12289256390873968    0.13708814239671194    
  0.14286613495759992    0.13708814891162352    0.12289256158929397    0.10740863101520483    0.09763031581770992    
  0.09863886385108933    0.11468636060921804    0.14968818567253514    0.20456137099002128    0.27150666351905794    
  0.32946173806162354    0.3526364493754183    0.3396997606646085    0.31722878284984396    0.26111061305991917    
  0.19658116902029366    0.1438797399556629    0.11022030878658255    0.09465949690273183    0.09338057990407243    
  0.10232239459291054    0.11674037647936646    0.12996987869767673    0.13533096937460465    0.1299698380006635    
  0.11674040222145998    0.10232235077850348    0.0933806008232648    0.09465952069070163    0.11022028854532757    
  0.14387971811970834    0.1965811940616916    0.26111065564594615    0.31722877797105836    0.3396997606646085    
  0.37322520963658995    0.34985908630907414    0.289976526993272    0.2188939789968644    0.15963828918200226    
  0.12157281229725392    0.10385170628139705    0.10221833682347582    0.11230709894633326    0.12866572022179093    
  0.14367713139230995    0.14979265843683362    0.14367715069496484    0.12866571079504058    0.11230708804793466    
  0.10221836671562144    0.10385171617428    0.12157278777372289    0.15963827531980432    0.2188939734042622    
  0.2899765884819424    0.349859133697094    0.37322520963658995    0.4121673782302578    0.3946854088319533    
  0.34114177244395794    0.2646376463159117    0.1936555207783836    0.1462574444283255    0.12398376335800693    
  0.12199901329807694    0.13508696959097222    0.1561970408932387    0.17548993273191862    0.1833648119680795    
  0.17548992139045022    0.15619703223636647    0.1350869145350449    0.12199903155743957    0.12398378914669243    
  0.1462574367450698    0.19365553145474265    0.26463761407360803    0.3411417756875142    0.3946854876510657    
  0.4121673782302578    0.3813688881564642    0.38689182124351273    0.37455244957581446    0.31459386642543696    
  0.23619698524479218    0.17813763717974196    0.1502513290055258    0.14790932355270467    0.16483343668680003    
  0.19228609157921847    0.21743631624227597    0.2276817621906026    0.21743636641875558    0.19228608281816775    
  0.16483343207097773    0.14790933981022436    0.15025131936324346    0.17813763199622665    0.23619700708758237    
  0.3145938196503392    0.374552454673834    0.3868917898126048    0.3813688881564642    0.2920478800429504    
  0.3225378043248086    0.3677868654081416    0.3465786083344001    0.27146751790298523    0.2057998756488658    
  0.17322483270830313    0.1706612836432557    0.190966418032365    0.22407247546136    0.25435626664559247    
  0.26657570733917346    0.2543563230714462    0.2240724499081853    0.19096635629586395    0.1706612880796485    
  0.17322480620521874    0.20579987043061682    0.27146753231753395    0.34657862470079087    0.3677868918363555    
  0.32253788000692785    0.2920478800429504    0.2478436932545061    0.28648462875159575    0.35598235404506023    
  0.35600314261530314    0.28511338145604026    0.21682864378087888    0.18238852009502055    0.17980313930607916    
  0.20155895326859144    0.2370053877309942    0.26929655402278857    0.28221604159531394    0.2692966677046854    
  0.23700534896676084    0.2015589423282992    0.17980314392999044    0.1823885402159612    0.21682860865498643    
  0.2851134191388925    0.35600308407662823    0.35598239169191553    0.2864845762458166    0.2478436932545061    
  0.29204790697440214    0.3225377852042074    0.36778685569236225    0.3465786380570512    0.27146752411671776    
  0.2057998527661961    0.17322481863594374    0.17066136610673238    0.1909663930590509    0.2240724291828575    
  0.2543562841487801    0.26657564546468693    0.25435625241738224    0.22407247179309786    0.1909663781474285    
  0.17066129866317745    0.1732248224740261    0.20579992635785527    0.2714675241239126    0.3465785831060164    
  0.36778684481372936    0.3225378248815671    0.29204790697440214    0.3813688948821275    0.3868917195576266    
  0.3745524126687545    0.3145938643387827    0.23619702670136758    0.1781376307786042    0.1502513258641806    
  0.14790931647090838    0.16483341826337677    0.19228609114605794    0.21743627146015906    0.22768180011887673    
  0.21743631552953577    0.19228606451181335    0.16483346393371415    0.14790934035232461    0.1502513127741658    
  0.17813764755090183    0.23619702970900067    0.31459383850888306    0.3745524219129667    0.3868918421154181    
  0.3813688948821275    0.41216731809748147    0.39468541201422697    0.341141732867286    0.2646376533201901    
  0.19365549376249003    0.1462574554069136    0.12398376512927013    0.12199902203570388    0.13508692129821553    
  0.15619706395622737    0.1754899119680225    0.18336486211519432    0.17548990160732425    0.15619704887031616    
  0.13508695440893095    0.1219990274240527    0.12398376140139815    0.1462574223907961    0.19365548849919786    
  0.26463760424691507    0.34114182150227385    0.3946855173340146    0.41216731809748147    0.37322522302854044    
  0.34985904346600216    0.28997657437274016    0.21889399496119039    0.15963827135625913    0.12157281825455167    
  0.10385170838062727    0.10221836626958541    0.11230708467301105    0.12866569165191194    0.14367712528994767    
  0.1497926649099498    0.14367715148377366    0.12866570895631013    0.1123070995412637    0.10221836304203602    
  0.10385171096113248    0.12157282318949368    0.1596382649737584    0.21889399278348903    0.2899765310936056    
  0.34985915659029293    0.37322522302854044    0.339699776272493    0.3172288263125559    0.2611106358556875    
  0.19658118621187187    0.14387974434738365    0.11022031768264096    0.09465951673314278    0.0933806047747268    
  0.1023223948057441    0.11674039647346796    0.12996983171481621    0.13533099049023517    0.12996982264318088    
  0.11674043428317675    0.10232235373899606    0.09338061886195359    0.09465954062384152    0.11022029537978756    
  0.14387974958540273    0.19658117565899577    0.2611106680111601    0.3172287753040974    0.339699776272493    
  0.3526364487801985    0.3294617559724429    0.27150666572203785    0.20456133848268687    0.14968819229137537    
  0.11468637020358574    0.09863883144015681    0.09763028763244297    0.10740866952662716    0.12289252867356427    
  0.13708813654456506    0.1428661129798699    0.13708812535673962    0.1228925710471265    0.10740862961696163    
  0.0976303143519345    0.0986388493862761    0.11468636235170901    0.1496881879944957    0.20456134890720243    
  0.27150665463184015    0.3294617795696979    0.3526364487801985    0.4054181169034715    0.38205966956227955    
  0.32030977176080166    0.2438166869662936    0.178306671626191    0.13607757428988518    0.11681266823430216    
  0.11595539215356966    0.12860753173232092    0.14832921055659234    0.16636357856646936    0.17376278482131322    
  0.16636363085724068    0.14832920083293116    0.12860750080868324    0.11595541546933623    0.11681269661453017    
  0.13607756563465437    0.17830667382205254    0.24381669166808773    0.32030982350077064    0.38205981444371406    
  0.4054181169034715    0.42077734446667436    0.4141934257610085    0.3785320131189595    0.30592469648722137    
  0.2276472694668394    0.17325022503709042    0.1481358010527638    0.1474203821660919    0.16498403746270798    
  0.19198025908898103    0.21620091461465557    0.22599842305156534    0.21620091044662051    0.19198022484311725    
  0.16498397585370964    0.14742043927423346    0.1481358151079473    0.17325023837262005    0.22764726750298978    
  0.30592463086113886    0.3785320671960495    0.414193499540432    0.42077734446667436    0.29979675563795577    
  0.33191088484871206    0.3809733958611753    0.3615939588278911    0.2855067243036274    0.21913432522745038    
  0.1870892915002541    0.18655004201242312    0.20986594048079296    0.24514074016980877    0.2757087373472821    
  0.2876184354868471    0.2757087570890726    0.24514069451570192    0.20986588653628707    0.18655005105289968    
  0.187089311968703    0.2191343156973794    0.2855067174611593    0.3615938683370234    0.38097336274412125    
  0.3319109782653627    0.29979675563795577    0.14939796643243747    0.199280036424862    0.32145827748600897    
  0.38402738482444204    0.33107534697102187    0.2585866095015442    0.22100824189724433    0.22063515956958227    
  0.24847992946571767    0.28968446856178365    0.32375918578090884    0.33634051802465315    0.32375926855133275    
  0.28968447239092393    0.248479875940627    0.22063514908995738    0.22100818283771853    0.25858668463435364    
  0.3310753576440206    0.38402738161864663    0.32145823334272566    0.19928008495341354    0.14939796643243747    
  0.09875054201934375    0.1472056992261333    0.28653407290331645    0.3858318448179703    0.3479909197168586    
  0.2743125000798172    0.23460259497097    0.23430183034953467    0.26385215031397335    0.307016758565126    
  0.34177651681183374    0.3542376655683241    0.3417766124162548    0.30701675060559913    0.2638521384636029    
  0.2343018447524644    0.23460264614683057    0.27431244781360725    0.34799087984605886    0.38583175161673305    
  0.28653405166696244    0.1472057051546678    0.09875054201934375    0.24784366053748358    0.2864845781063363    
  0.3559823610583321    0.3560032003876851    0.28511341027732495    0.21682867482095056    0.18238847390208485    
  0.17980308816668028    0.20155899920740863    0.23700542974609137    0.2692965423972358    0.28221603257919214    
  0.26929664065927905    0.23700537655928197    0.20155898471631    0.1798031408248797    0.1823885310305609    
  0.21682864528862147    0.2851133923040021    0.35600307228174005    0.35598235670192946    0.2864845914891921    
  0.24784366053748358    0.2920478932594918    0.32253783779685735    0.36778684487473534    0.3465786326206579    
  0.2714675095793443    0.20579986469416184    0.17322485236117596    0.1706613056233899    0.1909664099409127    
  0.22407244775217047    0.2543563018380795    0.2665756600559941    0.25435628840203534    0.2240724658912657    
  0.19096639449283292    0.17066130225805093    0.1732248114533197    0.20579990359251296    0.27146755191134914    
  0.3465785950217756    0.36778686275010536    0.32253783974256833    0.2920478932594918    0.3813688879335593    
  0.3868917287945511    0.3745524185004355    0.3145938534869169    0.23619702537959794    0.17813762746452988    
  0.15025131487927637    0.14790930811484007    0.164833437130357    0.1922861229350828    0.2174362982425483    
  0.22768181576365895    0.21743633140317772    0.19228606250344626    0.164833429386755    0.1479093337416582    
  0.15025134376886834    0.17813762537018563    0.23619702582817337    0.31459385397209777    0.37455250225905595    
  0.38689183683107503    0.3813688879335593    0.41216735466222043    0.39468543531308575    0.3411417814391752    
  0.26463766179273623    0.19365548775745903    0.1462574579464942    0.12398376985222022    0.1219989924558825    
  0.13508693217461737    0.156197034570032    0.17548987790477738    0.18336484811002846    0.17548990846377174    
  0.15619702995789975    0.13508692275451137    0.12199902938299571    0.12398377819829383    0.1462574241112206    
  0.19365548355038092    0.2646376102528608    0.3411418570752979    0.3946855049934763    0.41216735466222043    
  0.3732252250159339    0.3498590795782647    0.28997656162596064    0.21889403139967287    0.15963825817010246    
  0.12157280618635266    0.10385168106271901    0.10221834683743719    0.11230707565432962    0.12866568074129406    
  0.14367711455332655    0.14979265779186066    0.14367716690691829    0.12866571385556355    0.11230707463681545    
  0.10221836955062494    0.10385169984714747    0.12157282107261755    0.15963829271845145    0.2188939580433724    
  0.28997656555289975    0.34985911681509946    0.3732252250159339    0.3396997641214722    0.3172287795939302    
  0.2611106389617997    0.1965812115136067    0.1438797619939815    0.11022030055663389    0.09465951203389679    
  0.09338059432563235    0.10232239359239019    0.11674039845550768    0.12996986406724753    0.1353309773216213    
  0.12996986235008262    0.11674043431905738    0.10232235908022301    0.09338061265067159    0.09465953080516168    
  0.11022029718060739    0.1438797421095947    0.19658119214833447    0.2611106644320887    0.31722878101727    
  0.3396997641214722    0.3526364192676135    0.3294617395652179    0.27150663626683247    0.20456136969336738    
  0.1496881588512339    0.11468638722620764    0.09863883373670666    0.09763030158386189    0.10740864772110384    
  0.12289253089214822    0.1370881656970188    0.14286613099885145    0.1370881035890458    0.12289257005971929    
  0.10740861729775689    0.09763032112753693    0.09863886521515998    0.11468636044670234    0.1496881287553013    
  0.20456134853588157    0.2715066440550633    0.32946171324866214    0.3526364192676135    0.4054181446619709    
  0.3820597184138283    0.32030976680660744    0.24381668686846913    0.17830668839840227    0.13607757418372093    
  0.11681268753054802    0.11595540223437892    0.12860754159456744    0.148329222167204    0.16636357818532135    
  0.17376277101137555    0.16636359449589752    0.14832920249830545    0.12860751195771322    0.11595539686222903    
  0.11681271961673094    0.13607755237319366    0.17830666532744194    0.24381667512098404    0.3203098220432757    
  0.38205974032848744    0.4054181446619709    0.42077736770416974    0.4141933685090286    0.378532053729843    
  0.30592472014127225    0.22764727018835684    0.17325022330163653    0.14813582288221389    0.14742040710722537    
  0.16498403563615902    0.19198025573333097    0.21620093464604254    0.22599842252785143    0.2162009384769906    
  0.19198022665651795    0.16498397907054732    0.14742042024211105    0.14813582259446686    0.17325023956440164    
  0.22764726986543093    0.3059246476708281    0.37853204423641024    0.41419348389802524    0.42077736770416974    