#     DFTpy    
  CRYSTAL 
    
  PRIMVEC    
  4.414758620689654    0.0    0.0    
  0.0    4.414758620689654    0.0    
  0.0    0.0    4.414758620689654    
  PRIMCOORD    
  4    1    
  Si    0.0    0.0    0.0    
  Si    0.0    2.207379310344827    2.207379310344827    
  Si    2.207379310344827    0.0    2.207379310344827    
  Si    2.207379310344827    2.207379310344827    0.0    
  BEGIN_BLOCK_DATAGRID_3D    
  3d_datagrid_density    
  BEGIN_DATAGRID_3D#0    
  19    19    19    
  0.0    0.0    0.0    
  4.414758620689654    0.0    0.0    
  0.0    4.414758620689654    0.0    
  0.0    0.0    4.414758620689654    
  0.06629033856163466    0.12170788461700645    0.2986533027069661    0.39488381006353473    0.2958892027689273    
  0.17918785371279708    0.11190254228313964    0.0799618775157971    0.06669128116953005    0.06328781255331413    
  0.06669128999181538    0.07996188151721323    0.11190251377357532    0.17918788054045717    0.29588922297551934    
  0.3948837534769806    0.2986532849787458    0.12170787870225168    0.06629033856163466    0.12170791466873973    
  0.1841512494696295    0.34081944049155655    0.38878605383126064    0.2813277560051655    0.1729317216540491    
  0.11123792162964374    0.0819473793503699    0.06980744249012882    0.0666913027651092    0.06980745116114188    
  0.08194738212810442    0.11123791232814756    0.17293177674125976    0.28132778622366167    0.3887860878145545    
  0.3408194830140623    0.18415130619274353    0.12170791466873973    0.29865324962211925    0.34081945375839523    
  0.39687143569136474    0.35062361281909893    0.24266289883831405    0.15816997682284262    0.11168890207696049    
  0.09023089815387625    0.0819473611574876    0.07996188819816383    0.08194737171904973    0.0902308421887713    
  0.11168886922965203    0.15816996674461725    0.24266293143829437    0.35062360794567077    0.39687149972166846    
  0.3408193727459359    0.29865324962211925    0.3948837576933876    0.3887859813776502    0.35062362647464285    
  0.2738148990859287    0.19627141822624722    0.14521826263935367    0.12006362412993658    0.1116889078834408    
  0.11123789097676903    0.11190256306221796    0.1112379345408355    0.11168888686422467    0.12006358624719796    
  0.14521829874855152    0.19627139478553735    0.27381482775226307    0.3506235625086985    0.3887859964035935    
  0.3948837576933876    0.295889257138481    0.2813277908559079    0.24266291914180116    0.19627140349111355    
  0.1604827861338266    0.1438971398365611    0.14521826481045202    0.15816997466386598    0.17293176117820913    
  0.17918791726682656    0.17293175513825626    0.15817002162894298    0.14521826592441006    0.14389720415025997    
  0.16048279750364805    0.1962714110932639    0.24266299719648435    0.28132775126494014    0.295889257138481    
  0.17918793208116163    0.17293172195512818    0.15816997974522828    0.14521828550511556    0.143897175359972    
  0.1604827771676683    0.19627143153409068    0.24266296574693488    0.281327762687871    0.2958892167424048    
  0.28132779401479463    0.24266291070133153    0.1962713855365288    0.16048278521365952    0.14389717419471199    
  0.14521828053418329    0.1581699932326953    0.17293176170886082    0.17918793208116163    0.11190251749152602    
  0.1112378907140564    0.11168889668052004    0.12006363877590935    0.14521827708595564    0.19627139325292242    
  0.27381487326712484    0.3506235786361689    0.38878592495298747    0.3948838314558206    0.38878604851106424    
  0.35062355524545386    0.27381486773234187    0.19627138742097505    0.1452182594712023    0.12006357671329042    
  0.11168891036055163    0.11123788633038434    0.11190251749152602    0.07996190032804379    0.08194736293944935    
  0.09023086659873135    0.1116889174191731    0.15816995978720783    0.2426628569586996    0.3506235765121123    
  0.396871458296533    0.3408194109946031    0.29865323053593656    0.3408194799746347    0.3968714978924116    
  0.35062356851606186    0.24266297461267833    0.15816997950649953    0.11168893512731465    0.0902308869457783    
  0.08194736968832243    0.07996190032804379    0.06669128758133538    0.06980744910318808    0.0819473445663522    
  0.1112379336900003    0.172931737224251    0.2813277765050959    0.38878607689465255    0.34081954069089115    
  0.18415129476535397    0.12170792232552086    0.18415128811554318    0.34081948629765385    0.38878595608538086    
  0.2813277969889106    0.17293171137965155    0.11123792925215785    0.08194736039652785    0.06980745989283285    
  0.06669128758133538    0.06328782071348346    0.06669128816281118    0.07996189970078346    0.111902554211408    
  0.1791879049145455    0.2958891839197938    0.39488380760297037    0.298653254363482    0.12170788532878245    
  0.06629031829215548    0.12170791047690614    0.29865320685061625    0.3948837749601233    0.2958891579653495    
  0.17918790050968678    0.11190251614344285    0.07996190191526627    0.0666912679089415    0.06328782071348346    
  0.06669129857801931    0.06980746344954326    0.08194735260090658    0.11123792659983381    0.17293172828130254    
  0.2813277647469854    0.38878604144415124    0.3408195100883347    0.18415127361336456    0.12170794403661706    
  0.18415125996790463    0.3408194546356793    0.38878606220065426    0.2813278088555955    0.1729317467659636    
  0.11123790750356535    0.0819473691230055    0.06980746711740592    0.06669129857801931    0.07996190564305937    
  0.08194735509366244    0.0902308567132729    0.11168889639026985    0.15816995525176059    0.2426629226139114    
  0.3506235802155286    0.3968715595755006    0.34081942172272817    0.2986532311996816    0.3408194804650665    
  0.39687144490765963    0.35062353625555265    0.24266289504406333    0.15816999936627024    0.11168890527230137    
  0.09023087244296281    0.08194736115068245    0.07996190564305937    0.11190251588422721    0.1112378844768095    
  0.11168890273251941    0.12006362163905251    0.14521826133901236    0.19627138384086865    0.27381483412773067    
  0.35062363283206505    0.3887860206861087    0.39488380358521363    0.3887860871675746    0.35062356753313667    
  0.27381481053431633    0.1962714110763241    0.14521827180563884    0.1200635863763908    0.1116889020455878    
  0.11123788109260693    0.11190251588422721    0.17918794983029251    0.17293175145725603    0.15816999490160452    
  0.1452182832663215    0.14389718763353002    0.1604827813027391    0.19627139914239225    0.24266294158458568    
  0.281327763497737    0.29588921239420013    0.28132779300169525    0.2426629262159436    0.1962713839968452    
  0.1604828216644769    0.14389717822979753    0.14521828936417994    0.15817000912837872    0.17293174536267295    
  0.17918794983029251    0.29588927281321253    0.2813277652497435    0.24266294935070373    0.19627139933827206    
  0.16048276116489577    0.14389718371306282    0.1452182926639252    0.15817003090665666    0.17293174123349025    
  0.1791879369532206    0.17293175611324715    0.15816997940477176    0.14521825863545335    0.14389717452187722    
  0.16048279415063943    0.19627143838736197    0.24266291425939693    0.2813277698183991    0.29588927281321253    
  0.3948838102176651    0.3887860507463976    0.35062364219917086    0.2738148800356638    0.19627140749366165    
  0.14521827247998378    0.12006360459524268    0.1116888923979496    0.11123790189883256    0.11190253734400345    
  0.11123791040946668    0.11168888561975446    0.12006359683915796    0.14521825475770894    0.1962713709294948    
  0.27381483229357984    0.3506236029432426    0.3887859998297549    0.3948838102176651    0.2986532673011351    
  0.3408194607137725    0.3968714905302152    0.3506236456639666    0.24266290102539143    0.15816994209750931    
  0.1116889067492841    0.09023089023320416    0.08194734360324704    0.07996188513505685    0.08194737423260959    
  0.09023088065491279    0.11168890793604583    0.15817004944277885    0.24266293727808677    0.35062360827434474    
  0.3968715164608987    0.3408194077711532    0.2986532673011351    0.12170790897196974    0.18415124940848862    
  0.34081946135123714    0.3887860952505334    0.281327767687474    0.17293177522107422    0.11123792178686114    
  0.08194738864191436    0.06980745801780934    0.0666913039327949    0.0698074716354692    0.08194736762533998    
  0.11123788361848443    0.1729317335356276    0.2813277506332668    0.3887860691841925    0.34081945645142286    
  0.1841512482985007    0.12170790897196974    0.06629033856163466    0.12170788461700645    0.2986533027069661    
  0.39488381006353473    0.2958892027689273    0.17918785371279708    0.11190254228313964    0.0799618775157971    
  0.06669128116953005    0.06328781255331413    0.06669128999181538    0.07996188151721323    0.11190251377357532    
  0.17918788054045717    0.29588922297551934    0.3948837534769806    0.2986532849787458    0.12170787870225168    
  0.06629033856163466    0.12170791916632512    0.18415127495642306    0.3408195740329125    0.38878612120156364    
  0.2813277825797339    0.17293168939957498    0.11123795253462769    0.08194737351895488    0.06980746465420855    
  0.06669129442684694    0.06980746156902093    0.08194736488598332    0.11123793654865557    0.1729317398995295    
  0.2813277593331656    0.38878604279335344    0.34081948426414244    0.18415124252351428    0.12170791916632512    
  0.18415130002295818    0.24528592378750272    0.37056942334715076    0.3780735353241139    0.2670168953807222    
  0.16679143077518074    0.11033559310318611    0.08358781588183863    0.0725997998106105    0.06980749234372144    
  0.07259981083920265    0.08358782263475865    0.11033559976406161    0.1667914861661279    0.267016963628745    
  0.37807357446226214    0.37056943134428194    0.24528591501822095    0.18415130002295818    0.3408194968525621    
  0.37056941762298173    0.39624705994566783    0.3335401913866428    0.22973210195213017    0.15231759195926436    
  0.1100376991920496    0.09075909187333643    0.08358780220720963    0.08194736489920111    0.08358781493505223    
  0.09075906408306164    0.11003766498547715    0.1523175942119517    0.2297321451222173    0.3335402195486983    
  0.396247048756128    0.37056938424947683    0.3408194968525621    0.3887860306823493    0.3780735176394657    
  0.3335401790495036    0.257854949939164    0.18590764557024766    0.13947483801511742    0.11697981934332154    
  0.11003768537023323    0.11033553732254679    0.11123795861006668    0.11033558403401596    0.11003766223751346    
  0.11697978327151476    0.13947484869232837    0.1859076482862045    0.2578548919449743    0.33354020995781636    
  0.37807347137931746    0.3887860306823493    0.28132780632728954    0.2670169138962896    0.22973210634101904    
  0.18590767501279834    0.15268460293878908    0.13765069536472585    0.13947485054079084    0.1523176041640287    
  0.16679145673902854    0.17293178279293592    0.16679144463388917    0.15231760521483884    0.13947482695350857    
  0.13765073138460665    0.15268460921381605    0.18590766519156823    0.2297321860757876    0.26701690075780005    
  0.28132780632728954    0.17293178082950997    0.16679143428937754    0.1523175892220062    0.13947486078521437    
  0.1376507015002112    0.15268461347318904    0.1859077094400007    0.22973217848349775    0.2670168833898348    
  0.2813278109993578    0.26701693713488045    0.22973212362703932    0.18590766390424443    0.15268461581652246    
  0.13765069654583353    0.13947487030015454    0.15231759069820697    0.1667914623368077    0.17293178082950997    
  0.1112379138031044    0.11033556544447792    0.11003770066501758    0.11697980614188837    0.13947486335289216    
  0.18590764405461654    0.25785492598004345    0.33354018783575856    0.3780734840343017    0.38878610150044834    
  0.3780735913499871    0.33354013618857997    0.2578548957338585    0.18590765873923407    0.13947483200320335    
  0.11697976428516689    0.11003770748757598    0.11033555952362721    0.1112379138031044    0.08194737700819349    
  0.08358782251988474    0.09075901703133074    0.11003770026214275    0.1523175699119288    0.22973209724686877    
  0.3335402159926654    0.3962470600999357    0.3705693462002629    0.3408194894704502    0.37056940390229354    
  0.39624704538626687    0.33354015559411165    0.2297321602216022    0.15231760331189678    0.11003770458261232    
  0.090759061318011    0.08358778674448673    0.08194737700819349    0.06980748564542073    0.07259981614386136    
  0.08358780879855836    0.11033561526500388    0.16679143010708358    0.2670169244170961    0.37807361633383746    
  0.37056950245338555    0.24528590858610005    0.18415128506613881    0.2452859349772376    0.37056943737630194    
  0.3780734991606205    0.26701694030763523    0.16679143250709152    0.11033559535104563    0.08358780914074797    
  0.072599816032113    0.06980748564542073    0.0666913132372079    0.06980745650955231    0.08194739441505357    
  0.1112378998943785    0.1729317776788009    0.28132779453621964    0.38878607670499443    0.3408195301253064    
  0.18415127623805055    0.12170791995024839    0.1841512804353637    0.34081947075569763    0.388786069939413    
  0.281327749023572    0.1729317812804832    0.11123793006382443    0.08194738012627649    0.06980745584182484    
  0.0666913132372079    0.06980749109077071    0.07259981063699587    0.08358780418906435    0.11033558743533865    
  0.16679142663935864    0.2670169320975339    0.3780735557337232    0.37056940856162823    0.2452858706865255    
  0.18415132951227847    0.2452859028684116    0.37056941757398765    0.3780735997043589    0.26701699086457614    
  0.16679145386347638    0.11033557652609166    0.08358779475561408    0.07259983068389293    0.06980749109077071    
  0.08194735545647759    0.08358780889995927    0.09075904653370188    0.11003769264738116    0.15231758930754238    
  0.22973216121398593    0.3335401342964634    0.3962471544905471    0.37056932968227846    0.3408194283179993    
  0.37056942202699056    0.3962470011473639    0.33354013344201844    0.2297321033604892    0.15231761955775122    
  0.11003769227038493    0.09075903384199019    0.0835877930176373    0.08194735545647759    0.11123788888087682    
  0.11033558041494175    0.11003768614221536    0.1169797991928361    0.13947484966285018    0.18590765106341023    
  0.2578549003908291    0.3335402137399555    0.37807349627004966    0.3887860874402105    0.37807361951713414    
  0.33354015933153985    0.257854904540055    0.18590765953418387    0.1394748387451041    0.11697977561538396    
  0.11003768997652502    0.11033556903065267    0.11123788888087682    0.17293178854346655    0.1667914437917465    
  0.1523175924766558    0.13947484450542258    0.1376506842454308    0.15268462528655438    0.18590766241598397    
  0.22973214895131247    0.2670169214152418    0.28132781393421225    0.2670169432231668    0.22973215526304036    
  0.18590766083444224    0.15268464623795294    0.13765071903675238    0.13947484906780927    0.15231762400758597    
  0.16679142253050203    0.17293178854346655    0.28132786021821354    0.2670169432092928    0.22973213510388918    
  0.18590766094380626    0.15268461586855459    0.13765072115662108    0.1394748703684454    0.15231763374827126    
  0.16679145067151216    0.17293179899880726    0.16679144946074434    0.152317601028571    0.13947483309917097    
  0.13765069660871634    0.15268461620390086    0.18590766996089508    0.22973212267096366    0.2670169239402304    
  0.28132786021821354    0.38878609255364005    0.3780735756120397    0.3335402092347813    0.25785493200861825    
  0.18590765458806577    0.13947482273252523    0.11697979981561961    0.11003766818249804    0.11033556798741015    
  0.11123790191466638    0.11033558792195804    0.11003765043981299    0.11697978400212831    0.13947482860582971    
  0.1859076347227159    0.25785489205644085    0.33354021046754706    0.37807349275612195    0.38878609255364005    
  0.3408195520514358    0.3705694170040029    0.39624707757350675    0.3335402269852483    0.22973212038181334    
  0.1523175739991208    0.11003769186938185    0.09075906201939095    0.0835878023172618    0.08194736510864496    
  0.08358781301047039    0.0907590603818137    0.11003770516854182    0.1523176321734275    0.22973213333367895    
  0.3335401926696632    0.39624708589160934    0.37056932571682466    0.3408195520514358    0.18415132337368964    
  0.2452859288360318    0.3705694119688338    0.3780736138646554    0.2670169014873688    0.166791451438361    
  0.11033557114974281    0.08358784271071469    0.07259981956874807    0.06980747413390896    0.07259983501435291    
  0.08358780490482992    0.11033554627199205    0.16679141377549464    0.26701689194512224    0.37807357167987626    
  0.3705693844546078    0.2452858987772275    0.18415132337368964    0.12170791916632512    0.18415127495642306    
  0.3408195740329125    0.38878612120156364    0.2813277825797339    0.17293168939957498    0.11123795253462769    
  0.08194737351895488    0.06980746465420855    0.06669129442684694    0.06980746156902093    0.08194736488598332    
  0.11123793654865557    0.1729317398995295    0.2813277593331656    0.38878604279335344    0.34081948426414244    
  0.18415124252351428    0.12170791916632512    0.2986532525705255    0.3408194582595083    0.39687152242566875    
  0.35062365812195806    0.242662918567128    0.15816996961619434    0.11168892445054858    0.09023086818708302    
  0.08194736326530899    0.0799618763477305    0.08194738009215245    0.09023085045432543    0.11168891837299127    
  0.15816995416490773    0.2426629405481523    0.3506236510927373    0.39687152486369115    0.34081944152252164    
  0.2986532525705255    0.3408194885225526    0.3705693778609564    0.3962470445443062    0.3335401600517704    
  0.22973211196802787    0.1523176032349887    0.1100377037595357    0.09075905384614122    0.08358778657815637    
  0.08194738405432893    0.08358780424236598    0.09075905010500802    0.11003769983593524    0.15231761352098377    
  0.22973212411142413    0.3335402160658382    0.39624712214146857    0.37056940079500233    0.3408194885225526    
  0.3968715168468751    0.39624705906825103    0.3645350243966589    0.28379947177114545    0.19734627770110594    
  0.138512546218451    0.10746136158071387    0.09447859242888458    0.09075904504378102    0.09023085149289162    
  0.09075906259117877    0.09447855717452014    0.10746135429017366    0.13851253398770091    0.19734631983716458    
  0.2837994675405201    0.3645350663972865    0.3962470255119211    0.3968715168468751    0.3506235885827085    
  0.33354015190489494    0.2837994671980302    0.21757258937451235    0.1608256435185143    0.12586337235789885    
  0.11029108542401153    0.10746136866780866    0.1100376538402695    0.11168891405261684    0.1100377027929908    
  0.10746135464474127    0.1102910472478397    0.12586337466835407    0.1608256604496336    0.21757250820676585    
  0.2837994888935122    0.33354009519748273    0.3506235885827085    0.24266294640713684    0.22973211191144907    
  0.19734633480877803    0.16082567016579039    0.13407260182759279    0.12276753436821813    0.12586335802793128    
  0.13851255736996246    0.15231759563292022    0.15816999474161128    0.1523176014420204    0.13851256914592022    
  0.125863378079123    0.12276758721321099    0.13407263900313174    0.16082565045979694    0.19734637430131283    
  0.22973210643305356    0.24266294640713684    0.15817002914830072    0.15231757359076803    0.1385125756597519    
  0.12586340450935876    0.12276755249795698    0.13407259740023458    0.16082569138226288    0.19734636185295246    
  0.22973209797263766    0.24266292434488582    0.22973213263318706    0.1973463141498208    0.16082563365127445    
  0.1340726141991671    0.12276755428666059    0.1258633786274642    0.1385125480154785    0.15231760501539585    
  0.15817002914830072    0.11168889808097231    0.11003767694283673    0.10746135510195359    0.11029109651385832    
  0.12586337273113138    0.16082563192368982    0.21757256549906226    0.28379945391220524    0.3335401023528654    
  0.35062368912188613    0.33354017876413095    0.28379941980637957    0.21757254197811274    0.16082564719124387    
  0.1258633480667664    0.11029104364634769    0.10746138021627664    0.11003766755921342    0.11168889808097231    
  0.09023087907973142    0.09075904534742786    0.09447857373595511    0.10746138196842162    0.1385125254933247    
  0.1973462613129241    0.2837994726438466    0.3645350912781643    0.3962469957965406    0.39687151378128144    
  0.3962470605116477    0.36453501775469227    0.28379944118955513    0.1973463732781834    0.13851254927426684    
  0.10746137456702157    0.09447858031202316    0.09075902307781662    0.09023087907973142    0.08194736935454441    
  0.08358778488311888    0.09075902025411735    0.11003771437556444    0.15231756930231635    0.2297320957478862    
  0.3335401627354551    0.39624711094053555    0.370569364932161    0.3408194819923465    0.3705693664141533    
  0.3962471150733608    0.3335401217262708    0.22973210224839855    0.15231757676179897    0.11003770031891703    
  0.09075905037557429    0.08358780742313755    0.08194736935454441    0.07996190300067069    0.08194734144053556    
  0.09023087895546275    0.11168891855934718    0.15817001392875535    0.2426628927723194    0.35062359685286276    
  0.39687149302724484    0.3408194045074764    0.298653228375126    0.3408194587335715    0.39687145840947674    
  0.35062363967963445    0.24266292436050577    0.1581699959138703    0.11168890199383145    0.09023090204719067    
  0.08194733926294585    0.07996190300067069    0.08194738416337234    0.0835878003221627    0.0907590113024975    
  0.11003771396964786    0.1523175894892116    0.22973210842034944    0.3335401784472059    0.39624706227924616    
  0.37056932134883924    0.3408195400698284    0.37056935761384474    0.3962470320952872    0.3335402343485071    
  0.22973215758880924    0.15231757528095247    0.11003769066104535    0.09075906018734627    0.08358781280990729    
  0.08194738416337234    0.09023088804188295    0.09075902401578251    0.09447856134226924    0.10746137076610564    
  0.1385125046489769    0.19734632709252664    0.2837994374453689    0.3645351254214557    0.39624697240004225    
  0.39687144877921543    0.3962470431777623    0.364535036997518    0.2837994555442363    0.19734629031688303    
  0.13851255765667375    0.10746137732879055    0.09447856031731336    0.0907590577998546    0.09023088804188295    
  0.1116888853970885    0.11003768539771845    0.10746135409989077    0.11029109932593455    0.12586337292800895    
  0.16082563046675913    0.21757251166425276    0.28379949680410743    0.3335401362514975    0.3506236288478639    
  0.3335402248799565    0.28379945493680814    0.2175725288104569    0.16082566057242917    0.12586338319697876    
  0.11029106482207081    0.10746136531557257    0.11003766206492943    0.1116888853970885    0.15817003303352578    
  0.15231760136494227    0.13851254927920645    0.1258633817018348    0.12276753834975533    0.13407262177831422    
  0.16082564665389548    0.19734635258829414    0.22973209619888477    0.24266292543718412    0.22973211470796703    
  0.19734633804075044    0.16082564582701497    0.13407265069223348    0.122767563292231    0.12586338860407353    
  0.13851257018164967    0.1523175731547381    0.15817003303352578    0.24266296552489144    0.22973212715238245    
  0.1973463035652901    0.16082565625319484    0.13407262281737528    0.12276757476835745    0.12586340101524027    
  0.1385125792957056    0.15231759372962855    0.15817000530736033    0.1523175777401113    0.1385125542605969    
  0.1258633488443394    0.12276754249009339    0.1340726126179637    0.1608256733611736    0.19734630211028634    
  0.22973211309289276    0.24266296552489144    0.35062363335793084    0.33354019356163755    0.2837994738533234    
  0.2175725692761064    0.16082566606617799    0.1258633570006302    0.11029107305768195    0.10746134951511606    
  0.11003765331343875    0.11168889976922343    0.1100376698924239    0.10746132100801306    0.11029107751631809    
  0.12586334149137457    0.1608256167539578    0.21757251945321757    0.2837994899042853    0.3335401474701249    
  0.35062363335793084    0.3968715560043452    0.3962470475726935    0.3645350313357177    0.2837995228458686    
  0.1973463017988229    0.1385125041449548    0.10746137389325888    0.09447858082251817    0.09075903979446201    
  0.09023086449513977    0.0907590525318857    0.09447858585557574    0.10746136278502924    0.13851258862299018    
  0.1973463072310608    0.28379952427494426    0.364535043650727    0.39624697100393097    0.3968715560043452    
  0.3408194888903277    0.3705693645896635    0.39624702723049626    0.3335401964219001    0.2297320936900731    
  0.1523176134561624    0.11003769450288106    0.09075908121161136    0.08358778929622843    0.08194737459778215    
  0.08358781940791751    0.0907590383545374    0.11003765559627231    0.1523175583434027    0.22973211099229546    
  0.33354020126241396    0.3962470325968136    0.3705693497781163    0.3408194888903277    0.2986532525705255    
  0.3408194582595083    0.39687152242566875    0.35062365812195806    0.242662918567128    0.15816996961619434    
  0.11168892445054858    0.09023086818708302    0.08194736326530899    0.0799618763477305    0.08194738009215245    
  0.09023085045432543    0.11168891837299127    0.15816995416490773    0.2426629405481523    0.3506236510927373    
  0.39687152486369115    0.34081944152252164    0.2986532525705255    0.394883758836782    0.38878600188085455    
  0.3506236725606699    0.27381485430898284    0.1962713884103284    0.1452182211035149    0.12006361451158537    
  0.11168890140948651    0.11123790195847373    0.11190251753000507    0.1112378951089283    0.11168889905071694    
  0.12006358702577614    0.14521824406968542    0.19627140845060528    0.2738148525945614    0.3506236430588337    
  0.3887859527931893    0.394883758836782    0.38878602958137    0.3780735395723977    0.33354015697950345    
  0.2578549110031047    0.18590764326113998    0.13947482639687034    0.11697978698458135    0.11003770022407668    
  0.11033554749773318    0.11123792201389815    0.1103355496911959    0.1100376947669276    0.11697977775878621    
  0.1394748571523585    0.18590765128971487    0.25785492599253346    0.33354019780004385    0.37807353225176066    
  0.38878602958137    0.3506236010987384    0.3335401309891286    0.2837994227759585    0.21757254202487583    
  0.16082565303849328    0.1258633964694554    0.11029106686278849    0.1074613761182879    0.11003767615295107    
  0.11168889083147433    0.11003768092226433    0.10746133644583306    0.11029103771699936    0.1258633467528725    
  0.1608256677381093    0.217572529670656    0.2837994762676129    0.3335401046193609    0.3506236010987384    
  0.2738148218822654    0.2578548560039348    0.21757255486820992    0.17070864604093247    0.13358501947829307    
  0.11275301448182941    0.1066077236397101    0.11029105697065415    0.11697973576430107    0.12006363857440697    
  0.11697980031693472    0.11029104932923464    0.10660769430872202    0.11275307008330791    0.13358503023905838    
  0.170708586232175    0.2175725258625491    0.25785487400400586    0.2738148218822654    0.19627142019850233    
  0.18590763634653193    0.16082564524917314    0.13358504642486693    0.11441150932367196    0.1076254669938177    
  0.11275303888264315    0.12586337204080428    0.13947485262700532    0.14521827672517856    0.13947484744254576    
  0.12586339039853653    0.11275303265917119    0.1076255032242006    0.11441152908035619    0.13358502117109142    
  0.16082569467906563    0.18590763908685098    0.19627142019850233    0.14521828882192467    0.13947481086967944    
  0.1258633580246287    0.11275304211412812    0.10762547743879701    0.11441153055773519    0.13358503827296703    
  0.16082566909012558    0.18590761709050732    0.19627138502797073    0.1859076625747165    0.16082563971125255    
  0.1335850093339308    0.11441151258394718    0.1076254739235547    0.11275306002869623    0.12586337303363115    
  0.13947486422664176    0.14521828882192467    0.12006357640661976    0.11697978329256063    0.1102910689401141    
  0.10660772083833153    0.11275304968192291    0.13358501947363985    0.17070863346002976    0.2175724953793656    
  0.2578548429185314    0.2738149137211631    0.25785491887112055    0.21757252337951755    0.17070862013749147    
  0.1335850117720525    0.11275303954911542    0.10660767749623325    0.11029106178084243    0.11697976385013112    
  0.12006357640661976    0.11168891507126597    0.11003766949397481    0.10746134666454756    0.11029107781328581    
  0.12586333739868358    0.16082559867150828    0.21757249780280236    0.28379947369398084    0.3335401218976316    
  0.3506235569829667    0.3335401994385654    0.2837994595371247    0.21757251225526894    0.16082567538705794    
  0.12586337615474658    0.11029109076028154    0.10746136795296028    0.110037673820674    0.11168891507126597    
  0.1112379197412732    0.11033554800573252    0.11003767482165842    0.11697979732631779    0.1394748353352356    
  0.18590764980180968    0.2578549261639209    0.3335402200703936    0.3780735446231114    0.38878605010300854    
  0.3780735370798548    0.33354021864157085    0.25785486831406507    0.18590761428022504    0.13947482486800503    
  0.11697978163754069    0.11003768016881511    0.11033556447411726    0.1112379197412732    0.11190252978095416    
  0.11123788319481977    0.11168890406725165    0.12006365393648094    0.14521827666360604    0.1962714004097303    