#     DFTpy    
  CRYSTAL 
    
  PRIMVEC    
  1.237980571182172    -2.144245248070661    0.0    
  1.237980571182172    2.144245248070661    0.0    
  0.0    0.0    2.3302796650344826    
  PRIMCOORD    
  1    1    
  Si    0.0    0.0    0.0    
  BEGIN_BLOCK_DATAGRID_3D    
  3d_datagrid_density    
  BEGIN_DATAGRID_3D#0    
  11    11    11    
  0.0    0.0    0.0    
  1.237980571182172    -2.144245248070661    0.0    
  1.237980571182172    2.144245248070661    0.0    
  0.0    0.0    2.3302796650344826    
  0.049689404476528046    0.09787746921145421    0.27295237134835765    0.4313097317692458    0.43144809626210806    
  0.40883508619259373    0.43144808982043115    0.43130977013154476    0.2729523768870853    0.09787747626274508    
  0.049689404476528046    0.09787751107105315    0.09775792283475583    0.21572006588613946    0.3926911831324542    
  0.43906709782729214    0.4056330840822233    0.4057018703298834    0.4390234504532624    0.39259584392471963    
  0.2157462845999504    0.09787751107105315    0.272952403750718    0.21572009692607802    0.2732320415578806    
  0.3925658217372849    0.43725678076334096    0.40124707854385283    0.3783692812026011    0.40121431021702975    
  0.43741036131456584    0.39259582970385026    0.272952403750718    0.4313097655068701    0.39269126401852944    
  0.39256585525261384    0.43113274864625156    0.4389896306321649    0.40140268431699916    0.36747990325154245    
  0.36756060972288823    0.40121426417623346    0.43902339364983295    0.4313097655068701    0.43144798416913444    
  0.43906716044323635    0.4372567336614932    0.4389895169395071    0.4316999030664837    0.40566918260073254    
  0.3782427251948795    0.3674798467062337    0.37836911879900753    0.405701872261387    0.43144798416913444    
  0.40883512444623654    0.405633091393597    0.4012470410848936    0.401402791403488    0.4056693113039345    
  0.40858991580823717    0.40566937244552187    0.40140271101609704    0.4012470112440915    0.4056330737765209    
  0.40883512444623654    0.4314480408037175    0.4057019990444795    0.3783692135875747    0.3674798051363558    
  0.37824269650396036    0.4056692576243448    0.431700019333131    0.43898962765294686    0.43725678306310317    
  0.439067078062668    0.4314480408037175    0.43130974203506783    0.43902349854801387    0.40121429560821276    
  0.3675605900715944    0.36747986942098093    0.40140274064640863    0.4389897243711503    0.43113277804155986    
  0.39256578088305877    0.39269119554612264    0.43130974203506783    0.2729524039473324    0.3925958444598777    
  0.43741039686104555    0.4012141935288318    0.3783692314230613    0.40124696810164817    0.4372568243188027    
  0.3925658192911093    0.2732320661425398    0.21572007438235563    0.2729524039473324    0.09787746943189249    
  0.21574632195719012    0.39259583789180075    0.4390233245179613    0.4057018840396172    0.40563309381518975    
  0.4390672198942394    0.3926912386466648    0.21572005613245177    0.09775788738767804    0.09787746943189249    
  0.049689404476528046    0.09787746921145421    0.27295237134835765    0.4313097317692458    0.43144809626210806    
  0.40883508619259373    0.43144808982043115    0.43130977013154476    0.2729523768870853    0.09787747626274508    
  0.049689404476528046    0.09443969851086773    0.15145509211876346    0.3154609180825323    0.42650208696198433    
  0.4056216856276975    0.380815275083626    0.4056216640160485    0.426502178745446    0.31546091417080313    
  0.15145510257339495    0.09443969851086773    0.15145514022397963    0.15129547073181118    0.2667008686606751    
  0.40435713628128916    0.4181202695382649    0.37838277021107364    0.37844415671827375    0.4180716634855968    
  0.4043046352412799    0.2666928896664123    0.15145514022397963    0.3154609625998294    0.2667009192875533    
  0.3157283112235532    0.40425860807568004    0.4195280409203913    0.37525963472467155    0.35182279929539284    
  0.3752429451411229    0.4196304334127896    0.40430463085387525    0.3154609625998294    0.42650217392172507    
  0.4043571886458821    0.4042586491790317    0.42634028134977947    0.4180618903861029    0.37537367007999334    
  0.3414475307648059    0.34149847901197816    0.3752429011289793    0.41807158565823266    0.42650217392172507    
  0.4056216327745916    0.41812026904727234    0.4195279842273936    0.41806173949170894    0.40582834132850404    
  0.37841220591279134    0.35173172907649364    0.34144746720147573    0.3518226938908466    0.3784441665803219    
  0.4056216327745916    0.3808153140796777    0.3783827584502977    0.3752596051198013    0.375373759902999    
  0.3784122869653243    0.380617549396731    0.37841234376445215    0.3753737223756668    0.3752595996212676    
  0.3783827596802358    0.3808153140796777    0.40562161995009977    0.37844425166026147    0.3518227443130018    
  0.3414474590367265    0.351731723003834    0.3784122430894457    0.405828425109844    0.4180618072587317    
  0.41952798751662757    0.4181201741791417    0.40562161995009977    0.42650217374189414    0.41807172459251496    
  0.37524295883962866    0.34149847450810517    0.3414475000125276    0.37537369869413073    0.4180619594443818    
  0.4263403317716859    0.40425857673275106    0.40435710364463195    0.42650217374189414    0.31546092944078835    
  0.4043047274930778    0.41963048334827996    0.375242844583846    0.35182274851953216    0.3752595700832555    
  0.41952804432588753    0.4042585693098236    0.31572837090377726    0.26670090429666726    0.31546092944078835    
  0.1514551230483198    0.2666929236809806    0.40430466569167905    0.4180715481227211    0.37844415327610265    
  0.3783827459978807    0.418120312792205    0.40435714721490323    0.2667008276099509    0.1512954365342356    
  0.1514551230483198    0.09443969851086773    0.15145509211876346    0.3154609180825323    0.42650208696198433    
  0.4056216856276975    0.380815275083626    0.4056216640160485    0.426502178745446    0.31546091417080313    
  0.15145510257339495    0.09443969851086773    0.2712524746378433    0.31910820965874104    0.3999637244553231    
  0.3989754972547695    0.3421157080988368    0.3149256815759013    0.34211569820856663    0.39897553129384383    
  0.3999636871233121    0.31910822076637574    0.2712524746378433    0.3191082697771892    0.31898238055318234    
  0.38279704771558265    0.4099226148603502    0.36183521231471566    0.3138029041541016    0.3138263846376911    
  0.3618127884538488    0.40991472886212094    0.3827731182921117    0.3191082697771892    0.3999637691611217    
  0.3827970864565422    0.400103495432445    0.4098846513380872    0.3682783052796686    0.3125663716868251    
  0.28981451433855726    0.3125648719486521    0.3683033790797581    0.40991471302941    0.3999637691611217    
  0.39897553186043305    0.4099226469767163    0.40988469089749063    0.3988986754852319    0.36181866263910467    
  0.3125993593426328    0.28087558599109724    0.28088613131946755    0.3125648171352925    0.3618127308003802    
  0.39897553186043305    0.34211562582615024    0.36183529113647633    0.3682782200860513    0.3618186230891167    
  0.3421972271220397    0.31381272612976163    0.28978832593965853    0.28087558153154435    0.28981444686351043    
  0.3138263916397607    0.34211562582615024    0.31492569512452423    0.3138029125297721    0.3125664047381178    
  0.31259941983076617    0.3138127669071756    0.3148486897398682    0.3138127792705303    0.3125994008101783    
  0.3125663580672578    0.3138029200489674    0.31492569512452423    0.3421156926548395    0.3138264303357559    
  0.2898144304496614    0.2808755280420894    0.28978829365898595    0.31381272233779545    0.3421972860981707    
  0.36181865283743836    0.3682782573172288    0.3618351707768104    0.3421156926548395    0.3989755478529878    
  0.3618127740148606    0.3125648701945045    0.2808860989786168    0.2808755785711798    0.3125993933496123    
  0.36181874200060565    0.3988987602831633    0.4098846204757061    0.4099225904791794    0.3989755478529878    
  0.39996367696218627    0.40991482090527454    0.36830341761913143    0.31256478956358724    0.2898144490307165    
  0.3125663116385106    0.3682782901980124    0.40988464919335377    0.4001035218454891    0.3827970803967872    
  0.39996367696218627    0.31910823847457104    0.3827731068540339    0.40991476716984676    0.36181272576513424    
  0.31382638614532044    0.3138028838245846    0.36183525644635367    0.4099226169229203    0.38279699990762034    
  0.31898226604606583    0.31910823847457104    0.2712524746378433    0.31910820965874104    0.3999637244553231    
  0.3989754972547695    0.3421157080988368    0.3149256815759013    0.34211569820856663    0.39897553129384383    
  0.3999636871233121    0.31910822076637574    0.2712524746378433    0.4883886681044731    0.4806424091947351    
  0.4335191820896101    0.34612106208884535    0.2720567370773993    0.24558133342368335    0.27205675751394365    
  0.34612110401682233    0.43351914813093817    0.4806424667977168    0.4883886681044731    0.4806424881939474    
  0.4806212641423887    0.4514096903264648    0.37786222990814455    0.2942090043675013    0.24541094413398976    
  0.24541004759491503    0.2942090942135996    0.37786209014321004    0.4514041586165641    0.4806424881939474    
  0.43351919672342065    0.45140976975288744    0.43353918799551056    0.3778592885265485    0.30270663031880823    
  0.24518234114717832    0.22501399396823651    0.24518377291663204    0.30270501760634566    0.37786207528958404    
  0.43351919672342065    0.3461210912753698    0.37786228585602155    0.3778593466361389    0.34610986703939156    
  0.2942074808685384    0.2451857587541208    0.21761434323561735    0.21761401760538915    0.24518373923956335    
  0.29420906451128087    0.3461210912753698    0.2720566817611655    0.29420904767782186    0.3027065796111144    
  0.294207420835718    0.2720688812793235    0.2454101486893815    0.22501167222138113    0.21761433321877388    
  0.22501392438252216    0.2454100677067294    0.2720566817611655    0.24558132893033446    0.2454109302285937    
  0.24518234501078134    0.24518581205392273    0.24541020193556937    0.24557026245911437    0.24541019307316111    
  0.24518577579603193    0.2451823350612728    0.24541094798179217    0.24558132893033446    0.27205670388022896    
  0.24541011142450578    0.22501393755645097    0.2176142993104165    0.22501165475909668    0.24541013156573244    
  0.2720689299172964    0.29420748354992765    0.302706604670332    0.29420897861709133    0.27205670388022896    
  0.34612113685792667    0.2942091159692499    0.2451837900426996    0.21761400487592944    0.21761434081459952    
  0.24518577228391394    0.2942075607582829    0.34610993471391305    0.3778592611579275    0.37786224997421114    
  0.34612113685792667    0.433519185449185    0.3778621700174534    0.30270505796048486    0.2451837213482077    
  0.2250139518344131    0.24518228639359504    0.3027066367993197    0.37785932282815915    0.433539250479507    
  0.4514097288485427    0.433519185449185    0.4806424941301586    0.45140416646551806    0.3778621210113081    
  0.2942090398376016    0.2454100753108221    0.2454109547065276    0.2942090357696314    0.37786225425745196    
  0.4514096927789248    0.48062115831895735    0.4806424941301586    0.4883886681044731    0.4806424091947351    
  0.4335191820896101    0.34612106208884535    0.2720567370773993    0.24558133342368335    0.27205675751394365    
  0.34612110401682233    0.43351914813093817    0.4806424667977168    0.4883886681044731    0.5570357802169204    
  0.5136767208866335    0.40838880852613235    0.2967463634993985    0.22249519615005778    0.19794683335986632    
  0.22249517250434658    0.29674645319317067    0.4083887812257293    0.5136766869112015    0.5570357802169204    
  0.5136767558565882    0.5136710432479829    0.43958527375571166    0.3329397138801862    0.24414308210100213    
  0.19843968480360907    0.1984394529605549    0.24414286444072056    0.3329446961189782    0.4395767111887515    
  0.5136767558565882    0.40838884428940153    0.4395853023279751    0.40838656294853387    0.33294549096974313    
  0.25280141308812276    0.19886251622343304    0.18082960537757312    0.19886260001288847    0.2527982407821079    
  0.33294470677223487    0.40838884428940153    0.29674642872498747    0.33293980014553004    0.332945547708507    
  0.2967446078899677    0.24414016341298386    0.19886465963716285    0.17434792901159074    0.17435214419812417    
  0.19886257654115488    0.24414283244021953    0.29674642872498747    0.22249516456386395    0.2441430712804993    
  0.25280138004386987    0.24414009203164228    0.22250101717028728    0.1984363701548057    0.18083267559991253    
  0.17434788593793482    0.18082954875879265    0.1984394207634446    0.22249516456386395    0.19794682375171901    
  0.1984396918985678    0.19886250741692973    0.198864682279676    0.1984364426445213    0.19794803660566745    
  0.19843647235714185    0.19886467899311894    0.19886249053959712    0.1984397087324068    0.19794682375171901    
  0.22249514940934728    0.1984394852868064    0.18082958168937532    0.1743478570440319    0.18083268238059386    
  0.19843639160648968    0.2225010762774126    0.24414016142150427    0.2528013817648781    0.24414302550589745    
  0.22249514940934728    0.29674645515941134    0.2441429216604311    0.19886258099275583    0.1743521173952848    
  0.1743478778997757    0.19886465302533354    0.24414024102473994    0.2967446733384941    0.3329454814343484    
  0.3329397559555024    0.29674645515941134    0.4083888222523551    0.33294477157375807    0.25279826870165795    
  0.1988625329492526    0.18082959613891195    0.19886246571315083    0.25280147042637635    0.33294550290243713    
  0.408386612192262    0.4395852857657105    0.4083888222523551    0.5136767260561276    0.43957682451870955    
  0.3329447021725103    0.2441428063464104    0.1984394221865565    0.1984396995672374    0.24414311579710585    
  0.33293972412979483    0.4395852096126047    0.5136709463293998    0.5136767260561276    0.5570357802169204    
  0.5136767208866335    0.40838880852613235    0.2967463634993985    0.22249519615005778    0.19794683335986632    
  0.22249517250434658    0.29674645319317067    0.4083887812257293    0.5136766869112015    0.5570357802169204    
  0.5533636938554547    0.5034896616089701    0.3898607457195931    0.27743190265457274    0.20528217074218064    
  0.18166882519199798    0.20528215223731489    0.27743196319649405    0.3898607277052868    0.5034896160156703    
  0.5533636938554547    0.5034897107133025    0.5034789373618975    0.4226126712986286    0.31335625101196396    
  0.22641375132721112    0.1824196028664077    0.18241931232677563    0.22641415038304552    0.31335995103123887    
  0.42260354113557863    0.5034897107133025    0.3898607617066408    0.4226127096014199    0.38986356253970794    
  0.31335605769390973    0.23499696985250884    0.18312776775564968    0.1658254191842186    0.18312887871291028    
  0.2349919468034566    0.31335995566707014    0.3898607617066408    0.2774319432896359    0.3133563377151552    
  0.3133561073675086    0.27743265113349463    0.2264116389842732    0.18312868974888308    0.15962115866003548    
  0.15962079578616586    0.18312884369919816    0.22641410250389313    0.2774319432896359    0.20528208095996467    
  0.2264137832401103    0.23499695902814682    0.22641157846114685    0.2052856256389528    0.18242085572104583    
  0.1658241840553327    0.1596211157905652    0.16582532209697196    0.1824193137593943    0.20528208095996467    
  0.1816688499298053    0.18241959756371756    0.18312773991722808    0.183128744507087    0.18242092812732352    
  0.181663567423594    0.18242096688944107    0.18312870301855522    0.18312772324571105    0.1824196169552218    
  0.1816688499298053    0.2052821109331066    0.18241938916828135    0.16582538601397584    0.1596210848345201    
  0.16582416922343024    0.18242089731962496    0.20528570143321442    0.22641166588173614    0.23499699102417412    
  0.22641374081225563    0.2052821109331066    0.27743193104214714    0.22641415998810652    0.18312886825586783    
  0.1596207801412297    0.1596211329757827    0.18312872810299027    0.22641172842111582    0.2774326889255513    
  0.31335602048178546    0.31335629207753    0.27743193104214714    0.389860775705678    0.3133599662352569    
  0.23499196934615657    0.18312879521882755    0.1658253868507296    0.18312770464402214    0.23499702224283506    
  0.313356077180028    0.38986356162397434    0.422612652498791    0.389860775705678    0.5034896014650855    
  0.42260362249057865    0.31335997022615464    0.22641404701208953    0.18241931822217233    0.18241960270706395    
  0.2264138248174935    0.3133563224847397    0.4226126161571923    0.50347879875005    0.5034896014650855    
  0.5533636938554547    0.5034896616089701    0.3898607457195931    0.27743190265457274    0.20528217074218064    
  0.18166882519199798    0.20528215223731489    0.27743196319649405    0.3898607277052868    0.5034896160156703    
  0.5533636938554547    0.5570357717006015    0.5136767214251132    0.4083888317777928    0.2967463735385411    
  0.22249519294073886    0.19794681768839134    0.22249518750589653    0.29674645571733954    0.4083887981638393    
  0.5136766848673621    0.5570357717006015    0.5136767867322383    0.5136710158623232    0.439585275721098    
  0.33293972690877777    0.244143063976133    0.19843970475798542    0.198439426238864    0.2441428882190232    
  0.3329446834112175    0.4395767535717026    0.5136767867322383    0.40838885991652235    0.4395853218884404    
  0.4083865765310769    0.3329454987319974    0.25280142413306284    0.19886251879152783    0.180829609685475    
  0.1988625992285653    0.2527982433717312    0.33294470703783297    0.40838885991652235    0.2967464501571363    
  0.3329397846458788    0.33294555579901136    0.2967446013488289    0.2441401645980156    0.1988646489331211    
  0.17434792095600127    0.174352129471827    0.19886256093989424    0.2441428421171265    0.2967464501571363    
  0.22249515223840974    0.24414306373269581    0.2528014079793349    0.24414008071623125    0.2225010265796376    
  0.19843637047379822    0.1808326831855018    0.17434788087079817    0.1808295424793735    0.19843942032194956    
  0.22249515223840974    0.19794682584484313    0.19843970007684048    0.1988624915414059    0.1988646914918527    
  0.19843644057115511    0.19794802272952478    0.1984364663941525    0.1988646674551052    0.1988624955933628    
  0.1984397179928062    0.19794682584484313    0.22249513941295276    0.1984394759162119    0.18082958202648994    
  0.17434786618100193    0.18083268333326186    0.19843639084352338    0.2225010735075369    0.24414013320606068    
  0.25280140690052555    0.24414300465444247    0.22249513941295276    0.2967464694992474    0.24414292732873133    
  0.19886260050790153    0.17435212667455224    0.17434789832792227    0.1988646663418499    0.24414023821346043    
  0.29674463945954793    0.3329454917941223    0.3329397325805611    0.2967464694992474    0.4083888283318346    
  0.3329447878604578    0.2527982803654159    0.1988625337150108    0.18082957335288521    0.1988624813584164    
  0.2528014524264644    0.3329454846828812    0.4083866211665854    0.43958529985692013    0.4083888283318346    
  0.5136767192771685    0.4395768120246458    0.3329447350562922    0.24414280905875338    0.1984394184728891    
  0.198439705348392    0.24414310253521654    0.33293974111989816    0.43958518689616677    0.5136709198146568    
  0.5136767192771685    0.5570357717006015    0.5136767214251132    0.4083888317777928    0.2967463735385411    
  0.22249519294073886    0.19794681768839134    0.22249518750589653    0.29674645571733954    0.4083887981638393    
  0.5136766848673621    0.5570357717006015    0.4883886672523071    0.48064245055502547    0.4335192075043579    
  0.34612107438879663    0.27205673787128026    0.24558132857143647    0.27205675100888116    0.3461211229866786    
  0.4335191415605221    0.4806424721074044    0.4883886672523071    0.48064250708389983    0.48062127329199866    
  0.4514097406158305    0.37786223935389723    0.29420899233567815    0.2454109427274859    0.24541006978274482    
  0.29420910404548684    0.3778620762285633    0.4514041889528395    0.48064250708389983    0.43351923779752133    
  0.4514097744305921    0.4335392219438583    0.37785929344249963    0.30270663736379855    0.24518232683935878    
  0.22501399163882227    0.24518377747993506    0.3027050223867331    0.3778620800826524    0.43351923779752133    
  0.3461211095685156    0.3778622727693586    0.3778593321444935    0.34610987243631863    0.29420747827333726    
  0.24518575450268315    0.21761434882424063    0.2176140205144039    0.24518371880107698    0.2942090549885986    
  0.3461211095685156    0.27205665379121485    0.29420907284781583    0.3027065747872957    0.29420743995082627    
  0.2720688815676261    0.2454101670520404    0.2250116866518697    0.2176143382577428    0.22501393607460607    
  0.24541006923163322    0.27205665379121485    0.24558133396403706    0.24541094773206984    0.2451823511623178    
  0.24518580999170575    0.24541019642890444    0.24557027198430803    0.24541020042401127    0.24518578173758668    
  0.24518232182685595    0.24541095784438616    0.24558133396403706    0.27205670330067594    0.2454101080796684    
  0.22501392135620135    0.2176142921819158    0.22501165834142128    0.24541014499418246    0.2720689127846968    
  0.2942074568835904    0.30270661260156567    0.2942089604752614    0.27205670330067594    0.34612112264840034    
  0.29420908954175445    0.2451837757826835    0.2176140029753652    0.21761433450195736    0.24518578406180727    
  0.2942075386155475    0.34610993747020025    0.37785926764876887    0.3778622288879615    0.34612112264840034    
  0.4335191619726319    0.37786218510634345    0.3027050649098473    0.24518371304202588    0.22501394238839637    
  0.2451822929449867    0.3027066341783542    0.3778592966455696    0.43353921651017124    0.45140976397138544    
  0.4335191619726319    0.48064246152718376    0.4514041633327585    0.3778621403007165    0.29420904181956226    
  0.24541007968922968    0.24541094282699139    0.29420906340313824    0.3778622370307386    0.45140966690359885    
  0.48062113626253683    0.48064246152718376    0.4883886672523071    0.48064245055502547    0.4335192075043579    
  0.34612107438879663    0.27205673787128026    0.24558132857143647    0.27205675100888116    0.3461211229866786    
  0.4335191415605221    0.4806424721074044    0.4883886672523071    0.2712524890628657    0.31910819016004044    
  0.39996370680443777    0.3989754921712807    0.34211570591531204    0.3149256945345042    0.3421157421711785    
  0.3989755256044817    0.3999636727078074    0.31910822498241276    0.2712524890628657    0.31910826879118137    
  0.318982364988376    0.3827970282581983    0.4099226157883742    0.3618352175123871    0.3138029010216095    
  0.3138263810684929    0.3618127847463989    0.40991472756595415    0.3827730994424732    0.31910826879118137    
  0.3999637117976275    0.38279709113440585    0.4001034791999218    0.40988465734878626    0.36827828416756675    
  0.312566389609562    0.28981450953314797    0.31256486165046615    0.36830336925736085    0.40991471553366415    
  0.3999637117976275    0.3989755110401627    0.40992264939070955    0.4098846967281371    0.39889869181822957    
  0.36181866547031377    0.31259936186115755    0.2808755805674415    0.28088609210511056    0.3125648280666172    
  0.3618127471849147    0.3989755110401627    0.3421156533860472    0.36183525781196474    0.3682782284609199    
  0.3618186093396186    0.34219724645597044    0.3138127116626167    0.28978829788086    0.2808755573796158    
  0.2898144267750979    0.313826387835537    0.3421156533860472    0.31492567294870305    0.3138028924991855    
  0.3125663860718444    0.3125994401243875    0.31381277794137774    0.3148486742470284    0.3138127551046502    
  0.3125993696185605    0.3125663552730958    0.3138029020381413    0.31492567294870305    0.34211566253992476    
  0.3138264435603817    0.2898144423077484    0.28087554127061504    0.2897882866419976    0.31381269540324347    
  0.34219727981827613    0.3618186494759779    0.3682782583300799    0.36183517800765275    0.34211566253992476    
  0.398975575371409    0.3618128154678429    0.312564882491157    0.28088610303032496    0.2808755777214445    
  0.31259938144554744    0.36181874886561216    0.3988987375434328    0.40988461222580796    0.40992261844871947    
  0.398975575371409    0.3999637070682521    0.40991483281534474    0.368303434375806    0.3125648123529389    
  0.2898144671620925    0.3125663310143874    0.3682782930629131    0.4098846767149373    0.4001035482495217    
  0.3827970491221094    0.3999637070682521    0.3191082557560784    0.3827731108489771    0.4099147688070668    
  0.3618127343936212    0.3138263912266338    0.3138029232970307    0.36183527231636237    0.40992263222083364    
  0.38279700286630536    0.31898227318015987    0.3191082557560784    0.2712524890628657    0.31910819016004044    
  0.39996370680443777    0.3989754921712807    0.34211570591531204    0.3149256945345042    0.3421157421711785    
  0.3989755256044817    0.3999636727078074    0.31910822498241276    0.2712524890628657    0.0944396968537477    
  0.1514550979101239    0.31546089471085553    0.42650208513676213    0.4056216854893336    0.38081531121244644    
  0.40562165850258525    0.4265021728783747    0.315460900483829    0.15145509800715332    0.0944396968537477    
  0.15145513960160603    0.1512954856538982    0.26670087237189904    0.40435713131487366    0.4181202818793561    
  0.3783827283506922    0.3784441992676536    0.41807162434260764    0.4043046381193423    0.2666928651839826    
  0.15145513960160603    0.3154609466894589    0.26670089581979395    0.3157283109960877    0.40425860440126904    
  0.4195280218013222    0.37525962757929787    0.3518227873855383    0.37524293668463915    0.41963042208119844    
  0.4043046403684597    0.3154609466894589    0.4265021488674409    0.4043572114972255    0.40425863850262855    
  0.4263403123098108    0.41806188256881727    0.3753736851702472    0.34144753185958376    0.34149849091546014    
  0.3752429111501325    0.41807157093082126    0.4265021488674409    0.4056216512718423    0.41812026216431775    
  0.419527952376336    0.4180617648622299    0.4058283415332202    0.37841220067623105    0.35173170410404564    
  0.34144747488737026    0.35182269974996844    0.37844416244123014    0.4056216512718423    0.38081530429407123    
  0.3783827493656574    0.37525962531787704    0.37537375461504574    0.3784122966202258    0.3806175689666002    
  0.37841234135337953    0.37537371186279356    0.37525958579312    0.37838276021917155    0.38081530429407123    
  0.4056216185140942    0.37844425656977526    0.3518227534122918    0.3414474533923697    0.3517317200796426    
  0.37841222676001435    0.40582842224548576    0.41806184685585057    0.4195279623509239    0.41812019817434853    
  0.4056216185140942    0.42650216813785313    0.4180717192060229    0.3752429237349659    0.3414984625804121    
  0.341447470043893    0.3753736889192302    0.4180619602150409    0.42634036514607626    0.40425858288289807    
  0.40435715268785416    0.42650216813785313    0.31546092093892736    0.40430471418946823    0.41963046154573075    
  0.37524286055822703    0.35182277111167887    0.37525956142122247    0.4195280608492354    0.40425859218547233    
  0.31572835824319995    0.2667008904925305    0.31546092093892736    0.15145512777078327    0.26669293129156457    
  0.40430463299855424    0.41807155241026334    0.37844417154493715    0.3783827599348185    0.4181203506421902    
  0.4043571254326879    0.26670083679638246    0.1512954308023131    0.15145512777078327    0.0944396968537477    
  0.1514550979101239    0.31546089471085553    0.42650208513676213    0.4056216854893336    0.38081531121244644    
  0.40562165850258525    0.4265021728783747    0.315460900483829    0.15145509800715332    0.0944396968537477    
  0.049689404476528046    0.09787746921145421    0.27295237134835765    0.4313097317692458    0.43144809626210806    
  0.40883508619259373    0.43144808982043115    0.43130977013154476    0.2729523768870853    0.09787747626274508    
  0.049689404476528046    0.09787751107105315    0.09775792283475583    0.21572006588613946    0.3926911831324542    
  0.43906709782729214    0.4056330840822233    0.4057018703298834    0.4390234504532624    0.39259584392471963    
  0.2157462845999504    0.09787751107105315    0.272952403750718    0.21572009692607802    0.2732320415578806    
  0.3925658217372849    0.43725678076334096    0.40124707854385283    0.3783692812026011    0.40121431021702975    
  0.43741036131456584    0.39259582970385026    0.272952403750718    0.4313097655068701    0.39269126401852944    
  0.39256585525261384    0.43113274864625156    0.4389896306321649    0.40140268431699916    0.36747990325154245    
  0.36756060972288823    0.40121426417623346    0.43902339364983295    0.4313097655068701    0.43144798416913444    
  0.43906716044323635    0.4372567336614932    0.4389895169395071    0.4316999030664837    0.40566918260073254    
  0.3782427251948795    0.3674798467062337    0.37836911879900753    0.405701872261387    0.43144798416913444    
  0.40883512444623654    0.405633091393597    0.4012470410848936    0.401402791403488    0.4056693113039345    
  0.40858991580823717    0.40566937244552187    0.40140271101609704    0.4012470112440915    0.4056330737765209    