#     DFTpy    
  CRYSTAL 
    
  PRIMVEC    
  5.2412413793103445    0.0    0.0    
  0.0    5.2412413793103445    0.0    
  0.0    0.0    2.887586206896551    
  PRIMCOORD    
  4    1    
  Si    0.0    0.0    0.0    
  Si    2.6206206896551723    2.6206206896551723    1.4437931034482756    
  Si    0.0    2.6206206896551723    0.7218965517241378    
  Si    2.6206206896551723    0.0    2.1656896551724136    
  BEGIN_BLOCK_DATAGRID_3D    
  3d_datagrid_density    
  BEGIN_DATAGRID_3D#0    
  23    23    13    
  0.0    0.0    0.0    
  5.2412413793103445    0.0    0.0    
  0.0    5.2412413793103445    0.0    
  0.0    0.0    2.887586206896551    
  0.0594110785833309    0.10796478414796763    0.27323741026164133    0.4021839747455479    0.3575859738246306    
  0.27745958819501626    0.24370818293017824    0.25987345358764646    0.31135182420642016    0.36438237699273446    
  0.3853662124211537    0.38603598895965474    0.3853662071642638    0.36438230922328874    0.31135192982925414    
  0.25987338692005496    0.2437082829166094    0.27745946496624746    0.35758611714261873    0.40218393827361837    
  0.27323749087471333    0.10796472432158853    0.0594110785833309    0.10796473047856002    0.16344018748627043    
  0.31497741575207955    0.39849264068767126    0.33719388630531133    0.25949595689598665    0.2279046795207447    
  0.24284573870504492    0.2919124848957038    0.3467710192768688    0.37520032258897257    0.38035407963447976    
  0.3752002838687451    0.34677108796297185    0.29191242754038654    0.24284577368829272    0.2279046343118781    
  0.2594959642839925    0.3371938506122844    0.3984927239615398    0.3149774148053618    0.16344017827175092    
  0.10796473047856002    0.27323749191778396    0.3149774321947091    0.38241662783974917    0.3652557086390626    
  0.2819606396540547    0.2146371755111756    0.1890417507436307    0.20092475026098347    0.24192040931494968    
  0.2941984633580655    0.33192396139824915    0.34423091921558446    0.3319239968504881    0.29419844429844083    
  0.24192041177079213    0.20092469159017082    0.18904180225991982    0.21463711297426594    0.28196073609668354    
  0.3652556159211511    0.38241672656488984    0.31497735912800623    0.27323749191778396    0.40218397833269937    
  0.398492663137551    0.3652556075371658    0.29118190783038356    0.2133229847359526    0.16287512246162758    
  0.14429401417106294    0.15256796801060374    0.1821633390648013    0.22270195828595513    0.2571160917213826    
  0.2705085202979397    0.2571160689742619    0.22270197727998683    0.18216328664982134    0.15256801975494907    
  0.14429397939189723    0.16287515459007806    0.21332292515580095    0.2911819508637315    0.36525561256447503    
  0.3984926587188403    0.40218397833269937    0.35758607224785155    0.33719378602960054    0.2819606561426096    
  0.21332296290468927    0.15599331975250463    0.12087464870882333    0.1076628702154289    0.11287744574169345    
  0.13248339564376305    0.15981981679331964    0.18418416889434386    0.19408121704641568    0.18418418214040413    
  0.1598197788006212    0.13248341492754764    0.1128774081288862    0.10766292796137623    0.12087459086273425    
  0.15599342498777044    0.21332294034524774    0.28196068996489093    0.33719377661675526    0.35758607224785155    
  0.277459511594193    0.2594959566765617    0.2146371401149759    0.16287512059699594    0.12087463460952327    
  0.09505712320201079    0.08501677280365964    0.08817456475815953    0.10129990376076199    0.11977433636142935    
  0.13631343530600706    0.14297144001580145    0.13631343150548247    0.11977435890271827    0.10129985989498769    
  0.08817462636167196    0.08501674324904906    0.09505712504358538    0.1208746249276748    0.16287514408929268    
  0.21463707293344597    0.2594959745226468    0.277459511594193    0.24370828954914622    0.22790462194911126    
  0.1890417603956886    0.14429401143586404    0.10766289033345693    0.08501678177685652    0.07589905267265626    
  0.07782283486020208    0.08797704686854495    0.10259602474037963    0.11571634767550097    0.12095101270056026    
  0.11571636005343154    0.10259597777347718    0.08797709045599138    0.07782279691050242    0.07589908705144438    
  0.08501674352345934    0.10766293785862589    0.14429396577011397    0.18904180196435844    0.22790465036866867    
  0.24370828954914622    0.25987340080440535    0.24284573218058345    0.20092469529729093    0.15256796648060716    
  0.11287742664032864    0.08817459687065123    0.07782282164659296    0.0791622831438084    0.08924726153418155    
  0.10397143635184884    0.11726672276335474    0.1226415597089081    0.1172666855122196    0.10397145676124547    
  0.08924723368426754    0.0791623344502106    0.07782277916490538    0.08817461399486053    0.11287739738846381    
  0.15256801330398917    0.20092464803156565    0.24284573849708452    0.25987340080440535    0.3113519268191199    
  0.2919124228004071    0.24192041178945412    0.182163324037554    0.13248338557295306    0.10129992012652494    
  0.08797704211486283    0.08924726014437594    0.10150570751822312    0.11957704936579769    0.1359573644150548    
  0.14265714128482537    0.13595740040845425    0.11957701615961273    0.10150574100192442    0.08924724518975774    
  0.08797706986823098    0.10129985963886144    0.13248346373414008    0.1821632650713145    0.2419204575931566    
  0.2919123679189957    0.3113519268191199    0.36438237823514996    0.3467710334220112    0.29419836442228964    
  0.2227020297885135    0.15981983615380788    0.11977433304972569    0.10259600790234352    0.10397144729065419    
  0.1195770595882124    0.14305306703344284    0.16441582456593687    0.1731584565726346    0.16441580307951048    
  0.1430530951208356    0.11957702298702802    0.10397148658298111    0.10259597797924741    0.11977435372546479    
  0.159819792186401    0.22270201521261807    0.2941983573793852    0.3467710822460939    0.36438237823514996    
  0.3853662766065228    0.375200344265279    0.331924053447992    0.25711613388045257    0.1841841720447844    
  0.13631346986367965    0.11571635780622867    0.11726675295941472    0.1359573722804708    0.1644158666682548    
  0.19051975522426698    0.20127105801286865    0.1905198195580862    0.16441582557357465    0.13595741338340495    
  0.11726669234185806    0.1157163998348776    0.1363134230006865    0.1841842372051105    0.2571160822915534    
  0.33192410434428943    0.375200220265517    0.3853662766065228    0.38603600251352166    0.38035410632594274    
  0.34423092966751945    0.2705084716404084    0.1940811847841089    0.14297138583894112    0.1209509946310513    
  0.12264156057015622    0.14265712611503442    0.17315842544828997    0.20127102915522957    0.2129493621478892    
  0.2012709910422537    0.17315845162324264    0.1426571274129288    0.12264158624607081    0.12095095092145365    
  0.14297142698257156    0.19408116812720694    0.27050851666882464    0.34423090393014566    0.38035409108153806    
  0.38603600251352166    0.3853662249862013    0.3752003181471778    0.3319239948493607    0.2571161109488668    
  0.18418419978524056    0.13631345412088902    0.11571634138298949    0.11726677606061262    0.13595738295606094    
  0.16441584490377778    0.19051979341693684    0.20127106373223214    0.19051982480511484    0.16441582843324218    
  0.13595743857357853    0.11726671623946208    0.11571637035398136    0.13631341926987797    0.1841842426742929    
  0.2571160908024174    0.33192406320997364    0.37520026941711976    0.3853662249862013    0.3643823838065918    
  0.3467710843019727    0.2941984101779545    0.22270202224390218    0.15981983229770408    0.11977431918562885    
  0.10259602518076567    0.10397143074202529    0.11957707192917363    0.14305307394780817    0.1644158408579634    
  0.1731584358583021    0.16441580382075716    0.14305309449996204    0.11957702955945218    0.10397148190583498    
  0.1025959868966458    0.11977435033098302    0.159819787178057    0.22270201201177633    0.2941984082866692    
  0.3467710747360638    0.3643823838065918    0.3113519284625325    0.2919124297741639    0.24192040434110923    
  0.1821633415994467    0.132483372634241    0.10129992964839228    0.08797704409938838    0.08924726234015617    
  0.10150569054929834    0.11957706427871673    0.13595737465971194    0.14265714768567453    0.1359573884174798    
  0.11957704653082886    0.10150571681616281    0.0892472442263091    0.0879770683253289    0.10129986952767439    
  0.13248344400462586    0.18216329558988376    0.2419204237009888    0.291912361250318    0.3113519284625325    
  0.25987343134371477    0.2428457464766308    0.20092468706988995    0.15256797418894133    0.1128774250533872    
  0.0881745785482989    0.07782283673327373    0.07916228844711874    0.08924726789953759    0.10397142250727148    
  0.1172667403724169    0.12264154635110994    0.11726670720269378    0.10397143540694564    0.0892472467250601    
  0.07916231697684371    0.07782279788240735    0.0881746043514888    0.11287740089770903    0.152567994311766    
  0.20092468690077134    0.2428457396476242    0.25987343134371477    0.24370822396502864    0.22790465985703576    
  0.18904175562146458    0.1442940252980864    0.10766286393249744    0.08501680390075994    0.07589902834302732    
  0.07782284295924195    0.08797704200384211    0.10259603524906692    0.1157163321190766    0.12095099680072975    
  0.11571635631410425    0.10259599459157757    0.08797707268712297    0.07782280788769344    0.07589907751075602    
  0.08501673340805466    0.10766294079644513    0.14429399887598118    0.18904174421501427    0.22790465443607952    
  0.24370822396502864    0.27745955812752976    0.25949594079283506    0.21463715020306037    0.16287510670247862    
  0.1208746614716604    0.09505709143931111    0.0850167818183254    0.08817456724428809    0.10129992737379244    
  0.11977429706383334    0.1363134518638452    0.14297141308609823    0.13631345425630348    0.11977429927478368    
  0.10129990475881816    0.08817460448008041    0.08501676351523957    0.09505711604966995    0.12087463575642741    
  0.1628751335467418    0.21463710760358642    0.2594959873506864    0.27745955812752976    0.35758601528368533    
  0.33719382621485877    0.28196063846412694    0.21332298794120635    0.15599332932281593    0.12087467237137031    
  0.10766286367894073    0.11287745285510364    0.13248337797596121    0.15981980805330595    0.1841841579089353    
  0.19408117638395242    0.18418417074983304    0.15981977084578905    0.13248341851978407    0.11287741134742779    
  0.10766290076995455    0.12087460357699148    0.15599339696690945    0.21332295022372372    0.2819606775221847    
  0.337193791566799    0.35758601528368533    0.40218402230718864    0.3984926372816735    0.36525563786420806    
  0.2911818799342122    0.2133229612300815    0.1628751010392672    0.1442940257239321    0.15256794268667861    
  0.1821633599738065    0.22270196463273986    0.2571161148409455    0.2705084840330982    0.2571161366506073    
  0.22270194829901144    0.18216334333740286    0.15256800332551818    0.14429398640401125    0.1628751136862968    
  0.21332294968687673    0.29118192576246116    0.3652555742649342    0.39849262549712117    0.40218402230718864    
  0.27323748297118716    0.31497741936112633    0.3824166375277022    0.36525574980011666    0.28196066383150553    
  0.21463720517743645    0.18904172452215065    0.20092474353100984    0.2419203666985821    0.29419846389359444    
  0.3319239789533183    0.34423096473657666    0.3319240116566848    0.29419842325164264    0.24192044364577095    
  0.20092468714610245    0.18904180146727761    0.21463711845561043    0.2819607118982021    0.365255665689008    
  0.3824166756303254    0.3149774044527162    0.27323748297118716    0.10796474558616335    0.16344019656894573    
  0.3149774352992794    0.39849262898040727    0.3371938751828498    0.25949595845916307    0.22790470162634596    
  0.24284572197544704    0.291912456164431    0.34677104243793944    0.3752002898584722    0.38035409715488167    
  0.3752002842326186    0.3467710439572918    0.2919124370778762    0.24284579279267632    0.22790464084077666    
  0.25949596882963233    0.33719379729485216    0.3984927142961143    0.3149774154737141    0.1634401890836747    
  0.10796474558616335    0.0594110785833309    0.10796478414796763    0.27323741026164133    0.4021839747455479    
  0.3575859738246306    0.27745958819501626    0.24370818293017824    0.25987345358764646    0.31135182420642016    
  0.36438237699273446    0.3853662124211537    0.38603598895965474    0.3853662071642638    0.36438230922328874    
  0.31135192982925414    0.25987338692005496    0.2437082829166094    0.27745946496624746    0.35758611714261873    
  0.40218393827361837    0.27323749087471333    0.10796472432158853    0.0594110785833309    0.10830086571388167    
  0.16289003356804102    0.3097602144022121    0.38534766200219644    0.3173747860327919    0.23351263344719433    
  0.1929990523775376    0.19354718700140813    0.22487839963342965    0.27182185928461355    0.3119252015859848    
  0.32743247768112205    0.3119251513512642    0.27182190741203766    0.22487837810204026    0.19354722903202629    
  0.19299901571226458    0.2335126842117292    0.3173747350362064    0.38534770953183123    0.3097602258303712    
  0.1628899934388879    0.10830086571388167    0.16460295722205856    0.2192858109458272    0.34197900892763233    
  0.3782791638080193    0.29976922416416846    0.21944758711877807    0.18167396659817084    0.18211666233431995    
  0.21123567249700734    0.25535639885872624    0.29347739261542194    0.30831871573895075    0.29347739403455975    
  0.25535638224977086    0.2112356947011792    0.1821166045184529    0.1816739865083928    0.21944750066803148    
  0.2997693087068092    0.37827906217609264    0.34197905885745283    0.21928575642134396    0.16460295722205856    
  0.32046130666147227    0.3505393807893826    0.3856487839149051    0.3427709900337616    0.25322934017319043    
  0.1844501140991942    0.15362302454797266    0.15386463250972765    0.17729011931211844    0.21332154531317854    
  0.24534755743699296    0.2581388813340486    0.245347583810132    0.21332158087962858    0.17729004552307057    
  0.15386466040253227    0.15362298228409466    0.18445013778179795    0.25322933023591376    0.3427709898125887    
  0.38564880680433333    0.35053937603490576    0.32046130666147227    0.4130309543006244    0.40235766303907927    
  0.3562946210007259    0.2755828401422407    0.196360692121802    0.14427128675562856    0.12133466943491736    
  0.12130661271623637    0.13813146614555546    0.16402900900294    0.18761800741112758    0.1973005439267176    
  0.1876179912588164    0.164028984711922    0.1381315220838328    0.12130657520353497    0.12133468976197487    
  0.14427120661464482    0.19636073431810253    0.2755827503449122    0.35629464077465295    0.4023575610050432    
  0.4130309543006244    0.3629212156892241    0.34037542900185963    0.2810751867744377    0.20925848116655213    
  0.14963811583331912    0.11208636696478118    0.09530463647326831    0.09493356580237543    0.10644564964281902    
  0.12420234249286438    0.14051474962780292    0.1472293726805601    0.14051472013519062    0.12420236322370458    
  0.1064456287626025    0.09493360948315402    0.09530460794094296    0.11208638903229814    0.14963810821006512    
  0.2092585364569435    0.2810751554911062    0.3403754593177395    0.3629212156892241    0.29784399532842004    
  0.2777066459210019    0.2276001761497887    0.1699460173643913    0.12313052367604004    0.09370671799737817    
  0.0803736886828137    0.07968002643753712    0.08796356441188677    0.10105213928363393    0.11316664765465513    
  0.1180906498591133    0.11316664626563168    0.10105212649560291    0.08796357507242802    0.0796800199776568    
  0.08037372211926844    0.0937066587779848    0.12313059360950313    0.16994597009558096    0.22760020227698785    
  0.27770663707163123    0.29784399532842004    0.2845408609401282    0.26521000157502933    0.2175294245695137    
  0.16276518055109468    0.11811027442559134    0.08998620158248835    0.07710835309940936    0.0760838525008459    
  0.08340907037427038    0.09523340275688554    0.10623152244690275    0.11069787827767141    0.1062315273299026    
  0.09523340292714026    0.08340905489522352    0.07608388994640004    0.07710832070595132    0.08998623458355495    
  0.11811024829503945    0.16276520770158898    0.21752936848136165    0.2652100461854907    0.2845408609401282    
  0.3257511620957478    0.3040594837622216    0.24954218832287042    0.18575695710552176    0.13322355357032334    
  0.09996783499732027    0.08461553682448601    0.08320748640955701    0.09169799766741356    0.10533399069663503    
  0.11798060653568666    0.12318648223996292    0.11798060764732204    0.10533394961547186    0.0916980142973062    
  0.0832074647043089    0.08461556638679722    0.09996779131229437    0.13322360357609186    0.1857568862038768    
  0.24954225876563318    0.30405943735938357    0.3257511620957478    0.38795503039116086    0.3683557246742377    
  0.3111278068395745    0.23389802293180972    0.16560468623676572    0.12149277746695424    0.10117478288798673    
  0.09930021095301997    0.11064558180057056    0.12895341851240366    0.14592349792119902    0.15296271096845718    
  0.14592354072354766    0.12895345337843064    0.11064553979365925    0.09930025979595598    0.10117472453130394    
  0.1214928133074332    0.16560467731457368    0.23389807363724677    0.31112777116084384    0.36835567945439335    
  0.38795503039116086    0.3892169782033312    0.39019314733226373    0.36436105464439367    0.2906333671378181    
  0.20707259036735273    0.1494269478810066    0.12275361707891419    0.12024540446355628    0.13535744523985943    
  0.16024482210174723    0.18333134195965275    0.19285259721177908    0.18333136906158554    0.16024476471555232    
  0.13535749063501595    0.12024534467406357    0.12275368699018364    0.14942687319741924    0.20707266721443357    
  0.2906332479602573    0.364361124365282    0.39019312733207684    0.3892169782033312    0.31422921877563903    
  0.3429622548371858    0.37516555428012877    0.3311869817219664    0.2425629815800053    0.17399151802360624    
  0.1416398094261896    0.13859155638466172    0.1571295703193126    0.18796170816420937    0.21668534935642175    
  0.2285635912393305    0.2166853646410623    0.18796172853152437    0.15712953556564535    0.13859158510475955    
  0.14163978992982923    0.17399157085242936    0.2425629367976976    0.3311870448900052    0.37516553717154394    
  0.3429622454574473    0.31422921877563903    0.2710590835455131    0.3099922542005434    0.36937824042701106    
  0.3445307329750448    0.25659558915879316    0.1838740767294421    0.14917266672351398    0.14595211859100538    
  0.1659395502744768    0.19917668770731728    0.23027214859153788    0.24319335833136269    0.23027213149970555    
  0.1991766283770825    0.16593961439611413    0.14595206315134018    0.14917269756025653    0.18387402543479986    
  0.2565956992494469    0.3445307017490403    0.3693783452646125    0.30999220408633243    0.2710590835455131    
  0.31422922116881863    0.3429622634929601    0.37516555106205673    0.3311869733687272    0.24256302180260125    
  0.1739915040463207    0.14163985440181287    0.13859156200969638    0.15712959833874782    0.187961682361405    
  0.2166853735525386    0.2285636099905957    0.21668536355491386    0.18796169948214925    0.15712956822162802    
  0.13859157819918574    0.1416397761130766    0.1739915365241937    0.24256299944264909    0.331187050024207    
  0.3751655296804481    0.34296226819394354    0.31422922116881863    0.3892169813364696    0.39019321203990903    
  0.3643610662153636    0.2906333471346368    0.207072586071655    0.14942693011554295    0.12275361978292744    
  0.12024538632953725    0.13535745262372675    0.16024478861906347    0.18333136697789346    0.19285259106407165    
  0.18333137532617466    0.16024476124316664    0.13535746827160175    0.12024538230232662    0.1227536668471726    
  0.1494269116446138    0.2070726354241352    0.29063326273365814    0.3643611086169898    0.3901931091813907    
  0.3892169813364696    0.3879550816769543    0.3683557025230889    0.3111277973997836    0.23389802580949    
  0.16560471500842178    0.1214927839590589    0.10117477689719499    0.0993001867889022    0.11064558630050379    
  0.1289534284235609    0.14592351975372536    0.15296268546277744    0.14592351988386323    0.1289534452947298    
  0.11064555633666451    0.09930023606918324    0.1011747393500901    0.12149280635401812    0.16560467729158196    
  0.2338980243657008    0.3111277877267258    0.36835566500190303    0.3879550816769543    0.3257511136025483    
  0.30405952975567674    0.2495421798717301    0.18575695019917796    0.13322352523107492    0.09996785945159618    
  0.08461551283625122    0.08320749935884686    0.09169798862757293    0.10533399302477767    0.11798058340302903    
  0.12318651417623198    0.11798059437996695    0.10533397757657326    0.0916980138321865    0.08320747374478915    
  0.08461555171885284    0.09996779855864694    0.13322359656197397    0.18575693117577083    0.24954223718451302    
  0.3040595076622836    0.3257511136025483    0.28454086544067175    0.26520994773465495    0.21752942480059803    
  0.16276517062950574    0.11811027204532641    0.08998618473489482    0.07710837460389124    0.07608383638781326    
  0.08340909576479577    0.09523339108525204    0.10623154318882341    0.11069786024915036    0.10623151858501909    
  0.09523341820594196    0.08340907492209074    0.07608386759716304    0.07710835167357383    0.0899862039750064    
  0.11811027914157364    0.16276519875993228    0.21752935648586386    0.26521000875328415    0.28454086544067175    
  0.29784396200079877    0.2777066581789041    0.22760016683934164    0.16994603264600283    0.1231305262227892    
  0.09370673963134664    0.0803736589615887    0.07968005751439966    0.08796352604672315    0.10105214402939114    
  0.11316663536616327    0.11809068395659025    0.11316663511697082    0.10105210271335367    0.08796358782714513    
  0.07968001943735241    0.08037370750113366    0.09370668034964086    0.12313058817282947    0.16994596991785446    
  0.227600151844393    0.27770665001231354    0.29784396200079877    0.3629212300056063    0.34037545590389306    
  0.28107520617744075    0.2092584612458134    0.1496381392360109    0.11208635626177979    0.09530465464070074    
  0.09493354685267195    0.10644567660860448    0.12420230918488159    0.1405147820601565    0.14722932250249202    
  0.1405147624259386    0.1242023173338772    0.10644565851001239    0.09493359113131242    0.09530460690573392    
  0.1120863760742948    0.14963812898758944    0.2092585014749786    0.28107519721897134    0.3403754626059206    
  0.3629212300056063    0.41303092579100964    0.4023576668631939    0.35629455868320337    0.27558287226190065    
  0.19636063601507325    0.14427128981421347    0.12133464537399863    0.12130664590140192    0.13813144321330564    
  0.164029048903384    0.1876179770412322    0.1973005630411801    0.18761802067014297    0.1640290222731603    
  0.13813151403426116    0.12130662146570495    0.12133468729643587    0.1442712353885556    0.19636072177364244    
  0.27558279682826364    0.3562945749520201    0.40235757253781723    0.41303092579100964    0.3204613142352605    
  0.3505393428494069    0.3856487474532251    0.342771019180397    0.25322939497304814    0.1844500968091857    
  0.15362301523413868    0.15386460828087886    0.17729011571013495    0.21332153204244128    0.24534756593152676    
  0.2581388666026909    0.24534758355821118    0.21332151808498676    0.17729008880977976    0.1538646220296067    
  0.15362299959355605    0.18445012882707473    0.25322935536723884    0.34277102158036693    0.38564877869023784    
  0.35053935808968245    0.3204613142352605    0.16460293335635284    0.21928584345467128    0.3419790495014182    
  0.3782791312242009    0.2997692238633306    0.21944758503085213    0.1816739457677395    0.18211669024348576    
  0.2112356544117019    0.2553564439918973    0.2934773671296684    0.3083186870491009    0.2934774006700723    
  0.255356404092391    0.21123571803534355    0.18211661959411327    0.18167400463612232    0.21944750147657882    
  0.29976926545963417    0.3782790965949079    0.3419791018430296    0.21928576858537233    0.16460293335635284    
  0.10830086571388167    0.16289003356804102    0.3097602144022121    0.38534766200219644    0.3173747860327919    
  0.23351263344719433    0.1929990523775376    0.19354718700140813    0.22487839963342965    0.27182185928461355    
  0.3119252015859848    0.32743247768112205    0.3119251513512642    0.27182190741203766    0.22487837810204026    
  0.19354722903202629    0.19299901571226458    0.2335126842117292    0.3173747350362064    0.38534770953183123    
  0.3097602258303712    0.1628899934388879    0.10830086571388167    0.27105906319084977    0.30999231803910515    
  0.36937820398264065    0.3445308018142752    0.2565955752945931    0.18387415822403425    0.14917260254757686    
  0.1459521648995511    0.16593951220846884    0.19917670235919255    0.23027210786840957    0.24319337653900583    
  0.23027211246986268    0.19917668509498024    0.16593955784094558    0.14595210195925093    0.14917267708218107    
  0.18387405850800356    0.25659564064030754    0.3445307557283173    0.36937827109812843    0.30999224920831614    
  0.27105906319084977    0.3142292571039721    0.342962208794388    0.37516560095612483    0.3311869713721051    
  0.24256302219248285    0.173991496224778    0.14163985677651697    0.13859151623013474    0.1571296196820837    
  0.18796164157673104    0.21668542490748655    0.2285635722760863    0.2166854128891045    0.18796167963226973    
  0.15712957269406422    0.13859156118317098    0.14163979711416544    0.17399152137507973    0.24256300217007923    
  0.3311869755236315    0.3751655782367218    0.3429621964362735    0.3142292571039721    0.3892169713106041    
  0.3901931874313785    0.3643609967693454    0.2906333632527036    0.20707254843275122    0.1494269679330018    
  0.12275359030284705    0.12024542775881389    0.13535743994707575    0.16024481406447352    0.18333131621934587    
  0.1928526152215261    0.18333135755434915    0.16024479042116194    0.13535745815988875    0.1202453802832362    
  0.12275364773239622    0.14942689743062001    0.20707263650269134    0.29063326982608595    0.3643611231532737    
  0.3901931780545512    0.3892169713106041    0.38795506832701016    0.36835569496074744    0.3111278307492651    
  0.23389801913062502    0.16560472469860182    0.12149276536376083    0.101174799111793    0.09930017499170421    
  0.11064559437462963    0.12895337969568313    0.14592353657121618    0.15296269947652058    0.145923514802191    
  0.12895342594561376    0.1106455450227895    0.09930023265943283    0.10117475245833923    0.12149278564260112    
  0.1656046982722671    0.23389800413000153    0.3111278205254138    0.3683556843279267    0.38795506832701016    
  0.32575113312636794    0.3040595192723232    0.2495421704187212    0.1857569631220456    0.133223529733346    
  0.09996785832846285    0.08461551516173992    0.08320750396835436    0.09169797668937132    0.105334010097239    
  0.11798059317533627    0.12318655200273765    0.11798058501496454    0.10533398011743728    0.09169800132096133    
  0.08320749752115034    0.08461555518631786    0.09996780003979114    0.1332235943741267    0.1857569378468089    
  0.24954222789127178    0.30405945064712875    0.32575113312636794    0.2845408876760559    0.2652099827984008    
  0.21752939831521148    0.1627651685532911    0.11811026903570143    0.08998619260359546    0.07710836783911716    
  0.07608384036252466    0.0834090889752518    0.09523341654454139    0.10623153387282007    0.11069785709672855    
  0.10623151529428392    0.09523343123067479    0.08340905371175159    0.07608387515354569    0.077108340520684    
  0.08998621112971941    0.11811025860395169    0.16276521008997752    0.21752935093986545    0.2652100016026645    
  0.2845408876760559    0.29784403146312566    0.27770662677743835    0.2276001786504121    0.1699460079927737    
  0.12313055102832578    0.09370671223224568    0.08037368677885952    0.07968002499319571    0.08796355230670085    
  0.10105213825644888    0.11316664130939388    0.11809065756628054    0.11316665809817249    0.10105209461336341    
  0.08796359330457545    0.07968000090048676    0.08037372486839653    0.09370667606871963    0.12313059543919379    
  0.16994598097578884    0.22760019292887107    0.27770661574338046    0.29784403146312566    0.36292116474270625    
  0.34037548679599355    0.2810751428815026    0.20925851246299948    0.14963811917024938    0.1120863771320658    
  0.09530463523521458    0.09493355663988202    0.10644565390180447    0.12420233997159263    0.14051473321572436    
  0.14722934700605675    0.14051470366410998    0.12420237602389265    0.10644562609640337    0.09493360660910441    
  0.09530457784477238    0.11208640941587839    0.14963807814602276    0.20925853184822651    0.28107516187697856    
  0.34037550392228066    0.36292116474270625    0.4130310277953315    0.40235760092143463    0.35629465908967206    
  0.27558279028972693    0.19636068640785176    0.14427126806457194    0.12133468602972405    0.12130659438300298    
  0.13813150265956423    0.16402900226484107    0.18761800774636062    0.19730052884586655    0.1876180745068401    
  0.164028968886321    0.1381315097541909    0.12130658452798887    0.12133471237481329    0.14427118921745208    