#     DFTpy    
  CRYSTAL 
    
  PRIMVEC    
  4.246068965517241    0.0    0.0    
  0.0    4.246068965517241    0.0    
  0.0    0.0    2.339310344827586    
  PRIMCOORD    
  4    1    
  Si    0.0    0.0    0.0    
  Si    2.1230344827586203    2.1230344827586203    1.169655172413793    
  Si    0.0    2.1230344827586203    0.5848275862068965    
  Si    2.1230344827586203    0.0    1.7544827586206895    
  BEGIN_BLOCK_DATAGRID_3D    
  3d_datagrid_density    
  BEGIN_DATAGRID_3D#0    
  19    19    11    
  0.0    0.0    0.0    
  4.246068965517241    0.0    0.0    
  0.0    4.246068965517241    0.0    
  0.0    0.0    2.339310344827586    
  0.0497699335809228    0.09618039502376248    0.28234970539738713    0.5120287071887456    0.583324399263713    
  0.5705000139421393    0.5504128967514713    0.49559671459645477    0.4099273335179929    0.36863222522844175    
  0.4099273386940579    0.49559674970837153    0.5504129208669717    0.5704999692349557    0.5833243651915524    
  0.512028669130219    0.2823496691609154    0.09618039815013438    0.0497699335809228    0.09618040886365216    
  0.15214176500713097    0.33158551577267736    0.5070539151503026    0.5434550034262343    0.5258762581000578    
  0.514089971800092    0.48208299423262235    0.4230583042009347    0.39241306527052644    0.42305831708265335    
  0.4820830389598471    0.5140899881537725    0.5258762399231527    0.5434550635433026    0.5070539268340045    
  0.33158549058609044    0.1521417749555914    0.09618040886365216    0.2823496802024813    0.3315854805060704    
  0.4321007709046511    0.4739803948981402    0.44697799096224994    0.42185004219754957    0.42387540138344365    
  0.4323687909836522    0.42723567080267183    0.42095205685931486    0.4272356516773434    0.4323688147145696    
  0.4238753976996018    0.42184999273218554    0.4469779999167543    0.47398042332053625    0.4321007906205725    
  0.3315854841319442    0.2823496802024813    0.5120286993119288    0.5070538870783572    0.47398042475400737    
  0.40679012450457414    0.34379952219122106    0.31604016732459256    0.32553516898051976    0.3568594202391483    
  0.3869201369026423    0.3985977176226973    0.3869201367588515    0.35685945774139716    0.32553516041382524    
  0.3160401681688163    0.3437995636121317    0.4067901046316768    0.4739804063085498    0.5070539351367103    
  0.5120286993119288    0.5833243806909166    0.5434550462549909    0.44697800734060084    0.3437995533587297    
  0.27321241615638786    0.24658339988493364    0.2581918709476104    0.2953745415417603    0.3357536982984683    
  0.35302332530180913    0.33575364138836156    0.29537456963344805    0.2581918723029435    0.24658339213947983    
  0.27321240086000587    0.3437995777819626    0.4469779826261144    0.5434550132823935    0.5833243806909166    
  0.5704999316743631    0.5258761868484044    0.4218500311519611    0.31604011157183964    0.24658339131286475    
  0.22155908110393624    0.23428011085368788    0.2728763531969309    0.315287349159246    0.3335947469319291    
  0.3152873388977276    0.27287636696025097    0.23428006272329127    0.22155905994717576    0.24658338295448068    
  0.31604014439822453    0.4218500269174951    0.5258762605109989    0.5704999316743631    0.5504129455428187    
  0.514090017343555    0.4238754615577956    0.32553517606054383    0.2581918644897154    0.2342801155367027    
  0.24929010689851697    0.2908917726906706    0.33612597850607995    0.3558333094864758    0.3361260252746402    
  0.29089177071949834    0.24929010952532069    0.23428011301882007    0.25819186951004436    0.32553517898454587    
  0.42387536740570375    0.5140899977087388    0.5504129455428187    0.49559674095205325    0.4820830374578378    
  0.4323687954802181    0.35685945257101676    0.2953745751131038    0.27287636979387686    0.29089172499380445    
  0.33724056850668804    0.38750333491516736    0.4097873108159259    0.3875032991960737    0.3372405571695577    
  0.29089173892795156    0.27287635850325764    0.29537459806053756    0.3568594746990003    0.4323687618336335    
  0.48208306663906864    0.49559674095205325    0.40992733769209316    0.42305830353073354    0.42723566956184295    
  0.38692015599196633    0.3357536768477463    0.31528736619278624    0.336126026652107    0.38750331863574994    
  0.443075849870757    0.46786045342904614    0.44307583551068747    0.3875032968096844    0.33612602688859805    
  0.31528731404212734    0.33575367412724255    0.38692014411865633    0.42723566205107333    0.42305828786536237    
  0.40992733769209316    0.3686322373946708    0.392413058931075    0.4209520732272304    0.3985976728409165    
  0.3530233315458182    0.3335947936598909    0.35583328527839664    0.40978727628275    0.46786046128000564    
  0.49370490553969154    0.4678604521143834    0.4097873207203865    0.3558333104913272    0.3335947606464243    
  0.3530233461340153    0.3985977125886927    0.4209520479042777    0.39241305341213745    0.3686322373946708    
  0.4099273462442955    0.4230582625306967    0.42723569030827696    0.3869201547632324    0.33575365420237396    
  0.31528734183004764    0.3361260002056034    0.3875032738919942    0.4430758272588839    0.46786046307666124    
  0.44307587599817555    0.3875033073884036    0.3361259977877813    0.3152872890211232    0.33575370134474036    
  0.38692014565296556    0.4272356520125372    0.4230583331741929    0.4099273462442955    0.49559674473846355    
  0.48208302687337606    0.43236879816775187    0.3568594419572034    0.29537458341511513    0.2728763675728714    
  0.2908917605801949    0.3372405922077231    0.38750329960179153    0.4097872803395232    0.3875033019761078    
  0.3372405863444259    0.29089176810153633    0.27287635737415156    0.2953745881543228    0.35685946427535653    
  0.4323687592856461    0.482083031525255    0.49559674473846355    0.5504129249985591    0.5140899926448599    
  0.4238754135400176    0.32553514948867956    0.25819189141734883    0.23428013179163676    0.2492901126364754    
  0.2908917546593893    0.3361260191600346    0.35583329991010826    0.3361260345002139    0.2908917648630147    
  0.24929010296781812    0.23428011806548873    0.2581919045491914    0.32553519075675236    0.4238753825036765    
  0.5140900191025174    0.5504129249985591    0.5704999160550596    0.5258762353677311    0.4218500249118829    
  0.3160401551537724    0.24658339155361653    0.2215590708141087    0.2342800615051542    0.27287632243132826    
  0.3152873584190747    0.333594758910976    0.3152873156811901    0.2728763868802302    0.2342801026403028    
  0.22155906468245298    0.24658338536325003    0.3160401887983331    0.421849974324122    0.5258762578119867    
  0.5704999160550596    0.5833243395606563    0.5434549638180928    0.4469779810846397    0.3437995360817078    
  0.27321240447631356    0.24658341394999156    0.2581919000571578    0.2953745679751336    0.33575368118816185    
  0.35302330208967897    0.33575366672569656    0.295374576792715    0.25819187230251356    0.2465833980600491    
  0.273212410802454    0.3437995830412323    0.44697800792451065    0.543455043689445    0.5833243395606563    
  0.5120286860787943    0.5070538732083836    0.4739804486298824    0.4067901267327082    0.34379955981665866    
  0.3160401718081538    0.3255351775014483    0.35685943034493345    0.38692014149021425    0.3985976507610394    
  0.38692014231642025    0.3568594484302387    0.3255351861202182    0.3160401804839329    0.3437995301969767    
  0.4067901313724769    0.473980349504524    0.5070538928800856    0.5120286860787943    0.2823496696070337    
  0.3315854722638152    0.43210078041180816    0.47398046115636067    0.4469779870021893    0.42185003194316234    
  0.4238753780964591    0.4323687905349076    0.4272357031634352    0.42095205882115727    0.42723564769472105    
  0.43236878500994824    0.42387542503896347    0.4218500192540694    0.4469780352616729    0.47398041086731035    
  0.4321007808630388    0.33158551340139464    0.2823496696070337    0.09618042233487559    0.1521417477403215    
  0.33158550127237263    0.507053876336585    0.5434550593558944    0.5258762719550681    0.5140899983421408    
  0.4820830454681304    0.4230583366727936    0.3924130468640336    0.42305834985832685    0.482083037294314    
  0.5140899777709941    0.5258762215097199    0.5434550173464142    0.5070539037217937    0.33158549858909825    
  0.1521417545273187    0.09618042233487559    0.0497699335809228    0.09618039502376248    0.28234970539738713    
  0.5120287071887456    0.583324399263713    0.5705000139421393    0.5504128967514713    0.49559671459645477    
  0.4099273335179929    0.36863222522844175    0.4099273386940579    0.49559674970837153    0.5504129208669717    
  0.5704999692349557    0.5833243651915524    0.512028669130219    0.2823496691609154    0.09618039815013438    
  0.0497699335809228    0.09325365593959634    0.14623308555151884    0.3122482135792399    0.4654824812486072    
  0.48521447741637036    0.46112246786247735    0.46237028545718295    0.48065018786851543    0.49177807455938743    
  0.4939686159484596    0.4917780519019686    0.48065025454237    0.46237033503617264    0.46112243807196185    
  0.48521448087485136    0.46548242106867055    0.312248146558267    0.14623308159421325    0.09325365593959634    
  0.1519162490099963    0.20827554024558947    0.35611685276188926    0.46207695542979205    0.45656675553218495    
  0.4283348040420035    0.4301798347904907    0.4521335377045583    0.4701397160664609    0.4760849714791821    
  0.470139784122098    0.4521335648407719    0.4301798564140509    0.42833479118884665    0.4565667879325608    
  0.46207694994518483    0.3561168054099124    0.20827555117007784    0.1519162490099963    0.3498940625637128    
  0.3859660127135552    0.4437412290335995    0.43854338581865193    0.3869204454145849    0.3521745188952252    
  0.35485575085158333    0.38220457030070565    0.4110728074673262    0.4230798759941634    0.41107283193335153    
  0.38220454865663617    0.3548557617780595    0.3521744787866229    0.3869204148410025    0.43854340491109944    
  0.4437412232703743    0.38596603819621095    0.3498940625637128    0.5653737025728803    0.5469357411545964    
  0.484227192774991    0.39145807627001344    0.31352563831443303    0.2766384357561571    0.2794050479168423    
  0.30806673136341844    0.34110846628034974    0.35551862863866207    0.3411084305612417    0.308066764099858    
  0.27940505574990326    0.2766384157683047    0.313525706716884    0.39145807933200466    0.48422711609826363    
  0.5469358116188898    0.5653737025728803    0.6388128631633366    0.5900480449226451    0.47387230827157567    
  0.35168361522885705    0.26775198485316554    0.2316246690722117    0.2341485525882282    0.2620040558657311    
  0.29504097754850256    0.3095059648946691    0.2950409290883734    0.26200409478964204    0.23414855327241899    
  0.23162465530312942    0.2677519874033898    0.3516836234427005    0.4738722744190308    0.5900480615968975    
  0.6388128631633366    0.6367488142630227    0.5866787589499269    0.46840634594304403    0.3454149288678849    
  0.2617663900915361    0.22613416195503142    0.22905618592245527    0.2572816530215721    0.2906556730032448    
  0.3052499972190406    0.2906557091993917    0.2572816554290271    0.22905617212720522    0.2261341390899098    
  0.26176637303406763    0.34541498443879726    0.46840633040547475    0.5866788382660278    0.6367488142630227    
  0.5797509374454731    0.5528956967391986    0.4747135454815475    0.373470179987946    0.2944353226975598    
  0.2587545866548869    0.26296326043225005    0.2935039188247677    0.3287771520139838    0.3442641891871878    
  0.3287771914882614    0.2935039256909391    0.2629632719885031    0.25875458754180675    0.2944353335046617    
  0.3734701755872275    0.4747134584483547    0.5528956756660782    0.5797509374454731    0.408545079316607    
  0.4297501827459538    0.4497056408744214    0.413883377184374    0.353502339078494    0.3196350041735033    
  0.3254459682896701    0.3586525911551074    0.39575401196497473    0.4120463757901839    0.3957540058631701    
  0.3586525918983245    0.3254459857745741    0.31963499752881913    0.35350235579165407    0.4138833684361245    
  0.44970559139124505    0.4297502308730165    0.408545079316607    0.2246431045214636    0.2757241051585481    
  0.3866081380657521    0.43894041214319435    0.4112338728475772    0.3822417874196728    0.38956429750188243    
  0.4241801834319465    0.4606897226684033    0.47629644947630273    0.46068972294130817    0.4241801851572079    
  0.38956427949602124    0.3822418114902347    0.4112338330833645    0.43894041842820425    0.3866080790794871    
  0.2757241370344991    0.2246431045214636    0.16003689655825465    0.21470212492241153    0.352642917185672    
  0.4449359084381799    0.43515335245889747    0.4091739895584717    0.4172701878655712    0.4522462887009143    
  0.4876932683925336    0.5024622063992122    0.48769326178281525    0.45224636326505624    0.41727020926540326    
  0.4091739626880206    0.435153322321877    0.4449358932203635    0.3526428626549034    0.21470209983429334    
  0.16003689655825465    0.22464311523601738    0.27572410019802507    0.3866081315213461    0.43894037724672524    
  0.41123385360614595    0.3822417757417197    0.3895642767117944    0.42418014464727083    0.46068970773316387    
  0.47629641202750295    0.4606897244335098    0.4241801634199461    0.3895642971263018    0.3822417872297761    
  0.4112339057776131    0.4389403920918977    0.3866081138049523    0.27572414774900156    0.22464311523601738    
  0.4085450621161734    0.4297501818225735    0.44970562844082423    0.41388336599045517    0.3535023868312738    
  0.31963501270475486    0.32544599317169215    0.3586525970358539    0.39575397897036363    0.41204639515359215    
  0.39575399832764396    0.35865259061613586    0.32544600308303856    0.3196349709624433    0.3535023780377421    
  0.41388337233304734    0.449705606539749    0.4297501992781099    0.4085450621161734    0.5797509038305532    
  0.5528957094606068    0.47471350909068416    0.37347015621664764    0.2944353604243059    0.2587546043075691    
  0.26296326992167185    0.29350390006761473    0.32877716545341407    0.3442642158840749    0.32877718324662547    
  0.29350392996614555    0.26296326569178097    0.25875459011175966    0.29443537939143966    0.37347017743041466    
  0.4747134798571734    0.5528957264405024    0.5797509038305532    0.6367488439641174    0.5866787784193611    
  0.46840633028868645    0.3454149895237022    0.26176636939857295    0.22613414885840957    0.2290561789162517    
  0.25728162746391336    0.29065568375399414    0.3052500396199877    0.29065564200719685    0.25728166701954586    
  0.22905620297946877    0.22613415538680776    0.2617663763172978    0.3454149910977699    0.4684062865797953    
  0.586678790857639    0.6367488439641174    0.6388128371866322    0.5900480132918076    0.47387229028647315    
  0.3516835650510604    0.2677519942848066    0.23162467909231285    0.23414857075462042    0.26200409234770883    
  0.2950409659237121    0.30950593645294433    0.2950409630051108    0.2620040819846695    0.23414855927331096    
  0.23162465610734953    0.2677519884777316    0.35168363915256656    0.473872312924185    0.590048072203293    
  0.6388128371866322    0.5653737458232266    0.5469357734248912    0.48422719780702567    0.39145806508496256    
  0.3135256818549119    0.2766384325702738    0.2794050741188758    0.3080667325768287    0.3411084638095794    
  0.35551862196367545    0.3411084590737187    0.3080667603709683    0.27940507858113695    0.27663843364723206    
  0.31352567304177137    0.3914580292796427    0.48422709882678955    0.5469358082548846    0.5653737458232266    
  0.3498940321230502    0.38596599975842966    0.44374123659253756    0.4385434013990454    0.3869203949350221    
  0.35217450543019285    0.3548557033206715    0.3822045629716621    0.4110728323706255    0.42307987741573677    
  0.41107282777046966    0.38220454524400604    0.3548557596529164    0.35217448054183026    0.38692045184389606    
  0.4385433808363887    0.44374121741088074    0.38596605323820576    0.3498940321230502    0.15191624191890316    
  0.20827552771261096    0.3561168461297803    0.4620769231484215    0.456566781200793    0.42833484025115925    
  0.4301798795454502    0.45213354162734354    0.47013975039185457    0.47608499680638755    0.47013974419245463    
  0.452133549859782    0.430179890702122    0.4283348194475865    0.45656670631471635    0.46207695735863635    
  0.356116841741955    0.20827552166233637    0.15191624191890316    0.09325365593959634    0.14623308555151884    
  0.3122482135792399    0.4654824812486072    0.48521447741637036    0.46112246786247735    0.46237028545718295    
  0.48065018786851543    0.49177807455938743    0.4939686159484596    0.4917780519019686    0.48065025454237    
  0.46237033503617264    0.46112243807196185    0.48521448087485136    0.46548242106867055    0.312248146558267    
  0.14623308159421325    0.09325365593959634    0.2596557292844634    0.3048346659551698    0.39345036845966025    
  0.4227602928151991    0.390163043520646    0.3658863417231266    0.3806605069759844    0.42616406709743415    
  0.47543375266054066    0.49725059346996475    0.47543373342081474    0.42616409422264856    0.3806605663396498    
  0.36588633513815666    0.3901630950626848    0.4227602959421647    0.39345031945518527    0.304834662496895    
  0.2596557292844634    0.3192586995327799    0.3550136395872797    0.413765856632275    0.41365008318717894    
  0.37004557809719335    0.3438676111157332    0.35734799850008764    0.4007479691877866    0.4483161695413167    
  0.46949157049164897    0.448316173414942    0.40074799204749567    0.3573480018006817    0.3438675748028733    
  0.3700456205196408    0.41365003716804327    0.41376583968597236    0.35501368877589834    0.3192586995327799    
  0.4629744888926373    0.46600901062278927    0.44685124209889354    0.3858847271332795    0.3221711405714718    
  0.2926938095199654    0.30366453088005596    0.34279769327859305    0.38632294054216304    0.4056605873309513    
  0.386322958504117    0.3427976638941452    0.3036645324642155    0.2926937651817711    0.322171157620074    
  0.38588471389303775    0.4468512652844354    0.46600902405213757    0.4629744888926373    0.5754279743651055    
  0.5420568561094816    0.45390743670149064    0.35066852514795943    0.27542701382358614    0.24432891003363405    
  0.2527444311492093    0.2875579920074596    0.32671220259126255    0.3438441675282054    0.3267122083957281    
  0.2875580334660656    0.2527444337955578    0.24432888553047669    0.2754270758314471    0.3506685213366784    
  0.4539073936726268    0.5420569018632573    0.5754279743651055    0.6127340457398738    0.5641353984572488    
  0.4502047405079094    0.3330523842569816    0.25450248805352593    0.22271222894331166    0.2291055454660319    
  0.26094602359563773    0.29742550592549055    0.3132739457782792    0.29742544757836076    0.2609460502274425    
  0.22910555504088995    0.2227122195255107    0.25450248973613127    0.33305241134740243    0.450204693155843    
  0.5641354001132526    0.6127340457398738    0.6195618863519219    0.5744839445185062    0.46619148397099985    
  0.3511226626363685    0.27177938821477504    0.23869143873700094    0.244086451216252    0.2749171641905189    
  0.3103159273084201    0.32569218407515477    0.3103159228232089    0.2749171676166168    0.2440864300896886    
  0.2386914093832698    0.2717793656496892    0.3511227077428195    0.46619148898992835    0.5744839971546427    
  0.6195618863519219    0.5399151713110067    0.5294188625998042    0.483193201343196    0.40288312120376296    
  0.3306838893068445    0.29644730363578714    0.30090982572542235    0.3299213760309121    0.3615359323268787    
  0.37487636832932913    0.36153589637053324    0.3299213714844261    0.3009098192834337    0.2964473024719755    
  0.3306838750644522    0.40288311212956657    0.48319311042175345    0.5294188610967441    0.5399151713110067    
  0.3044833219633029    0.3497669145788297    0.43567555593314    0.4587424426804119    0.41930365743142983    
  0.38759175437242127    0.38911432411799624    0.40883908779063177    0.4245043328672921    0.42933350861659636    
  0.42450432095234414    0.4088390889928819    0.38911436207535804    0.3875917383147042    0.41930367480983066    
  0.45874244622920163    0.43567551994310394    0.3497669443868194    0.3044833219633029    0.11001851560378353    
  0.16609910019373267    0.3347678983610065    0.4843074906910147    0.5022715883177808    0.4782200650144899    
  0.4741502434489555    0.4751047751010681    0.4617357810660943    0.45188407630499783    0.46173577947110833    
  0.4751048279903657    0.4741502189987369    0.47822006694928965    0.5022715810647743    0.48430750140823053    
  0.3347678816456923    0.16609912821341732    0.11001851560378353    0.05953023052118675    0.10756685562174668    
  0.28595683530329097    0.487013677622055    0.5363954282159822    0.5172144248279897    0.5097107975671944    
  0.4993942438099763    0.4698532527362865    0.452264721287072    0.46985324950252577    0.49939426254069025    
  0.5097108449040936    0.5172143829444384    0.5363954396268233    0.48701366999188883    0.28595677211033577    
  0.10756686760419927    0.05953023052118675    0.11001851827320226    0.1660990983735878    0.33476790410335255    
  0.4843074780347158    0.5022715622188724    0.47822006985347393    0.4741501889990387    0.47510476602813734    
  0.46173573719197486    0.4518840686636913    0.46173578281703026    0.4751047976515183    0.4741502060199978    
  0.4782200752220558    0.502271585910316    0.48430748047818406    0.3347679040100407    0.16609912481305922    
  0.11001851827320226    0.3044833156637725    0.34976692488503125    0.4356755598107825    0.4587424212767887    
  0.4193036813672782    0.3875917757033313    0.38911437206980903    0.40883912842276304    0.4245043102749317    
  0.42933349005118715    0.4245043710451179    0.40883908809542485    0.38911437295503326    0.38759172454727103    
  0.41930367910453925    0.45874242091562645    0.4356755323515463    0.34976693444439433    0.3044833156637725    
  0.5399151528981696    0.5294188741529015    0.4831931445540241    0.4028830927885242    0.3306839200813481    
  0.2964472928840657    0.3009097977900152    0.3299213599543823    0.3615358994495155    0.37487639889255947    
  0.36153594027275887    0.32992139636518153    0.30090981364360475    0.296447302789589    0.3306839192177248    
  0.4028831258299062    0.4831931400035638    0.5294188810022896    0.5399151528981696    0.619561962655484    
  0.5744839697399151    0.46619151252723634    0.3511226870406907    0.2717793634181341    0.23869143645697397    
  0.2440864368554845    0.2749171526158714    0.31031593562656135    0.3256922090453334    0.3103158819616875    
  0.2749171759327829    0.2440864748545627    0.23869142991712675    0.2717793885167698    0.3511227091817043    
  0.4661914575833163    0.5744840068860844    0.619561962655484    0.6127339720455106    0.5641353841199143    
  0.45020471730482947    0.3330523500850518    0.2545024974972347    0.22271224975855972    0.22910557129634856    
  0.2609460509653386    0.2974254753023175    0.3132739356400785    0.29742547006852327    0.26094604014290923    
  0.22910555299111496    0.2227122058642458    0.2545025026340164    0.3330523998599312    0.45020475816222216    
  0.5641353891277819    0.6127339720455106    0.5754279740976204    0.5420568704077371    0.45390746255325365    
  0.35066852900977674    0.2754270332800129    0.24432888844624442    0.25274442445877193    0.28755800380516455    
  0.3267121879887437    0.34384416155970077    0.326712206772106    0.2875580344352687    0.25274444618490094    
  0.24432889747096231    0.2754270340593782    0.3506685375405386    0.45390738358402444    0.5420568873537819    
  0.5754279740976204    0.46297447439178185    0.46600904213128286    0.4468512472936353    0.3858847262324386    
  0.32217111026104217    0.29269381992708293    0.30366451902291847    0.3427976754149391    0.3863229599147489    
  0.40566057751338025    0.38632291957898024    0.3427976581300369    0.30366455856141344    0.29269378570910437    
  0.3221711486741573    0.3858847115599454    0.4468512368928223    0.46600908195980023    0.46297447439178185    
  0.31925873067499294    0.35501363929532503    0.4137658663649609    0.4136500572232487    0.37004562576120703    
  0.343867627584809    0.35734801716532877    0.4007480061198273    0.4483162095683983    0.4694915684960754    
  0.44831620857001836    0.4007479944668328    0.3573479804900439    0.343867566278684    0.370045579337496    
  0.4136500327211285    0.41376584345123824    0.35501365358691167    0.31925873067499294    0.2596557292844634    
  0.3048346659551698    0.39345036845966025    0.4227602928151991    0.390163043520646    0.3658863417231266    
  0.3806605069759844    0.42616406709743415    0.47543375266054066    0.49725059346996475    0.47543373342081474    
  0.42616409422264856    0.3806605663396498    0.36588633513815666    0.3901630950626848    0.4227602959421647    
  0.39345031945518527    0.304834662496895    0.2596557292844634    0.4522653429098729    0.45188341806056725    
  0.4293341476782298    0.374875847015092    0.32569268898321363    0.31327347167240005    0.34384468490484466    
  0.405660021749267    0.4694921764852481    0.4972499564184001    0.4694921654799687    0.40566006131665616    
  0.3438447228420952    0.3132734600396241    0.32569270965278035    0.3748758352111629    0.42933407923737554    
  0.45188343923098284    0.4522653429098729    0.4698526333266314    0.46173633319875274    0.4245037600267651    
  0.36153644566836335    0.31031538417022325    0.2974259849751821    0.32671165465411234    0.3863234490520968    
  0.448315574609332    0.47543437220686385    0.44831556942312745    0.3863234689715808    0.3267116867579922    
  0.29742594288143276    0.31031543083218954    0.36153644424488257    0.4245037118691172    0.46173638422454527    
  0.4698526333266314    0.4993949079227772    0.4751041653181072    0.4088396490063205    0.3299208881131875    
  0.2749176764123288    0.2609455886413222    0.2875584810113331    0.34279716103766966    0.4007485800825245    
  0.4261634670168677    0.40074858027260646    0.3427971390205426    0.28755848471825163    0.2609455682465984    
  0.27491766917207655    0.32992086688977623    0.40883967710643    0.47510418911785396    0.4993949079227772    
  0.5097101691580191    0.4741508000080053    0.3891138506893839    0.3009103136985779    0.2440859761003884    
  0.2291060268277149    0.25274397094615464    0.3036650301050578    0.3573474678676015    0.3806611004075561    
  0.3573474768567682    0.3036650691712749    0.2527439689279717    0.22910601792989915    0.2440860255473111    
  0.30091031576716365    0.38911380037791626    0.47415084959859666    0.5097101691580191    0.5172150634646541    
  0.4782194283055626    0.3875923048673655    0.2964468038472476    0.23869187697953842    0.22271179550601877    
  0.24432932104641394    0.29269328016918184    0.34386813838580454    0.3658857567598963    0.34386809659555356    
  0.292693311560317    0.24432933194333867    0.22271178059340765    0.23869188141793474    0.29644683724488063    
  0.38759226545691283    0.4782194395864185    0.5172150634646541    0.5363947588012202    0.5022721517414969    
  0.4193030633607231    0.33068440167093965    0.27177891155569506    0.2545029692995713    0.27542656148087563    
  0.3221716254294554    0.3700450844376409    0.3901636142106905    0.37004505064415993    0.3221716416819014    
  0.27542654084111406    0.2545029434870913    0.2717788842452858    0.3306844352172986    0.4193030942105198    
  0.5022722234042747    0.5363947588012202    0.48701429989590134    0.48430685818307717    0.4587430780522765    
  0.4028825591951974    0.35112318868763637    0.3330518606707607    0.3506690592626048    0.38588415311007357    
  0.41365063029796073    0.4227597246112076    0.41365062353753324    0.3858841401568613    0.35066906076015225    
  0.33305185734699905    0.3511232241820238    0.4028825444111741    0.45874298462747554    0.48430683471445435    
  0.48701429989590134    0.28595632153751915    0.33476840032557464    0.43567497376400305    0.4831937836086798    
  0.4661908734658995    0.45020535303187903    0.4539067757754168    0.4468518381214779    0.41376529570573434    
  0.3934508721754905    0.4137652797404429    0.44685186677974553    0.4539068057686218    0.45020532086420706    
  0.4661908997251063    0.48319376317157486    0.43567494708729976    0.3347684186870524    0.28595632153751915    
  0.1075672219916686    0.16609869056199303    0.34976749213538944    0.529418241827753    0.5744846727349951    
  0.5641347516152364    0.5420575595924404    0.46600844800312685    0.35501419446466714    0.3048341485946985    
  0.355014194802097    0.4660084558047456    0.5420575014791413    0.5641347533550615    0.5744846304625866    
  0.5294182475713148    0.3497674659664949    0.16609871622551703    0.1075672219916686    0.059529963551712806    
  0.1100188345253877    0.30448284533920117    0.5399158237537908    0.6195611889569836    0.6127347177899481    
  0.5754272906263336    0.46297507493338247    0.3192582077597884    0.25965619267805556    0.31925817259115935    
  0.4629750585165116    0.575427311138169    0.6127346803239822    0.6195612654564554    0.5399157916307435    
  0.30448277931517354    0.11001883792898003    0.059529963551712806    0.10756722001903449    0.16609869172763633    