#     DFTpy    
  CRYSTAL 
    
  PRIMVEC    
  2.983448275862069    0.0    0.0    
  0.0    2.983448275862069    0.0    
  0.0    0.0    2.983448275862069    
  PRIMCOORD    
  2    1    
  Si    0.0    0.0    0.0    
  Si    1.4917241379310344    1.4917241379310344    1.4917241379310344    
  BEGIN_BLOCK_DATAGRID_3D    
  3d_datagrid_density    
  BEGIN_DATAGRID_3D#0    
  13    13    13    
  0.0    0.0    0.0    
  2.983448275862069    0.0    0.0    
  0.0    2.983448275862069    0.0    
  0.0    0.0    2.983448275862069    
  0.05543088654137376    0.1069083515596891    0.2810916822676597    0.3950585958885525    0.32646492265171156    
  0.23992538406206912    0.2098614657376323    0.2399253799655386    0.3264649176507302    0.395058637071002    
  0.2810916914995762    0.10690834519658125    0.05543088654137376    0.10690835366869571    0.1675206147761385    
  0.32870603891371847    0.3994958462605102    0.3204625323426587    0.23820436234716622    0.2099553784061113    
  0.23820434009296912    0.3204625298946422    0.399495868562048    0.32870600880037976    0.16752062478601742    
  0.10690835366869571    0.2810916691331128    0.3287060522755661    0.40481041750864677    0.3872336530467197    
  0.3014954525047928    0.23353700183507187    0.2104649188250065    0.23353696933625848    0.30149545490086715    
  0.3872336618404733    0.40481042952420615    0.3287060230299185    0.2810916691331128    0.3950586372776172    
  0.3994958856079353    0.3872336315380125    0.3356241480488788    0.2717547528107753    0.22655197249843617    
  0.21086712361093402    0.2265519776601847    0.27175478955428717    0.33562412108999307    0.387233666884575    
  0.3994958591708401    0.3950586372776172    0.32646490941076395    0.32046258021968077    0.3014954820109598    
  0.27175478082766114    0.24097293657666544    0.21867299059331452    0.2104649515090413    0.21867294021975794    
  0.24097290261799578    0.27175476855110864    0.3014955127497883    0.32046255070304    0.32646490941076395    
  0.2399253388225959    0.2382043609138234    0.23353696650395303    0.2265519810618737    0.2186729166190431    
  0.21238918536077364    0.2099553413652549    0.21238918889560285    0.21867295064338912    0.2265520043363554    
  0.23353696671557064    0.23820433721300763    0.2399253388225959    0.20986146473612766    0.20995537065983955    
  0.2104649215727332    0.21086712439761618    0.21046493063744212    0.20995537678261975    0.20986144639101567    
  0.20995536006806442    0.2104649215507168    0.21086711289668167    0.21046495806395563    0.20995537690510693    
  0.20986146473612766    0.23992534647183747    0.23820433072813121    0.2335369980332471    0.22655198389919132    
  0.21867293488858247    0.21238919006118934    0.20995535077231312    0.21238915106613926    0.218672951701616    
  0.22655198831333326    0.23353699369517608    0.2382043106903114    0.23992534647183747    0.32646491027721686    
  0.32046260385462805    0.3014954726199148    0.27175475399288307    0.24097288835607886    0.2186729978313477    
  0.21046494441188748    0.2186729717229974    0.240972906284726    0.2717547668074103    0.30149545545991274    
  0.3204625722281888    0.32646491027721686    0.3950586115866194    0.3994958811647214    0.3872336692940792    
  0.3356241135052553    0.271754753931398    0.22655198295260084    0.2108671169747219    0.22655195973082876    
  0.2717547965559736    0.33562414057325135    0.3872336566656951    0.3994958658860778    0.3950586115866194    
  0.28109166688806714    0.32870597868510876    0.4048104691993583    0.38723365106912605    0.30149545823248325    
  0.23353698906657133    0.21046495637411894    0.2335369843181423    0.30149546388618426    0.38723366436648726    
  0.4048104540449249    0.3287059893431683    0.28109166688806714    0.10690833017364013    0.16752066794916717    
  0.3287059887640733    0.39949585698440504    0.32046257251775156    0.23820433218713524    0.20995534700333082    
  0.2382043377705231    0.3204624998664418    0.39949587172391593    0.32870600565784297    0.16752061977127994    
  0.10690833017364013    0.05543088654137376    0.1069083515596891    0.2810916822676597    0.3950585958885525    
  0.32646492265171156    0.23992538406206912    0.2098614657376323    0.2399253799655386    0.3264649176507302    
  0.395058637071002    0.2810916914995762    0.10690834519658125    0.05543088654137376    0.10690835955337587    
  0.16752063173031503    0.3287060220981237    0.39949583959935675    0.3204625668127285    0.23820432280753126    
  0.20995535506406426    0.23820434477677963    0.3204625693465434    0.3994959000551518    0.3287060382897436    
  0.16752062409058077    0.10690835955337587    0.16752060765917057    0.22956003782471218    0.3665534945177751    
  0.40115533966732553    0.3167172344772541    0.23893061431254195    0.21238915851034243    0.2389305599690899    
  0.31671726350065726    0.40115531412442906    0.3665534407902393    0.22956007570685205    0.16752060765917057    
  0.328705986536354    0.3665534698339746    0.417530929015615    0.38620270016586006    0.3035984474014984    
  0.2402487890688507    0.2186729604671141    0.24024879825663653    0.3035984716562439    0.3862027124393947    
  0.4175309768973074    0.3665534543859466    0.328705986536354    0.3994958724655374    0.40115532163701056    
  0.3862027040907089    0.33865107099489167    0.2815812342202417    0.2408404191806941    0.22655196784432452    
  0.24084042360917665    0.2815812517109612    0.3386510470672354    0.38620275950225197    0.40115533374530277    
  0.3994958724655374    0.3204625403987501    0.3167172742154724    0.3035984993190367    0.28158124188292216    
  0.25796994793509465    0.24024880772845306    0.23353697857563901    0.24024874440581326    0.25796994153894137    
  0.28158123615426506    0.3035984744048494    0.3167172441271546    0.3204625403987501    0.23820430468306933    
  0.23893059258920296    0.24024875121354267    0.24084042113871906    0.24024873022850474    0.238930558124904    
  0.23820431556450025    0.23893060308981554    0.2402487693185787    0.24084044657697115    0.24024875333195891    
  0.2389305709351064    0.23820430468306933    0.20995534661863943    0.21238918973935234    0.2186729680651674    
  0.2265519684344952    0.2335369904302532    0.2382043517767301    0.23992533674827346    0.23820432662431948    
  0.23353698399417588    0.22655198556744935    0.21867298012618555    0.21238919291140299    0.20995534661863943    
  0.23820430647557775    0.2389305685867878    0.24024879992840237    0.24084043912767875    0.24024872856275914    
  0.23893057145514912    0.23820432691034882    0.23893056687975114    0.2402487684379522    0.24084042996573535    
  0.2402487684582844    0.23893055025193385    0.23820430647557775    0.3204625498784691    0.3167172950495744    
  0.30359846873548474    0.2815812181800038    0.25796994394911826    0.24024879685499886    0.23353701831185408    
  0.24024879474980587    0.25796994764038716    0.2815812389255597    0.30359842179161284    0.31671731871724995    
  0.3204625498784691    0.39949585841121715    0.401155329676364    0.3862027287928986    0.3386510609242862    
  0.28158122878366254    0.24084042045434303    0.2265519831018394    0.24084040715869273    0.2815812543572126    
  0.33865104004487523    0.3862027577646617    0.40115528133779965    0.39949585841121715    0.32870598125824335    
  0.36655338257762976    0.41753105366291376    0.38620273459111154    0.3035984632089026    0.2402487984156454    
  0.218673001675328    0.2402487857159637    0.30359847328535317    0.386202712863185    0.41753098013886975    
  0.36655344433797066    0.32870598125824335    0.16752060863701593    0.22956007011499446    0.36655344309348264    
  0.40115531387061715    0.3167172758676939    0.23893056310383246    0.21238914553164057    0.23893058112417262    
  0.3167172590580553    0.40115529519256704    0.36655343236945825    0.22956004812734734    0.16752060863701593    
  0.10690835955337587    0.16752063173031503    0.3287060220981237    0.39949583959935675    0.3204625668127285    
  0.23820432280753126    0.20995535506406426    0.23820434477677963    0.3204625693465434    0.3994959000551518    
  0.3287060382897436    0.16752062409058077    0.10690835955337587    0.28109166405662256    0.3287059981210301    
  0.4048104523921079    0.38723363400778893    0.30149547368462665    0.23353698559017352    0.2104649130604387    
  0.23353700179579845    0.3014954725975382    0.38723366046380364    0.404810473067611    0.32870600133819267    
  0.28109166405662256    0.3287060219251499    0.3665534189904221    0.41753103584854606    0.3862027417318659    
  0.3035984420502567    0.2402488280714792    0.21867298542112892    0.2402487510171326    0.30359846033545157    
  0.38620277312207557    0.4175309602759843    0.3665534468899108    0.3287060219251499    0.40481043776132564    
  0.4175310223724805    0.4199270685918131    0.3739893420269304    0.3070819860608205    0.25796999777841756    
  0.2409729167455766    0.2579699833824645    0.3070820026341588    0.37398934604105327    0.4199270948993338    
  0.41753100818584354    0.40481043776132564    0.3872336765246952    0.38620275793959674    0.37398935761692914    
  0.34415782468633466    0.30846500807370497    0.28158120724180835    0.27175478116830076    0.28158124476557495    
  0.30846508126119226    0.3441578276521019    0.373989374713605    0.38620275349349703    0.3872336765246952    
  0.3014954491206726    0.30359847874971124    0.3070820190350169    0.3084650497883477    0.3070819849444645    
  0.30359851942172367    0.30149550458948443    0.3035984428900744    0.3070819947066481    0.3084650568695245    
  0.30708202358954756    0.30359846422185266    0.3014954491206726    0.23353695661117202    0.24024878799597427    
  0.2579699285327566    0.28158122082877834    0.3035984605531138    0.3167173179803373    0.32046256154569647    
  0.3167173109928184    0.30359849167759245    0.2815812601917706    0.25796993062657503    0.24024878765438687    
  0.23353695661117202    0.21046492718456236    0.21867298972707463    0.2409729263599141    0.27175474586390724    
  0.30149548957849187    0.32046260482068445    0.3264649189620153    0.32046257986440607    0.30149548287979167    
  0.2717547698041849    0.24097293839740114    0.21867299309988525    0.21046492718456236    0.23353697712004448    
  0.24024880035237933    0.2579699851688905    0.28158126814175405    0.30359846781090605    0.3167173201758569    
  0.3204625450098652    0.3167172767437094    0.30359847432157944    0.2815812286217666    0.2579699366582122    
  0.2402487684178688    0.23353697712004448    0.3014954732236048    0.30359850289024454    0.3070820121066772    
  0.30846501334006166    0.30708200091987664    0.3035985262711822    0.3014955118865396    0.3035985024168992    
  0.3070820016109162    0.3084650482943324    0.30708197780564617    0.30359852675915944    0.3014954732236048    
  0.3872336782412251    0.3862027412340587    0.3739893677863225    0.3441578208180182    0.30846503464742747    
  0.2815812205916754    0.27175477196938885    0.28158121008973924    0.30846507062803397    0.3441578100322897    
  0.3739894146831134    0.38620269846888916    0.3872336782412251    0.4048104298003609    0.4175309668725329    
  0.4199271199606738    0.37398940068893055    0.30708200832420923    0.25796995930660477    0.24097292312924407    
  0.2579699566781928    0.3070819873337737    0.37398936591469734    0.4199270863980506    0.41753100968645457    
  0.4048104298003609    0.32870600001847783    0.3665534914463862    0.417530958135525    0.38620273334135463    
  0.3035984874266394    0.24024879738769353    0.21867293410579078    0.24024881389789854    0.3035984525618344    
  0.3862027543985034    0.41753098071825867    0.36655344544073715    0.32870600001847783    0.28109166405662256    
  0.3287059981210301    0.4048104523921079    0.38723363400778893    0.30149547368462665    0.23353698559017352    
  0.2104649130604387    0.23353700179579845    0.3014954725975382    0.38723366046380364    0.404810473067611    
  0.32870600133819267    0.28109166405662256    0.3950586139525811    0.3994958469168868    0.3872336856654138    
  0.33562409933021015    0.27175477201593107    0.22655197798125792    0.21086712406484767    0.22655200198441564    
  0.2717547563643094    0.33562416100213466    0.387233689010767    0.3994958758287729    0.3950586139525811    
  0.39949587709078754    0.40115531411806543    0.3862027718583667    0.3386510355658283    0.28158121201184166    
  0.24084047793493946    0.22655199928598152    0.240840430896519    0.2815812149986515    0.3386510855067898    
  0.38620270934502005    0.40115531168737506    0.39949587709078754    0.387233653376631    0.3862027415006085    
  0.37398934930082434    0.34415782045666754    0.3084650203344124    0.28158126460229277    0.2717547771313003    
  0.28158123055316586    0.3084650268663966    0.34415780155763953    0.3739893907870695    0.3862027466933333    
  0.387233653376631    0.3356241554055785    0.3386510937035906    0.34415779355573295    0.34667070035931735    
  0.34415779983844397    0.33865105968147974    0.3356241241670742    0.3386510639471545    0.3441578373973516    
  0.3466706710223848    0.34415783509399167    0.33865104343516034    0.3356241554055785    0.27175474796906834    
  0.2815812417211813    0.3084650202778918    0.34415783507709896    0.37398936862665283    0.3862027685160521    
  0.3872336971143754    0.3862026770518101    0.37398935021561147    0.34415783431008173    0.3084650493643412    
  0.28158124140873814    0.27175474796906834    0.2265519722360922    0.24084045555313435    0.28158123220193504    
  0.338651071160915    0.3862026868026509    0.4011553161229071    0.39949587083145627    0.4011553327875079    
  0.3862027281752444    0.33865108408182787    0.28158122069581915    0.24084043409361053    0.2265519722360922    
  0.2108670885605139    0.22655200079695462    0.27175478607719483    0.3356241099654316    0.38723367848515466    
  0.3994958827995432    0.39505861249336427    0.3994958802795545    0.3872336652015581    0.3356241273996575    
  0.271754788253619    0.22655200649459378    0.2108670885605139    0.22655196056428395    0.2408404429624573    
  0.28158124809750407    0.33865105927495814    0.3862026977528805    0.40115533708475754    0.3994958534479825    
  0.4011553041798389    0.3862027114464093    0.3386510567476536    0.28158124585372674    0.24084041508823145    
  0.22655196056428395    0.2717547609300969    0.2815812597482707    0.30846504353549803    0.34415781839836307    
  0.37398934201228207    0.38620277799281355    0.38723366176927887    0.38620273415192    0.3739893552588408    
  0.3441578251260273    0.3084650149375675    0.281581251465091    0.2717547609300969    0.33562413018053716    
  0.3386510684393096    0.344157839363903    0.34667066378651434    0.34415779513283506    0.33865105576517285    
  0.3356241252213381    0.33865104134476753    0.34415785074650224    0.34667064939302045    0.34415782383619126    
  0.33865106972039416    0.33562413018053716    0.3872336348566018    0.3862026842135202    0.3739893901726382    
  0.34415781588318184    0.3084650286864801    0.2815812594495776    0.27175479098981314    0.28158125141594575    
  0.30846502878009635    0.3441578279271234    0.3739893826334049    0.38620273402948097    0.3872336348566018    
  0.39949584174424885    0.4011553665900892    0.38620271542210094    0.3386510584272113    0.28158122939086855    
  0.24084046862329828    0.2265519681621715    0.2408404227141933    0.28158117806666033    0.33865107610633827    
  0.3862027258355671    0.4011553293026009    0.39949584174424885    0.3950586139525811    0.3994958469168868    
  0.3872336856654138    0.33562409933021015    0.27175477201593107    0.22655197798125792    0.21086712406484767    
  0.22655200198441564    0.2717547563643094    0.33562416100213466    0.387233689010767    0.3994958758287729    
  0.3950586139525811    0.32646494727072356    0.3204625710798115    0.30149548997752784    0.27175475747342864    
  0.24097291898105885    0.21867297430209778    0.2104649171801297    0.2186729912368546    0.24097293509380718    
  0.2717548019893409    0.3014954902785966    0.32046256073843477    0.32646494727072356    0.32046255516549077    
  0.31671726317270116    0.303598530680651    0.2815812434200964    0.2579699326969284    0.2402488080902491    
  0.23353698082847085    0.2402487642169222    0.2579699408584451    0.2815812353968529    0.30359848085426416    
  0.31671728114420516    0.32046255516549077    0.3014954499209705    0.3035985003134812    0.30708196954703243    
  0.3084650331382305    0.30708200325422685    0.30359848781982446    0.30149547224738105    0.30359851459236353    
  0.30708199067574204    0.30846500899486184    0.30708201774005695    0.30359850815492145    0.3014954499209705    
  0.27175477602437537    0.28158126868891853    0.3084650244168523    0.34415781568094367    0.3739893647655119    
  0.38620274281448663    0.3872336441834722    0.38620274311998337    0.3739894094178414    0.3441578253205078    
  0.30846503330502906    0.28158122571031613    0.27175477602437537    0.24097291894077935    0.2579699492047355    
  0.3070819991940887    0.37398937944339905    0.41992708372784854    0.4175310129906238    0.4048104504718276    
  0.41753092098841543    0.4199270905049304    0.37398938502825296    0.30708200038215383    0.2579699253860716    
  0.24097291894077935    0.21867294602752313    0.24024880789120812    0.30359845609654373    0.38620273767917146    
  0.41753091017795413    0.3665534434713087    0.3287060128091357    0.3665534960659961    0.41753098476431266    
  0.38620275881542804    0.3035984651828453    0.24024878936476923    0.21867294602752313    0.21046491618098895    
  0.23353697483866145    0.3014954973239279    0.3872336465871002    0.40481045718243525    0.3287060262677029    
  0.28109165089550936    0.32870601374547076    0.4048104573322636    0.3872336638109396    0.3014954890397297    
  0.23353700765112345    0.21046491618098895    0.21867295271751203    0.24024878485208856    0.3035985136847477    
  0.38620275991762215    0.41753094270007246    0.3665534735080183    0.32870600856873367    0.3665534651102881    
  0.4175309659228446    0.3862027340907637    0.3035984728570728    0.24024876894638206    0.21867295271751203    
  0.24097293017821006    0.2579699839392767    0.3070820114128418    0.3739893757506234    0.41992708056637246    
  0.4175310138643991    0.4048104797295968    0.41753100742715854    0.41992709809829515    0.3739893795590437    
  0.3070819867432848    0.257969984037575    0.24097293017821006    0.27175476559866746    0.2815812489673098    
  0.3084650320192023    0.34415781185550687    0.3739893526554049    0.3862027272462401    0.38723363362210467    
  0.3862027034009761    0.3739894205549551    0.3441578157291101    0.30846505444570504    0.28158122159373433    
  0.27175476559866746    0.301495498151017    0.3035984542419614    0.30708204737567435    0.30846505911762545    
  0.30708200044398387    0.3035985137446672    0.3014955303789449    0.3035984812794039    0.30708200467439417    
  0.308465043347368    0.3070820106364965    0.30359850010614114    0.301495498151017    0.32046254647764477    
  0.3167173021365185    0.3035984606132383    0.2815812292858237    0.25796995976156195    0.24024877974629386    
  0.23353694802139222    0.24024879865159607    0.25796992287367887    0.2815812243589763    0.3035984807838087    
  0.3167172904437313    0.32046254647764477    0.32646494727072356    0.3204625710798115    0.30149548997752784    
  0.27175475747342864    0.24097291898105885    0.21867297430209778    0.2104649171801297    0.2186729912368546    
  0.24097293509380718    0.2717548019893409    0.3014954902785966    0.32046256073843477    0.32646494727072356    
  0.2399253649764531    0.2382043213541319    0.2335369944638119    0.2265519621366078    0.21867294679543997    
  0.21238916732762472    0.20995533904089406    0.21238919044870536    0.21867296394680505    0.22655199913756116    
  0.23353700725094453    0.23820432523189822    0.2399253649764531    0.23820431444394358    0.2389305300930771    
  0.2402488033651667    0.24084042351455387    0.2402487463216689    0.23893063452378727    0.23820434381610936    
  0.23893055937249744    0.24024876534457687    0.24084045231446422    0.24024877098972347    0.2389305580313234    
  0.23820431444394358    0.2335369556766325    0.2402487914241449    0.25796991937020836    0.28158121078095066    
  0.30359848238562526    0.3167172988138512    0.3204625446217558    0.3167172910464274    0.30359849492843866    
  0.2815812070153645    0.25796994978908694    0.2402487921741969    0.2335369556766325    0.22655201055765223    
  0.2408404491909461    0.2815812402957546    0.3386510381309026    0.38620270934642764    0.40115527302845927    
  0.39949586153767414    0.40115531998492876    0.3862027653597096    0.3386510648991444    0.28158124497495224    
  0.24084041325111308    0.22655201055765223    0.2186729535881966    0.24024877351057172    0.3035984924444804    
  0.38620273553913825    0.4175309632752692    0.36655347192040055    0.32870601234948965    0.3665533895505774    
  0.41753095596949624    0.38620272813587164    0.3035984927920824    0.24024876288687314    0.2186729535881966    
  0.21238916160118818    0.23893057449087962    0.31671724905974025    0.40115532462738135    0.3665534036742492    
  0.22956007160843134    0.1675206270030127    0.22956007971804435    0.36655342560719684    0.4011553560228078    
  0.3167172493419739    0.2389305668625366    0.21238916160118818    0.20995534982860842    0.23820433730200158    
  0.32046256367388865    0.3994958414041676    0.32870603444679575    0.16752066399503107    0.10690834751425805    
  0.16752062981343852    0.32870600014778717    0.3994958465621447    0.320462573888882    0.23820434499407675    
  0.20995534982860842    0.21238916380471548    0.23893057552872252    0.3167173331518066    0.4011553424329917    
  0.3665533945266001    0.22956009316731998    0.16752061744422225    0.22956004818204434    0.3665534343345603    
  0.40115531917035746    0.31671726706569936    0.23893055680068748    0.21238916380471548    0.2186729617095995    
  0.24024879046410236    0.3035984747852686    0.38620271928659733    0.4175309564386212    0.36655348473236476    
  0.3287060431962441    0.36655345427723274    0.41753098447728226    0.3862027327974939    0.30359846754346653    
  0.24024879528120102    0.2186729617095995    0.22655200593331712    0.24084041555886926    0.28158121491753807    
  0.33865104446253375    0.38620272727945354    0.40115530200663596    0.3994958507938611    0.4011552902835553    
  0.3862027380582237    0.3386510433090207    0.28158125959119873    0.24084040476739624    0.22655200593331712    
  0.23353696545128064    0.2402487627816975    0.2579699796466683    0.2815812520489518    0.3035984713379987    
  0.3167172953833925    0.3204625837828184    0.31671726466411926    0.3035984639716598    0.28158124720361843    
  0.25796994684574653    0.24024877985259074    0.23353696545128064    0.23820430485481764    0.23893060953934359    
  0.240248748866134    0.24084042924225138    0.24024877983490867    0.23893058287832902    0.23820429469528637    
  0.23893056984714292    0.24024875227644132    0.24084044119612474    0.24024876987946223    0.2389305783690305    
  0.23820430485481764    0.2399253649764531    0.2382043213541319    0.2335369944638119    0.2265519621366078    
  0.21867294679543997    0.21238916732762472    0.20995533904089406    0.21238919044870536    0.21867296394680505    
  0.22655199913756116    0.23353700725094453    0.23820432523189822    0.2399253649764531    0.20986147255399779    
  0.20995535298305879    0.21046492342961817    0.21086710821860366    0.21046490782848645    0.2099553741747178    
  0.2098614652125064    0.2099553631235796    0.2104649240617016    0.2108671333443703    0.21046494525379517    
  0.20995535425575867    0.20986147255399779    0.20995536369022846    0.21238916497075078    0.21867299107537003    
  0.2265519733363358    0.23353695233546162    0.23820437547779572    0.23992539050544756    0.2382043384467466    
  0.23353695013118078    0.22655199260486247    0.21867296146526258    0.21238916639447622    0.20995536369022846    
  0.21046492307772768    0.2186730021883384    0.24097291158736256    0.27175477387478525    0.30149544957428187    
  0.32046259594824233    0.32646492185930703    0.3204625537229364    0.30149545486694085    0.27175477104466605    
  0.24097291654288341    0.21867297755839596    0.21046492307772768    0.21086714380180233    0.22655200272176917    
  0.2717547547191403    0.33562415359928005    0.38723362453825005    0.39949583411452266    0.3950586159606388    
  0.39949586833826484    0.387233686545862    0.33562411794711994    0.2717547728971011    0.2265519788833769    
  0.21086714380180233    0.21046491538861892    0.23353699082987034    0.30149547863305914    0.38723367168764944    
  0.4048104477108796    0.328706026404905    0.28109170348664836    0.32870596671578195    0.4048104072210822    
  0.38723365502004226    0.3014955030231082    0.2335369595999082    0.21046491538861892    0.2099553387202421    
  0.23820436545668947    0.3204625513756567    0.39949586611793036    0.32870594924614    0.1675206438383128    
  0.10690834549576535    0.16752064881034623    0.3287059902966221    0.39949590231209375    0.3204625563778433    
  0.2382043408020873    0.2099553387202421    0.2098614625686423    0.23992537830401658    0.32646494607380533    
  0.39505861105752543    0.2810916856640717    0.10690836840590005    0.0554308761211786    0.10690834788736238    
  0.2810916614222103    0.39505861035014256    0.3264649668315531    0.23992539006725658    0.2098614625686423    
  0.2099553368215033    0.23820433726402593    0.32046259183217296    0.3994958570673472    0.3287059729076396    
  0.1675206503471269    0.10690834001830311    0.1675206214142066    0.32870598465512496    0.39949585655094805    
  0.32046258186916915    0.238204306619999    0.2099553368215033    0.2104649187573775    0.2335370074221403    
  0.3014954762125067    0.38723364205291916    0.4048103981235168    0.3287060443208175    0.2810916985021585    
  0.32870599918355836    0.40481040217040043    0.38723365220587247    0.30149546673995037    0.2335369855412732    
  0.2104649187573775    0.2108671161626738    0.2265519939479243    0.2717547817537467    0.3356241190061718    
  0.3872336442130619    0.3994958550397721    0.39505860674139004    0.39949583007271905    0.38723368415228304    
  0.3356241441094047    0.27175477799918785    0.2265519896147189    0.2108671161626738    0.21046492946047304    
  0.2186729452845524    0.24097293722753899    0.2717547596444397    0.3014954501302356    0.3204625833079311    
  0.3264649575901918    0.3204625646346112    0.3014954733879867    0.2717547854472842    0.24097293511697407    
  0.21867295886915228    0.21046492946047304    0.20995533141069592    0.21238921160274057    0.21867294639627946    
  0.2265519766612935    0.23353699101459288    0.23820433813068614    0.23992535410366142    0.2382043327644144    
  0.23353693190485567    0.22655198630329434    0.2186729729853741    0.21238917204573132    0.20995533141069592    
  0.20986147255399779    0.20995535298305879    0.21046492342961817    0.21086710821860366    0.21046490782848645    
  0.2099553741747178    0.2098614652125064    0.2099553631235796    0.2104649240617016    0.2108671333443703    
  0.21046494525379517    0.20995535425575867    0.20986147255399779    0.2399253724901695    0.2382043348981651    
  0.23353698998750574    0.2265519544185699    0.218672961201122    0.2123891671105852    0.2099553611138652    
  0.21238918902859985    0.21867298063795462    0.2265520013859555    0.23353699210020276    0.23820432705109532    
  0.2399253724901695    0.23820429763125708    0.23893055055299656    0.2402488061207567    0.24084045106941485    
  0.24024873811592104    0.2389306220412017    0.23820432334073188    0.23893055955182793    0.24024876384104096    
  0.24084043385823958    0.2402487711547088    0.23893057305280446    0.23820429763125708    0.2335369585022246    
  0.2402487981921833    0.25796991003341146    0.2815812037946193    0.3035984509374413    0.31671729299875584    
  0.3204625478976423    0.31671730874284937    0.303598456658736    0.2815812141822407    0.25796994626198955    
  0.24024878698596483    0.2335369585022246    0.22655199007892599    0.24084044633415555    0.28158120450568747    
  0.33865106420737673    0.3862027354802057    0.40115529328173627    0.39949584000751187    0.4011553059184342    
  0.386202759469132    0.33865104764508025    0.28158125335005574    0.24084044080412942    0.22655199007892599    
  0.21867295866138303    0.24024877204908318    0.303598488015737    0.3862027569921707    0.4175309681562111    
  0.36655348672975324    0.328706010186798    0.3665534012987805    0.41753095245881944    0.3862027464292777    
  0.3035984781018579    0.24024874615272138    0.21867295866138303    0.21238914217214336    0.23893058674242787    
  0.31671724721527633    0.40115530181702475    0.36655338702387824    0.22956003936750843    0.16752061735314272    
  0.22956009304952454    0.3665534350340474    0.4011553328428354    0.3167172576843624    0.23893056142140653    
  0.21238914217214336    0.2099553439401602    0.23820434962440698    0.32046256283128277    0.3994958490223297    
  0.32870603161589057    0.1675206570375605    0.10690832961968949    0.16752062877948723    0.32870601143786765    