#     DFTpy    
  CRYSTAL 
    
  PRIMVEC    
  2.535931034482759    0.0    0.0    
  0.0    2.535931034482759    0.0    
  0.0    0.0    2.535931034482759    
  PRIMCOORD    
  2    1    
  Si    0.0    0.0    0.0    
  Si    1.2679655172413795    1.2679655172413795    1.2679655172413795    
  BEGIN_BLOCK_DATAGRID_3D    
  3d_datagrid_density    
  BEGIN_DATAGRID_3D#0    
  11    11    11    
  0.0    0.0    0.0    
  2.535931034482759    0.0    0.0    
  0.0    2.535931034482759    0.0    
  0.0    0.0    2.535931034482759    
  0.0550777076604373    0.11372370582439859    0.3285987123184293    0.5037912234057037    0.4835059861956622    
  0.4490728204244841    0.4835060172530206    0.5037911470102954    0.32859878940633463    0.11372366202793205    
  0.0550777076604373    0.11372370683927692    0.18670889109672278    0.3955504931322348    0.5238409552890289    
  0.48764881155007467    0.45346292330784904    0.48764874231734034    0.5238410192691615    0.39555047275845273    
  0.18670885592882183    0.11372370683927692    0.3285987920540046    0.39555042720915506    0.5190682767854828    
  0.5438888550314915    0.4892183254059298    0.4594256244484668    0.4892182603875908    0.5438888505885087    
  0.5190681924858205    0.3955504215192135    0.3285987920540046    0.5037911766044159    0.5238409840598494    
  0.5438888629607763    0.5201161427965492    0.47829907215918416    0.45942683250449384    0.4782989978855452    
  0.5201161453443129    0.5438888610895806    0.5238410644875107    0.5037911766044159    0.4835060245467061    
  0.4876488320014028    0.48921826615086317    0.4782989879245228    0.46172524564673134    0.4534617211339103    
  0.46172516050132834    0.4782990480710602    0.48921827825224057    0.4876486739521309    0.4835060245467061    
  0.4490728758080537    0.45346295195702074    0.45942550809394794    0.4594268614008331    0.4534616935623532    
  0.44907410202333814    0.4534617548587812    0.459426801826444    0.45942559360480617    0.45346294180671937    
  0.4490728758080537    0.48350613467517656    0.4876486856695084    0.4892182509406069    0.47829905237133247    
  0.46172518768239    0.4534617670250284    0.46172516415562265    0.47829909982330376    0.4892182120179251    
  0.4876487642767617    0.48350613467517656    0.5037911857766454    0.5238409604949243    0.5438888115264783    
  0.5201161606277168    0.47829906287301505    0.45942681579333317    0.47829901290012916    0.520116084680173    
  0.5438888669270772    0.5238410226640898    0.5037911857766454    0.32859878402021553    0.395550491197726    
  0.5190682198549996    0.543888834962696    0.48921824621886995    0.4594256546672183    0.48921826083818915    
  0.543888797797577    0.5190682538684135    0.39555050251043067    0.32859878402021553    0.11372367887882473    
  0.18670889008408653    0.3955504308064857    0.5238408834072024    0.48764876429501186    0.4534629232418925    
  0.4876487403451464    0.523841011867574    0.39555041273695224    0.18670883222491647    0.11372367887882473    
  0.0550777076604373    0.11372370582439859    0.3285987123184293    0.5037912234057037    0.4835059861956622    
  0.4490728204244841    0.4835060172530206    0.5037911470102954    0.32859878940633463    0.11372366202793205    
  0.0550777076604373    0.11372367568846968    0.18670888317687803    0.39555044187795635    0.523841005607838    
  0.4876487831084649    0.45346299026238474    0.4876488450091343    0.5238408844745892    0.3955504925160986    
  0.18670883991387785    0.11372367568846968    0.18670889890932474    0.26532131445560936    0.4534765620314621    
  0.5408936236524757    0.49471565594809036    0.4617239636573337    0.49471560788943025    0.5408937518600627    
  0.4534764992801488    0.265321321641342    0.18670889890932474    0.3955504894464839    0.4534765077911438    
  0.5512312330067004    0.5594551666983114    0.5055782736333941    0.47830029491778825    0.5055781207633877    
  0.5594552808978833    0.5512311894701148    0.45347653893665674    0.3955504894464839    0.5238410020646557    
  0.5408936773859074    0.5594552226652342    0.5411722897658154    0.5055794766992289    0.4892169896536525    
  0.50557947474347    0.5411722648071365    0.5594552948185234    0.5408937796065997    0.5238410020646557    
  0.4876487372301265    0.4947157165978806    0.5055781684822207    0.5055793869828804    0.49471441808741706    
  0.4876500553882543    0.4947143268124442    0.5055794512694767    0.5055781571849257    0.49471556035021685    
  0.4876487372301265    0.45346297577969663    0.4617240271502104    0.47830025329631065    0.48921699858375195    
  0.4876500474257332    0.4835047425214758    0.48765010251910246    0.4892168982726753    0.47830026611189796    
  0.4617239347790138    0.45346297577969663    0.4876487526168809    0.49471566064151956    0.5055782214282808    
  0.5055794109994561    0.49471439817088897    0.487650059386939    0.4947143963868398    0.5055794429482405    
  0.5055780808069187    0.49471570126772163    0.4876487526168809    0.5238410272977476    0.5408936739720307    
  0.5594552383428588    0.5411723236387908    0.5055795017878635    0.48921700924647304    0.5055794391327976    
  0.5411722853985641    0.5594552715795774    0.5408937454926117    0.5238410272977476    0.395550420927627    
  0.4534765540190969    0.5512311997398558    0.559455318378943    0.5055781362824768    0.4783003091882369    
  0.5055781391748819    0.5594552028578468    0.5512312253313486    0.4534765518934586    0.395550420927627    
  0.1867088633214579    0.2653213393055674    0.453476537886761    0.540893701706189    0.4947156358899336    
  0.461723950144774    0.49471567046856063    0.5408937593361748    0.45347648433996324    0.2653212888753021    
  0.1867088633214579    0.11372367568846968    0.18670888317687803    0.39555044187795635    0.523841005607838    
  0.4876487831084649    0.45346299026238474    0.4876488450091343    0.5238408844745892    0.3955504925160986    
  0.18670883991387785    0.11372367568846968    0.32859877567937557    0.39555052612917896    0.5190681843708601    
  0.5438889824209929    0.48921815487592674    0.45942563884601123    0.48921835748653975    0.543888771566699    
  0.5190683101306829    0.39555046896392954    0.32859877567937557    0.39555048202692983    0.4534765285844218    
  0.5512313030092493    0.5594552533091381    0.5055781917274985    0.4783003448703364    0.5055781450309109    
  0.559455368845228    0.5512312186309003    0.45347655378067214    0.39555048202692983    0.5190682338388591    
  0.5512313023363519    0.597351395646816    0.5860105411349577    0.5411736764993225    0.5201148746001982    
  0.5411735754433469    0.5860106213887935    0.5973513950378189    0.5512312379300291    0.5190682338388591    
  0.543888900360291    0.5594552348940288    0.5860105342132786    0.5860120049407551    0.5594539751144548    
  0.5438902358976399    0.5594539536812747    0.5860118291579767    0.5860106962894936    0.5594553437646145    
  0.543888900360291    0.4892182458727619    0.505578176839428    0.5411737096493069    0.559453936385934    
  0.5408950835911828    0.523839757415614    0.5408949786491181    0.5594539229537027    0.5411736340825026    
  0.5055781842464878    0.4892182458727619    0.45942560253601433    0.47830030547916297    0.5201147986410943    
  0.5438900845041909    0.5238395999021375    0.5037924567923772    0.5238397538713793    0.5438901834039594    
  0.5201147976978124    0.47830026866936004    0.45942560253601433    0.4892182515496801    0.5055781614941021    
  0.541173689649579    0.5594539482640953    0.5408949355652324    0.5238397602638561    0.5408949967128293    
  0.5594540124342313    0.5411736065325665    0.5055781831147254    0.4892182515496801    0.5438889135163495    
  0.5594552534321984    0.5860105080121323    0.5860119660325255    0.5594539622245659    0.5438902017853142    
  0.559453953125679    0.5860119460602998    0.5860105967968733    0.5594552527952259    0.5438889135163495    
  0.519068258548002    0.5512313083376926    0.5973514235606117    0.5860105561959624    0.5411737145869311    
  0.5201149074811462    0.5411736469174359    0.5860105581848102    0.5973514835193462    0.55123130947322    
  0.519068258548002    0.3955504844885423    0.4534765834645046    0.5512312277308631    0.5594552625180174    
  0.5055781362174597    0.47830028313462497    0.5055781449181149    0.5594552840302376    0.5512311965163207    
  0.45347648893153963    0.3955504844885423    0.32859877567937557    0.39555052612917896    0.5190681843708601    
  0.5438889824209929    0.48921815487592674    0.45942563884601123    0.48921835748653975    0.543888771566699    
  0.5190683101306829    0.39555046896392954    0.32859877567937557    0.5037911459707042    0.5238409785180138    
  0.543888829085526    0.5201162377666527    0.4782989547705795    0.4594268456791083    0.47829914954492697    
  0.5201160411197163    0.5438888467995946    0.5238408813735903    0.5037911459707042    0.523841022443863    
  0.5408937247906467    0.559455324943877    0.541172332648564    0.5055794342650423    0.48921704061298    
  0.5055793522962523    0.5411724069514852    0.5594552483867606    0.5408937396744258    0.523841022443863    
  0.5438888749945946    0.5594553185217465    0.5860106007939175    0.5860118637026612    0.5594540338689251    
  0.5438902277531887    0.559453951202635    0.5860119132858439    0.5860105659791985    0.5594552673953964    
  0.5438888749945946    0.5201162106351412    0.5411723049572281    0.5860118965589305    0.5973501303291904    
  0.5512325261638411    0.5190670531940729    0.5512324937018462    0.5973500160579363    0.586011995898082    
  0.5411724027543001    0.5201162106351412    0.47829904843692816    0.505579454189815    0.5594539866087671    
  0.5512325219298332    0.4534753567518761    0.39555171951499596    0.4534752756901185    0.551232538998766    
  0.5594539030143024    0.5055793943120881    0.47829904843692816    0.4594268574279766    0.4892169890501466    
  0.54389014670928    0.5190669304686505    0.395551603230269    0.3285976771176673    0.39555166207736436    
  0.519066926645934    0.5438900698978217    0.4892170730275848    0.4594268574279766    0.4782990240269443    
  0.5055794038861737    0.5594540720828595    0.5512324936906238    0.45347526711481134    0.39555167657181345    
  0.45347525877982947    0.5512326227909363    0.559453958538175    0.5055794830126163    0.4782990240269443    
  0.5201162040039952    0.5411722732868035    0.5860119079443361    0.597350125311608    0.5512325435941502    
  0.5190670364487294    0.5512324992260886    0.5973501250594571    0.5860119769695007    0.5411723591067261    
  0.5201162040039952    0.5438888786322505    0.5594553210199014    0.5860105838560256    0.5860118819219101    
  0.5594540041721403    0.5438902363243724    0.5594539163602817    0.5860118754011764    0.5860106608933213    
  0.5594553381132452    0.5438888786322505    0.5238409544533896    0.5408937653346383    0.5594552606959723    
  0.5411723584055788    0.5055794243509706    0.4892170097286763    0.5055794388101592    0.5411723588423317    
  0.559455245789796    0.540893631368831    0.5238409544533896    0.5037911459707042    0.5238409785180138    
  0.543888829085526    0.5201162377666527    0.4782989547705795    0.4594268456791083    0.47829914954492697    
  0.5201160411197163    0.5438888467995946    0.5238408813735903    0.5037911459707042    0.4835060077362154    
  0.487648802809578    0.48921814605344277    0.47829914736323115    0.4617251979076323    0.45346168249751756    
  0.4617253082681158    0.47829902525287465    0.48921829739693323    0.4876487091133063    0.4835060077362154    
  0.4876488434834573    0.4947156515346807    0.5055781885344368    0.5055793644334199    0.49471438491835235    
  0.4876500350444723    0.4947143624583923    0.5055794298974771    0.5055781801958716    0.4947156298700832    
  0.4876488434834573    0.4892182671613178    0.5055781098858578    0.5411735954317936    0.5594539199967868    
  0.5408950544345528    0.5238397018499673    0.5408949790179962    0.559453949503021    0.541173597347784    
  0.5055781316414496    0.4892182671613178    0.47829906879518386    0.5055793691617247    0.5594538861909869    
  0.5512325071850869    0.4534753478305589    0.395551623251841    0.45347531100193983    0.5512325278068319    
  0.5594540322755682    0.5055795083381096    0.47829906879518386    0.46172518205073143    0.4947144650976066    
  0.540894984666522    0.4534752140947183    0.265322368213941    0.18670799266241414    0.2653222940626095    
  0.45347528962647415    0.5408949631753568    0.494714338513993    0.46172518205073143    0.4534617053116074    
  0.4876500952955243    0.5238397112930109    0.39555157741737496    0.18670796270312137    0.11372441784797094    
  0.18670800845830104    0.3955515487894659    0.5238396464688958    0.48764999456803076    0.4534617053116074    
  0.46172522730373683    0.49471434529296404    0.5408951454530283    0.4534752880934414    0.2653223156005315    
  0.18670799906191787    0.26532231350127417    0.45347536651482034    0.5408949769383627    0.4947144482401561    
  0.46172522730373683    0.4782990387149682    0.5055794371262552    0.5594539387814536    0.5512325885551266    
  0.4534753714645043    0.3955516578993535    0.4534752896380693    0.5512325352704203    0.5594540111218318    
  0.5055794461297267    0.4782990387149682    0.4892182086061886    0.5055781700840075    0.5411735362656055    
  0.5594539422760708    0.5408950294466565    0.5238397121911134    0.5408950418580954    0.5594538979007938    
  0.5411736121981133    0.5055782102595701    0.4892182086061886    0.48764876825784914    0.49471570116440233    
  0.5055781648091517    0.5055794228188265    0.49471438195908357    0.48765002800508006    0.49471439743469586    
  0.5055794516850137    0.5055781085219128    0.4947156330457587    0.48764876825784914    0.4835060077362154    
  0.487648802809578    0.48921814605344277    0.47829914736323115    0.4617251979076323    0.45346168249751756    
  0.4617253082681158    0.47829902525287465    0.48921829739693323    0.4876487091133063    0.4835060077362154    
  0.44907284391623914    0.45346297247628403    0.45942551764070333    0.45942688825740574    0.45346169940663716    
  0.44907407329284327    0.4534617196743414    0.4594267936377377    0.4594256113711161    0.45346292189610343    
  0.44907284391623914    0.4534630202402511    0.4617240187512507    0.47830033007065903    0.4892169580901958    
  0.4876500942491182    0.48350468807877484    0.48765000767297856    0.4892170383715577    0.47830029531772794    
  0.46172395381771303    0.4534630202402511    0.45942561891086936    0.47830024755100375    0.5201149062900606    
  0.5438901588002747    0.5238397633730174    0.503792477730547    0.5238396836653733    0.5438901717329121    
  0.520114847007708    0.47830023825626894    0.45942561891086936    0.4594268184239524    0.4892169707636011    
  0.5438901760110907    0.5190669542436626    0.3955516541609682    0.32859770808941713    0.39555158726743195    
  0.5190669482544608    0.5438901622127695    0.4892170548947756    0.4594268184239524    0.4534617083667999    
  0.48765010835392997    0.5238397193468468    0.39555159136490686    0.18670799018259465    0.11372441980554544    
  0.18670794233495652    0.39555163335512983    0.523839720316048    0.4876499425075253    0.4534617083667999    
  0.44907409908855367    0.4835047443297314    0.5037923418251352    0.32859772392687453    0.11372441287279386    
  0.05507714500815255    0.11372443708823797    0.328597664204796    0.5037924723517385    0.48350471660238176    
  0.44907409908855367    0.45346181629963145    0.4876499604784647    0.5238396786269371    0.3955516288286907    
  0.18670796077659169    0.11372444153556739    0.18670793817330428    0.3955516826468453    0.5238396432699044    
  0.48765004593785943    0.45346181629963145    0.4594268334145878    0.48921697759244426    0.5438901298674486    
  0.5190669862616926    0.3955516527362463    0.3285976854231037    0.39555159420864494    0.5190668927952596    
  0.5438901698619186    0.48921701103516185    0.4594268334145878    0.45942562239915546    0.47830030474306384    
  0.5201148462733318    0.5438901412245702    0.523839677379859    0.5037925082561331    0.5238396766852544    
  0.5438901006270239    0.520114886314938    0.47830033142783346    0.45942562239915546    0.4534629587370851    
  0.4617240069490239    0.478300263019157    0.4892169024795586    0.48765002345438746    0.48350471064607076    
  0.48765002259090223    0.48921703749099055    0.4783002424285689    0.4617239306266783    0.4534629587370851    
  0.44907284391623914    0.45346297247628403    0.45942551764070333    0.45942688825740574    0.45346169940663716    
  0.44907407329284327    0.4534617196743414    0.4594267936377377    0.4594256113711161    0.45346292189610343    
  0.44907284391623914    0.48350603168511547    0.48764880925233445    0.4892182280928043    0.47829906411350676    
  0.4617252348221166    0.4534617575716487    0.46172529346467817    0.47829893994487116    0.4892182745420472    
  0.4876487213306237    0.48350603168511547    0.48764885057873003    0.49471565509924664    0.5055782015289396    
  0.5055793499504575    0.4947143965840457    0.48765001102288225    0.49471432584808817    0.5055794693314503    
  0.5055781379743937    0.494715645456364    0.48764885057873003    0.48921827111817706    0.5055781601075066    
  0.5411736163667541    0.5594538551877914    0.5408951221830458    0.5238396850626927    0.5408949586869451    
  0.5594539724726393    0.5411735897938773    0.5055781775021522    0.48921827111817706    0.47829905378064796    
  0.5055794058326205    0.5594538997583994    0.5512324893695136    0.45347533473739776    0.3955516433258354    
  0.45347534105102216    0.5512324618486211    0.5594539839202963    0.5055795055604629    0.47829905378064796    
  0.4617251699960093    0.4947144659680172    0.5408950133848054    0.45347524302126196    0.2653223534254418    
  0.1867079929491516    0.2653222723154995    0.453475345022544    0.5408950201643988    0.49471430988690546    
  0.4617251699960093    0.45346174565149355    0.4876501088133427    0.5238396524224661    0.3955516208764396    
  0.18670796644471815    0.1137244131244427    0.18670800280642516    0.3955515552579851    0.5238396722927318    
  0.48765001235997746    0.45346174565149355    0.4617251954610345    0.4947143848391872    0.5408950741087787    
  0.45347528009949845    0.2653223300101606    0.18670798974431763    0.2653223239014153    0.4534752850724276    
  0.5408949241404492    0.49471443786768055    0.4617251954610345    0.4782990832035001    0.5055793834638668    
  0.5594539298340484    0.5512325292188998    0.4534753871087973    0.39555166773666817    0.4534753198032    
  0.5512324909386713    0.5594539628970665    0.5055794424105897    0.4782990832035001    0.4892181986579359    
  0.5055781944040801    0.54117357564817    0.5594540008804928    0.5408950005922286    0.5238397031702767    
  0.5408950033183964    0.559453880167669    0.5411736035683128    0.5055781591360702    0.4892181986579359    
  0.4876487626267051    0.4947156806978805    0.5055781887562147    0.5055794161562149    0.49471435753106563    
  0.4876500016782909    0.49471440124185634    0.5055794954431796    0.5055781457850249    0.4947156128399526    
  0.4876487626267051    0.48350603168511547    0.48764880925233445    0.4892182280928043    0.47829906411350676    
  0.4617252348221166    0.4534617575716487    0.46172529346467817    0.47829893994487116    0.4892182745420472    
  0.4876487213306237    0.48350603168511547    0.503791161371735    0.5238410541628133    0.5438887900029087    
  0.5201162607472207    0.4782989471431834    0.4594268583768032    0.4782991388611858    0.5201160622696367    
  0.5438889285065006    0.523840961437519    0.503791161371735    0.5238409781390275    0.5408937266570008    
  0.5594553282128836    0.5411723382360847    0.5055794630724485    0.48921704414671013    0.5055794041733723    
  0.5411724205976783    0.5594552383542478    0.5408937420310678    0.5238409781390275    0.5438888425987025    
  0.5594553120039357    0.5860105522398363    0.5860118576273898    0.5594539968635396    0.5438901620023283    
  0.559453942889091    0.5860119553449958    0.586010552298361    0.5594552559599201    0.5438888425987025    
  0.5201161921187245    0.5411723382474345    0.5860118767780701    0.5973501877991718    0.5512325550034984    
  0.5190670075253161    0.5512325595321658    0.5973500242451726    0.5860120449030499    0.5411724159841168    
  0.5201161921187245    0.47829904422826497    0.5055794511834292    0.5594540187508809    0.5512325329588676    
  0.4534753591799985    0.3955517035937631    0.4534752744782593    0.5512325039873731    0.5594539408488642    
  0.505579471174807    0.47829904422826497    0.4594268118724771    0.48921701004022505    0.5438900816737483    
  0.5190668847877017    0.395551569204162    0.32859767327719097    0.3955516880011655    0.5190669678046834    
  0.5438900925437693    0.48921696784371516    0.4594268118724771    0.47829907088270324    0.5055794177785822    
  0.5594540248209728    0.5512325370838228    0.4534752414224374    0.39555168512777295    0.4534752881288348    
  0.5512326070796932    0.5594539313499286    0.5055794785345968    0.47829907088270324    0.5201162064103926    
  0.541172305093375    0.586011852793046    0.5973501355984326    0.5512325806019367    0.5190670083704847    
  0.5512325100525074    0.5973501227832455    0.5860119333606703    0.5411723225544883    0.5201162064103926    
  0.5438888927051819    0.5594553452816634    0.5860105563280736    0.5860118783080451    0.5594540266116657    
  0.5438901931954334    0.5594539708046082    0.5860118989857988    0.5860106276263882    0.5594553186236264    
  0.5438888927051819    0.5238409858072699    0.5408937968695093    0.5594552672773007    0.5411723320490884    
  0.505579408368332    0.48921697510889445    0.5055794309753502    0.5411723414426289    0.5594552227405769    
  0.5408936837198784    0.5238409858072699    0.503791161371735    0.5238410541628133    0.5438887900029087    
  0.5201162607472207    0.4782989471431834    0.4594268583768032    0.4782991388611858    0.5201160622696367    
  0.5438889285065006    0.523840961437519    0.503791161371735    0.328598773869934    0.3955504760636485    
  0.519068196990827    0.5438889563630883    0.4892181556962818    0.45942560172249924    0.4892183345246369    
  0.5438887577005624    0.5190682329658614    0.39555037996730796    0.328598773869934    0.39555049200974257    
  0.4534765569432487    0.5512313308420101    0.5594552519510634    0.5055781862138778    0.478300347157409    
  0.5055781033551878    0.5594553344895447    0.5512312440889295    0.4534765313837694    0.39555049200974257    
  0.5190682471103112    0.5512313056878171    0.597351430266539    0.5860105681219276    0.5411737144608937    
  0.5201149009750619    0.5411736257009856    0.5860105594443534    0.5973514301127432    0.5512312926087917    
  0.5190682471103112    0.5438888917265792    0.5594552323792877    0.5860105594181597    0.5860119662019189    
  0.5594539278649021    0.5438902414056362    0.5594538852956069    0.5860118580837758    0.5860106929011399    
  0.5594553052392467    0.5438888917265792    0.48921824821666093    0.5055781783677153    0.5411736689800736    
  0.559453928053194    0.5408950802138495    0.5238397651957267    0.5408949948634657    0.5594539638580235    
  0.5411735943675021    0.5055781307292441    0.48921824821666093    0.4594256285067085    0.47830027450829166    
  0.5201148499761149    0.543890128579176    0.5238396362268054    0.5037924597340318    0.5238397094376486    
  0.5438901407930048    0.5201147910459739    0.47830036667416975    0.4594256285067085    0.48921823015794846    
  0.5055781443306736    0.5411737518553377    0.5594539008560544    0.5408949950650643    0.5238397549797489    
  0.5408949651419056    0.5594540302229798    0.541173616246349    0.5055782143561515    0.48921823015794846    
  0.5438888976598388    0.5594552203305222    0.5860105445533811    0.5860119498341528    0.5594539266698281    
  0.5438902507281244    0.5594538682411829    0.586011920892067    0.58601062209213    0.5594552949914523    
  0.5438888976598388    0.5190682776509213    0.5512313167697809    0.5973514254898377    0.5860105311650881    
  0.5411737007854814    0.5201149333082488    0.5411735984980931    0.5860105176795819    0.597351505674927    
  0.5512313008139937    0.5190682776509213    0.3955504410648115    0.4534765788711421    0.5512312305834635    
  0.559455271242406    0.505578162762274    0.47830029628739595    0.5055781524069762    0.5594552872695409    
  0.5512311977996536    0.4534764672757879    0.3955504410648115    0.328598773869934    0.3955504760636485    
  0.519068196990827    0.5438889563630883    0.4892181556962818    0.45942560172249924    0.4892183345246369    
  0.5438887577005624    0.5190682329658614    0.39555037996730796    0.328598773869934    0.11372368377279793    
  0.18670889370395452    0.39555039492809585    0.5238410799224297    0.48764873448479396    0.4534629191797831    
  0.4876488661504578    0.5238409516992062    0.3955505209869987    0.1867088292355115    0.11372368377279793    
  0.18670890413577032    0.265321312970065    0.45347654802634996    0.5408936460331458    0.49471564853091127    
  0.4617239749110928    0.4947156122940394    0.5408937250557835    0.4534765381604698    0.2653213189203126    
  0.18670890413577032    0.39555047647225106    0.4534764865106824    0.5512312134790429    0.5594552112344252    
  0.5055782159169916    0.4783003068977442    0.5055781194688391    0.5594552643181818    0.5512312150984305    
  0.4534765118411526    0.39555047647225106    0.5238410120322463    0.5408936570942137    0.5594551817278969    
  0.5411722874815461    0.5055794622907102    0.4892170027470818    0.5055794262501933    0.5411723195265851    
  0.5594553569089822    0.5408937726084407    0.5238410120322463    0.4876487453012641    0.49471573336227626    
  0.5055781242880538    0.5055793391828023    0.49471448004390955    0.48765003455793166    0.4947143331246952    
  0.505579420709907    0.505578098846497    0.4947155910528045    0.4876487453012641    0.453462948098669    
  0.4617240310592139    0.47830031066015766    0.48921694658849363    0.48765000505614226    0.48350477424866833    
  0.48765010780520507    0.4892169020227069    0.47830025455344455    0.46172393054559646    0.453462948098669    
  0.4876487813512652    0.4947156179274992    0.5055782715815288    0.5055794143285076    0.4947143908025555    
  0.4876500882634783    0.49471438039471954    0.5055794949796939    0.5055780991233256    0.4947157114540785    
  0.4876487813512652    0.5238409796665614    0.5408937391903637    0.5594552405482918    0.541172387974553    
  0.5055795254440183    0.4892170050933766    0.5055794126008472    0.5411723181192685    0.5594553348515309    
  0.5408937080287131    0.5238409796665614    0.3955504438245756    0.4534765533506576    0.5512311460392962    
  0.5594552516300318    0.5055781553095551    0.47830030326938655    0.5055781741144086    0.5594552316127119    
  0.5512312316781864    0.4534765700076222    0.3955504438245756    0.18670886619304017    0.26532135300683896    
  0.4534765126966629    0.5408937020725837    0.4947156975256881    0.4617239906206274    0.4947156772001814    
  0.5408937542221146    0.4534764716595941    0.26532129046824227    0.18670886619304017    0.11372368377279793    
  0.18670889370395452    0.39555039492809585    0.5238410799224297    0.48764873448479396    0.4534629191797831    
  0.4876488661504578    0.5238409516992062    0.3955505209869987    0.1867088292355115    0.11372368377279793    
  0.0550777076604373    0.11372370582439859    0.3285987123184293    0.5037912234057037    0.4835059861956622    
  0.4490728204244841    0.4835060172530206    0.5037911470102954    0.32859878940633463    0.11372366202793205    
  0.0550777076604373    0.11372370683927692    0.18670889109672278    0.3955504931322348    0.5238409552890289    
  0.48764881155007467    0.45346292330784904    0.48764874231734034    0.5238410192691615    0.39555047275845273    
  0.18670885592882183    0.11372370683927692    0.3285987920540046    0.39555042720915506    0.5190682767854828    
  0.5438888550314915    0.4892183254059298    0.4594256244484668    0.4892182603875908    0.5438888505885087    
  0.5190681924858205    0.3955504215192135    0.3285987920540046    0.5037911766044159    0.5238409840598494    
  0.5438888629607763    0.5201161427965492    0.47829907215918416    0.45942683250449384    0.4782989978855452    
  0.5201161453443129    0.5438888610895806    0.5238410644875107    0.5037911766044159    0.4835060245467061    
  0.4876488320014028    0.48921826615086317    0.4782989879245228    0.46172524564673134    0.4534617211339103    
  0.46172516050132834    0.4782990480710602    0.48921827825224057    0.4876486739521309    0.4835060245467061    
  0.4490728758080537    0.45346295195702074    0.45942550809394794    0.4594268614008331    0.4534616935623532    
  0.44907410202333814    0.4534617548587812    0.459426801826444    0.45942559360480617    0.45346294180671937    
  0.4490728758080537    0.48350613467517656    0.4876486856695084    0.4892182509406069    0.47829905237133247    
  0.46172518768239    0.4534617670250284    0.46172516415562265    0.47829909982330376    0.4892182120179251    
  0.4876487642767617    0.48350613467517656    0.5037911857766454    0.5238409604949243    0.5438888115264783    