#     DFTpy    
  CRYSTAL 
    
  PRIMVEC    
  4.905724137931034    0.0    0.0    
  0.0    4.905724137931034    0.0    
  0.0    0.0    4.905724137931034    
  PRIMCOORD    
  8    1    
  Si    0.0    0.0    0.0    
  Si    1.2264310344827585    1.2264310344827585    1.2264310344827585    
  Si    0.0    2.452862068965517    2.452862068965517    
  Si    1.2264310344827585    3.679293103448275    3.679293103448275    
  Si    2.452862068965517    0.0    2.452862068965517    
  Si    3.679293103448275    1.2264310344827585    3.679293103448275    
  Si    2.452862068965517    2.452862068965517    0.0    
  Si    3.679293103448275    3.679293103448275    1.2264310344827585    
  BEGIN_BLOCK_DATAGRID_3D    
  3d_datagrid_density    
  BEGIN_DATAGRID_3D#0    
  21    21    21    
  0.0    0.0    0.0    
  4.905724137931034    0.0    0.0    
  0.0    4.905724137931034    0.0    
  0.0    0.0    4.905724137931034    
  0.05180606187954831    0.10249244668672693    0.2871596553670673    0.4364283539375366    0.37659750660713204    
  0.2560229370706416    0.16861675941830706    0.11724230786114728    0.08965844214855725    0.07658929273714103    
  0.07267844376710562    0.07658929665461876    0.08965846105925822    0.11724232355219026    0.1686167431227406    
  0.25602290993230237    0.3765975227279949    0.4364284012160031    0.2871596626558666    0.10249246812216842    
  0.05180606187954831    0.10249244442779729    0.16460869351767418    0.3440858129637194    0.4507648468968702    
  0.37512105221757647    0.25713352380056215    0.17214835481409657    0.1215747732331014    0.0940253259948557    
  0.08067033032984153    0.07658929383984281    0.08067031866352325    0.09402533132367556    0.12157480920680631    
  0.17214832913260658    0.25713356504747625    0.37512108482902373    0.450764855460275    0.3440857910411832    
  0.1646087369805452    0.10249244442779729    0.28715959367013333    0.34408580063379685    0.44991312637134623    
  0.45824874625025874    0.3638740520990895    0.2589743209532661    0.18266833519805084    0.13511456650357428    
  0.10794590640760153    0.09402537006395707    0.08965839557691355    0.09402537236107808    0.1079459136795581    
  0.13511456965103652    0.1826683186676263    0.25897433670540787    0.36387401791249063    0.45824874251405695    
  0.44991301108502546    0.34408587948720576    0.28715959367013333    0.4364283200348631    0.4507648352073944    
  0.4582487445178436    0.41437137418525    0.33598334232737104    0.25897440138595884    0.19967675126135778    
  0.15979145171681333    0.1351145279622778    0.1215747253764226    0.1172423641227881    0.12157472700948184    
  0.1351145504087489    0.15979149096986578    0.1996767245965827    0.2589743827863655    0.3359833332626179    
  0.41437135252214896    0.45824869885977626    0.4507648915992762    0.4364283200348631    0.376597462064813    
  0.3751210620378582    0.3638740360929508    0.3359833456385095    0.2969680906814009    0.2571334861985914    
  0.22396159177430344    0.19967677546146428    0.1826682811277636    0.17214848368927096    0.1686166018262464    
  0.17214847560948626    0.18266822690663018    0.19967680870050372    0.22396161178850316    0.25713349381698275    
  0.29696814806274857    0.33598334798780743    0.3638740418679539    0.37512112831600014    0.376597462064813    
  0.2560228919966555    0.2571335363854102    0.2589743257384456    0.25897441799695664    0.2571334806529295    
  0.25602294845126955    0.2571335214080209    0.2589742359081305    0.25897448499510584    0.2571333249242412    
  0.2560231476825944    0.25713336222723315    0.2589744704254145    0.2589742710206414    0.2571335603858252    
  0.256022974267772    0.2571335049359069    0.25897439016917123    0.25897434954108245    0.2571335837112389    
  0.2560228919966555    0.16861672535066408    0.17214832104388236    0.1826683917954686    0.19967670921125436    
  0.22396161069329718    0.25713355130594817    0.29696798594380486    0.33598357857837247    0.36387375390876037    
  0.37512141467215904    0.376597193633424    0.3751214549507622    0.3638737416439276    0.33598360231833363    
  0.29696795446199015    0.25713357844077533    0.22396162075447248    0.1996767233987793    0.18266829985157645    
  0.17214836034406128    0.16861672535066408    0.11724228801547137    0.12157479775397519    0.1351145429173138    
  0.15979150562409608    0.19967673735978517    0.2589742966126365    0.3359835419828199    0.4143710384132039    
  0.45824907990310304    0.4507644692385331    0.43642875197098635    0.4507643992420431    0.45824906024007717    
  0.4143710447456735    0.3359835673716409    0.2589742540569075    0.1996767814341178    0.15979150515233345    
  0.13511447786003264    0.12157479629414943    0.11724228801547137    0.0896584683517151    0.09402532688485792    
  0.10794593726159335    0.13511454768454778    0.18266825911830603    0.25897450220920687    0.36387375544184924    
  0.45824908184458896    0.44991267569592736    0.3440862789980988    0.28715919664053907    0.3440862656715276    
  0.44991265125828434    0.45824921120886297    0.36387379704848816    0.2589744867915287    0.18266825532018247    
  0.13511456972953947    0.10794590870868656    0.0940253461019864    0.0896584683517151    0.07658927098910805    
  0.08067031049706647    0.09402533128945313    0.12157477034180357    0.17214841664144884    0.2571333602625506    
  0.37512133918407803    0.4507645037236378    0.3440862599355412    0.1646083538483441    0.10249276392344102    
  0.16460835150527464    0.3440862351140178    0.4507644739946444    0.37512134955184373    0.25713335281018995    
  0.17214846341089765    0.12157472352043863    0.09402535263220523    0.08067032059463894    0.07658927098910805    
  0.07267846279051646    0.07658926752482158    0.08965844990277351    0.11724238566093524    0.1686166328045927    
  0.2560231274922373    0.3765972055190878    0.43642874952969213    0.2871592178276677    0.10249277888342108    
  0.05180579660689658    0.10249276413725394    0.28715922999172583    0.43642879184141437    0.3765971410723599    
  0.2560231334072139    0.16861666164716435    0.11724238212038904    0.08965843816287317    0.07658928875758034    
  0.07267846279051646    0.07658927722994098    0.08067033452316535    0.09402533147837072    0.12157477970743748    
  0.1721484097275687    0.2571333730928956    0.3751213393362797    0.4507644202171257    0.34408625595137304    
  0.16460835519518355    0.10249277375241184    0.1646083662568797    0.34408624839774643    0.45076449763806486    
  0.3751213094371269    0.2571333787122661    0.17214843919824266    0.12157473720900697    0.09402534526487125    
  0.08067033819276356    0.07658927722994098    0.08965847007516219    0.09402528897378844    0.10794597073879729    
  0.13511453967334724    0.18266828892075132    0.25897449089322544    0.3638737556562122    0.4582490753451688    
  0.44991266647020106    0.34408623103589014    0.2871591984006429    0.3440862356213359    0.44991258760681613    
  0.4582491651246556    0.36387376395046733    0.2589744788199646    0.18266822467485402    0.13511452243234634    
  0.1079458914344504    0.09402531955738054    0.08965847007516219    0.11724228000076241    0.1215747817743201    
  0.1351144704412383    0.1597915400095402    0.19967671980127805    0.258974272112779    0.33598353354467875    
  0.4143710755704097    0.45824905219678763    0.45076445405925875    0.4364287191923906    0.4507644811179501    
  0.458249042325937    0.41437115500604477    0.33598356322797157    0.2589742748189972    0.1996767368100769    
  0.15979152194081078    0.13511450997951846    0.12157480100975454    0.11724228000076241    0.16861676662325295    
  0.17214831730996644    0.18266836841446824    0.19967670790297443    0.22396163068971464    0.25713352689195    
  0.29696798824671494    0.3359835321964481    0.3638738498310351    0.3751213767599323    0.3765971661095049    
  0.3751213947634276    0.3638737642956176    0.3359835413511457    0.2969679718367919    0.2571335376860527    
  0.22396165887063463    0.1996766909205009    0.18266840386705183    0.17214832699677504    0.16861676662325295    
  0.256022896432709    0.2571335540832413    0.2589742886305313    0.25897443693237326    0.257133458265825    
  0.2560230061475939    0.2571335220170225    0.25897429101454456    0.25897442674016014    0.25713334866245297    
  0.25602309380877286    0.2571333636616166    0.2589744796145974    0.2589743043776645    0.25713351293917636    
  0.25602298941701995    0.2571334631766014    0.25897439598993377    0.258974322109665    0.25713361150832403    
  0.256022896432709    0.3765974803418119    0.37512103096031923    0.3638740442234398    0.33598337229015857    
  0.29696814920694614    0.25713347103662754    0.22396163662507576    0.1996767625275911    0.1826682546162986    
  0.1721484674685132    0.16861663731895973    0.17214846307002413    0.18266826570978725    0.19967677991519064    
  0.22396157753850093    0.25713347205931136    0.29696816151724853    0.335983337549283    0.36387403596106777    
  0.3751210893633671    0.3765974803418119    0.4364283045364742    0.45076493515763394    0.45824871987952903    
  0.41437140570788383    0.33598336506118975    0.2589744353399095    0.19967670058742604    0.15979149751859045    
  0.13511454360376096    0.12157474208859197    0.11724234484545507    0.12157472385115223    0.13511451135975105    
  0.15979156160461103    0.19967670834405693    0.2589744189471136    0.3359833253747326    0.41437138210813723    
  0.4582486676467018    0.45076490805292907    0.4364283045364742    0.2871596576389409    0.3440857740766465    
  0.44991311042894744    0.4582487327518437    0.3638740214994281    0.25897430189669496    0.18266835616030871    
  0.1351145308482571    0.10794593405730128    0.09402535015949952    0.08965841651788682    0.09402536751252283    
  0.10794590653600171    0.1351145530764398    0.1826683562165871    0.25897433460017455    0.3638739714084066    
  0.4582487472330433    0.4499131350740615    0.34408582250803077    0.2871596576389409    0.10249243670506773    
  0.16460870412576664    0.3440858028706563    0.45076487553440736    0.37512102161167576    0.25713355829220924    
  0.17214832241519606    0.12157481477749396    0.09402531404278451    0.08067031698536335    0.07658928306081504    
  0.08067031457842412    0.09402534442772965    0.12157478287932748    0.17214831756479407    0.25713354992914406    
  0.3751210775949997    0.45076484566458647    0.34408577709799726    0.1646086899913933    0.10249243670506773    
  0.05180606187954831    0.10249244668672693    0.2871596553670673    0.4364283539375366    0.37659750660713204    
  0.2560229370706416    0.16861675941830706    0.11724230786114728    0.08965844214855725    0.07658929273714103    
  0.07267844376710562    0.07658929665461876    0.08965846105925822    0.11724232355219026    0.1686167431227406    
  0.25602290993230237    0.3765975227279949    0.4364284012160031    0.2871596626558666    0.10249246812216842    
  0.05180606187954831    0.10249245650772762    0.16460869871469422    0.3440858187028164    0.45076491630479154    
  0.37512102929353663    0.2571335292337654    0.17214832750785672    0.12157475189448388    0.09402533439239665    
  0.08067030740312366    0.07658926839621263    0.08067030524517056    0.09402534606317155    0.12157479169782649    
  0.17214834693004033    0.2571334949655215    0.3751210788870071    0.4507648894685651    0.3440858137628125    
  0.16460871432924462    0.10249245650772762    0.16460868566059078    0.2462359992643645    0.4321639753041044    
  0.5163485729556282    0.4251199408535662    0.2969680352747627    0.20204759209589293    0.14279724606981703    
  0.10837057664007567    0.08945307395923001    0.08067029797300226    0.08043089502107133    0.0892163225346628    
  0.11078097690134898    0.15242847144700017    0.22396164713595962    0.32643627378264445    0.4077913907337842    
  0.3541690491012988    0.21617741917011424    0.16460868566059078    0.34408578910053556    0.4321638909834858    
  0.5542031046434138    0.5634819440042242    0.4589808644278763    0.3359834381978245    0.2400810728970979    
  0.1752467777656701    0.1339381863603524    0.10837057908783349    0.09402534038489027    0.08921629295391456    
  0.09388669974977212    0.11020671802983693    0.14318457383942274    0.19967674258574244    0.28226430249847484    
  0.36875345798727766    0.39617958420988075    0.3541690975358168    0.34408578910053556    0.45076484662216215    
  0.5163485512404843    0.5634819584617914    0.5401893824708647    0.45898099249024354    0.3638739372535446    
  0.2822643557787724    0.22050123181522113    0.17524667144269857    0.1427973224212288    0.12157468860273603    
  0.11078099115008894    0.110206651112547    0.12024327703162935    0.14318454349829912    0.1826683513494158    
  0.24008112042012503    0.30887797437728753    0.36875346935088804    0.40779145828872576    0.45076484662216215    
  0.37512107122107924    0.42511997989712047    0.45898085149772594    0.45898099450376884    0.4251198577661667    
  0.37512115650709454    0.3264362419825495    0.2822642966040875    0.24008120800337782    0.20204750455339934    
  0.1721484622122341    0.1524284204662347    0.1431846372003624    0.1431845007789446    0.15242855391342466    
  0.1721483393734981    0.2020475662469891    0.24008112593455783    0.28226433218170743    0.3264362687966389    
  0.37512107122107924    0.2571334960338702    0.2969680297832473    0.33598347845042825    0.36387388116482633    
  0.3751211257980384    0.3765974388225724    0.37512104717622996    0.36387404123974926    0.33598326930288014    
  0.2969682877550571    0.25713329575634836    0.2239618456897684    0.19967656247298313    0.18266844120906028    
  0.17214826256011725    0.16861679122889073    0.17214836660034008    0.18266830630383685    0.19967674908684327    
  0.22396163685655535    0.2571334960338702    0.17214831427190747    0.20204758530718114    0.24008110074270927    
  0.28226436081415707    0.3264362009685023    0.37512110981824626    0.4251200085577377    0.4589807296784205    
  0.45898117170697916    0.4251197384305611    0.3751214144953737    0.3264360066543988    0.28226458669532745    
  0.240080971458378    0.20204766175897151    0.172148286138273    0.15242857150209885    0.14318452104325524    
  0.14318453464653771    0.15242852870937956    0.17214831427190747    0.12157476123698667    0.1427972605470461    
  0.17524677031056954    0.22050121232800865    0.2822643026167062    0.3638740810872941    0.45898076711094277    
  0.5401896284683857    0.5634815150087615    0.5163490310430204    0.4507643298989128    0.40779173227464743    
  0.36875312197643384    0.3088782459529197    0.24008095364223092    0.18266842287126797    0.14318448519486496    
  0.12024326975562488    0.11020666482357246    0.11078095211158917    0.12157476123698667    0.09402532604433984    
  0.10837061299615296    0.13393816859672603    0.17524674827753353    0.24008113118599292    0.33598332271277687    
  0.4589811469382547    0.5634815084856939    0.5542035184087694    0.4321635055319716    0.3440862541497291    
  0.35416865108586376    0.3961800109304117    0.368753202069168    0.28226455696348185    0.19967659094440815    
  0.14318465250784473    0.11020666769526431    0.09388670911811904    0.08921633663428037    0.09402532604433984    
  0.08067031743248766    0.08945303604369903    0.1083705719534201    0.14279732198552522    0.20204749307177755    
  0.2969682297528044    0.42511960964941825    0.5163490032153103    0.43216349267362636    0.24623646830104892    
  0.1646083266400934    0.2161778289310151    0.35416863724978787    0.4077917794121802    0.32643594964084227    
  0.22396179861455018    0.15242843322793362    0.11078097910874624    0.08921630113249031    0.08043088397567243    
  0.08067031743248766    0.07658926723398181    0.08067030228851266    0.09402532924950775    0.12157475051351632    
  0.1721484407043046    0.25713338306708516    0.37512139630791697    0.45076441950182744    0.3440862709341586    
  0.16460833736210462    0.10249275945586811    0.1646083343430563    0.34408621177193077    0.4507644570392612    
  0.37512137499320775    0.25713333633929764    0.1721484631446072    0.12157472751893503    0.09402534815477821    
  0.0806703118761915    0.07658926723398181    0.08067032162178692    0.0804308671403224    0.08921633416344464    
  0.11078097023677297    0.15242841687426448    0.22396176824790492    0.326436000741753    0.40779170846410795    
  0.35416868934838436    0.21617780138024686    0.16460835161782544    0.2462364578038699    0.43216347272365774    
  0.5163490073195627    0.42511961646004665    0.296968290557624    0.2020474852083245    0.1427973296002901    
  0.10837059353259192    0.08945306273709228    0.08067032162178692    0.09402532687685784    0.08921634939610408    
  0.09388669926576208    0.110206699228407    0.14318462429332468    0.19967665256998926    0.2822645332163765    
  0.36875315707283857    0.3961800039514738    0.354168656164073    0.34408619231659654    0.43216349331954    
  0.554203429450648    0.5634815993077105    0.45898112524295603    0.33598327790278    0.2400811369547011    
  0.17524671032239206    0.13393812919267714    0.10837060261017695    0.09402532687685784    0.12157479553686691    
  0.11078089851559919    0.11020670639680069    0.12024327632978554    0.14318451578704403    0.18266838729637383    
  0.24008097843472828    0.3088782059352775    0.3687531899009445    0.4077917636064374    0.45076442881347006    
  0.5163489978321183    0.5634814978740933    0.5401896265845866    0.45898075311663905    0.3638740316113583    
  0.2822642780044563    0.22050125201467258    0.17524678466362723    0.1427972525405612    0.12157479553686691    
  0.17214832119501866    0.15242852165080528    0.14318454145109213    0.14318457589748362    0.15242851586662245    
  0.1721483383001954    0.2020476220331302    0.24008096829243594    0.28226457156841206    0.3264360290950567    
  0.3751214071446822    0.42511972271107373    0.45898107131586446    0.4589807971856426    0.42511993065683673    
  0.37512107508695997    0.3264362517653104    0.2822643952346527    0.24008110006629918    0.2020476080997612    
  0.17214832119501866    0.2571335877046373    0.223961574642049    0.19967674840931454    0.1826683010100404    
  0.1721483692378645    0.16861675452357128    0.17214831529290678    0.1826683755008957    0.19967657373330744    
  0.22396179155921014    0.257133297810992    0.296968228687299    0.33598327284159013    0.3638740786725627    
  0.37512106349141383    0.37659745858599314    0.37512119718255976    0.363873881981504    0.33598349136806727    
  0.2969680408075685    0.2571335877046373    0.3751209837924357    0.3264362468724919    0.28226428678553855    
  0.2400811486074344    0.2020475519233348    0.17214837287622922    0.15242851402874724    0.14318453956986044    
  0.14318463605416681    0.15242845236628919    0.17214848748623002    0.20204750627851645    0.2400811943367024    
  0.282264308376411    0.32643614667132864    0.37512115246918026    0.42511984483071114    0.4589809860856107    
  0.45898078057629244    0.4251200419720376    0.3751209837924357    0.45076483857440414    0.4077914106511899    
  0.3687535024246453    0.30887797637296405    0.24008113883577786    0.18266831472843453    0.14318453281380275    
  0.12024324881620294    0.11020668245367285    0.11078096857276339    0.12157470006919571    0.14279730622336054    
  0.17524667079258383    0.22050129319125084    0.2822643490625467    0.36387392915520955    0.45898101337666136    
  0.5401892992903292    0.5634818358620856    0.516348572677115    0.45076483857440414    0.3440857502120612    
  0.35416910252670214    0.39617962833124226    0.36875349722790907    0.2822642745758566    0.19967673605788736    
  0.14318454733483796    0.1102067303924744    0.09388671209951624    0.08921631232738439    0.09402535978048951    
  0.10837056289859572    0.13393818312503408    0.17524675927310485    0.24008107470933582    0.3359835008172267    
  0.45898075499446495    0.5634819591775525    0.5542030663413832    0.4321640175565502    0.3440857502120612    
  0.16460868651863558    0.21617739293528804    0.35416910918722505    0.4077913567144015    0.3264362515110053    
  0.22396162660082883    0.15242851266596538    0.11078094050468743    0.08921633224650549    0.08043089388624246    
  0.08067029202926171    0.08945306692094483    0.10837058092199191    0.1427972503271575    0.2020475697395776    
  0.29696806106677703    0.42512000794604543    0.5163485314975875    0.43216392175241136    0.24623604679763503    
  0.16460868651863558    0.10249245650772762    0.16460869871469422    0.3440858187028164    0.45076491630479154    
  0.37512102929353663    0.2571335292337654    0.17214832750785672    0.12157475189448388    0.09402533439239665    
  0.08067030740312366    0.07658926839621263    0.08067030524517056    0.09402534606317155    0.12157479169782649    
  0.17214834693004033    0.2571334949655215    0.3751210788870071    0.4507648894685651    0.3440858137628125    
  0.16460871432924462    0.10249245650772762    0.28715964805066    0.34408580005433304    0.44991306523570995    
  0.45824875935095777    0.3638740145281181    0.25897431204474924    0.1826683575553219    0.13511451156879156    
  0.10794591209090512    0.09402533772607861    0.08965840670794757    0.0940253705679865    0.10794590478433358    
  0.13511455377902518    0.18266831244509207    0.2589743192615723    0.36387400270132525    0.458248762465446    
  0.4499130979758551    0.3440858269751203    0.28715964805066    0.34408576290363524    0.4321638923895478    
  0.5542030522560137    0.5634819565440634    0.45898077517848257    0.3359834661411976    0.24008106745146152    
  0.17524670566817163    0.13393819186292985    0.1083705667470651    0.09402537535828864    0.08921632949627606    
  0.09388671582003874    0.11020671930113171    0.14318451161566265    0.19967673795786942    0.28226430929864554    
  0.36875346198584635    0.3961796220819947    0.3541690693265588    0.34408576290363524    0.44991306477965803    
  0.5542030072283567    0.651174991226843    0.6437250428987584    0.5401895353493071    0.41437127963969866    
  0.30887802140200915    0.23050245206638276    0.17389919112272548    0.1339382591449256    0.1079458680325449    
  0.09388672816834943    0.09067954984290626    0.09863567979800646    0.12024319754857575    0.1597915119423407    
  0.22050119222226394    0.2957344989138495    0.35862788209876634    0.3961796616138301    0.44991306477965803    
  0.45824870411025537    0.5634818879567215    0.6437250381514292    0.6437253008280914    0.5634817018911397    
  0.4582488650432697    0.36875337771554995    0.295734561468195    0.2305024935231946    0.1752466570595071    
  0.135114586566005    0.11020664668429955    0.0986356592933921    0.09863557693617646    0.11020673569752588    
  0.1351145100029606    0.1752466900560296    0.2305024351878545    0.2957345619390637    0.36875351733684747    
  0.45824870411025537    0.3638740334123635    0.4589807521642262    0.5401895175142316    0.5634817650690424    
  0.51634872224102    0.45076474041943027    0.40779138536420795    0.3687534601183326    0.30887794658383405    
  0.24008125506958125    0.18266818610241967    0.1431846842736975    0.1202431161105981    0.11020677870311578    
  0.11078086943613233    0.1215748014379697    0.1427972624724761    0.1752467382268338    0.22050122261470795    
  0.28226431322936224    0.3638740334123635    0.2589743118305975    0.33598345109632427    0.4143712745848194    
  0.4582488550217382    0.4507647107753446    0.4364284733183033    0.45076483583292243    0.4582486953181447    
  0.41437140991558635    0.33598324763922677    0.2589745240505552    0.1996765583539138    0.15979165136246445    
  0.13511442025676731    0.12157484335134752    0.11724227768020827    0.12157481718328743    0.13511448326354336    
  0.15979148981497718    0.19967675165875862    0.2589743118305975    0.18266833732549648    0.2400810436236887    
  0.30887807341408113    0.36875339175023975    0.4077914334152981    0.4507648340401116    0.5163485318785341    
  0.5634820164179949    0.5401891692911539    0.45898123291237014    0.36387367443268365    0.2822646235762335    
  0.22050101620412824    0.17524689402105914    0.14279712860353833    0.12157482892560696    0.1107808835058573    
  0.1102067246691464    0.12024318124284186    0.14318458889189456    0.18266833732549648    0.1351144954468348    
  0.17524672509883923    0.23050241929946264    0.295734540883225    0.3687534143199178    0.4582488049765077    
  0.5634819710959328    0.6437248652003652    0.6437254750957545    0.5634814538678157    0.4582491135154307    
  0.3687531241095255    0.2957347900967896    0.23050223351991012    0.1752469103482445    0.13511441259586235    
  0.1102067810864491    0.09863555586490703    0.09863558947336938    0.11020673106276627    0.1351144954468348    
  0.1079459397552815    0.13393816498240724    0.17389922309496986    0.23050247366876594    0.30887791962449174    
  0.4143714347750728    0.5401892202012428    0.6437254639296613    0.6511745080058904    0.5542035121809662    
  0.4499125643481223    0.39618007384067994    0.3586274763976373    0.2957349061361005    0.2205010347171623    
  0.1597916241781568    0.12024312318745621    0.09863565924678551    0.09067957481402529    0.0938866952943775    
  0.1079459397552815    0.09402533774607777    0.10837059384422455    0.13393816776981068    0.1752467009785583    
  0.24008115098259017    0.3359832714118742    0.45898110069218095    0.5634815515820581    0.5542035057779918    
  0.43216345286936225    0.3440862800145228    0.35416863282111377    0.396180062456294    0.3687530868509458    
  0.28226451834616834    0.19967657154626922    0.14318467533688264    0.1102066628683445    0.09388672145855477    
  0.0892163337655645    0.09402533774607777    0.08965844299587265    0.0940253158280204    0.10794590788456924    
  0.1351145709758388    0.18266822487873668    0.25897450680856343    0.36387371677005265    0.45824909961052285    
  0.4499126124033603    0.34408629189694573    0.28715913605135873    0.34408629129863816    0.4499125695357704    
  0.45824913433518333    0.3638737040434712    0.25897452177362446    0.18266821157153498    0.13511455747252205    
  0.10794589046826483    0.09402534294861252    0.08965844299587265    0.09402534463657913    0.08921632089993935    
  0.09388671185724999    0.1102066816543994    0.14318461344516795    0.1996766076842045    0.2822645201799804    
  0.3687530724149889    0.3961800705056419    0.35416861003323963    0.34408624774529256    0.432163505268032    
  0.5542035096114988    0.5634815502499579    0.45898107056077925    0.33598325263891    0.24008121876699387    
  0.17524668041567346    0.13393820604023304    0.10837060729943199    0.09402534463657913    0.10794594187994434    
  0.09388668381676123    0.09067963145350286    0.0986356360523702    0.12024317244369812    0.15979162408353212    
  0.220501044729938    0.2957347797497781    0.3586276006818429    0.3961800690464798    0.4499125574768539    
  0.5542035651408468    0.6511743199919634    0.6437255266744775    0.5401891652263634    0.4143714418079702    
  0.3088779219282999    0.23050246455956222    0.17389919591938172    0.1339381729162401    0.10794594187994434    
  0.13511448065795817    0.1102067267847091    0.09863558189821837    0.09863561250327378    0.11020672503409149    
  0.135114452624247    0.175246870865565    0.2305022555632734    0.295734804571434    0.3687530817039649    
  0.4582490532461428    0.5634814908973877    0.643725376241631    0.6437249739983536    0.5634819933653124    
  0.4582487716897125    0.36875336705949835    0.2957346233597489    0.23050240249744042    0.17524676174236767    
  0.13511448065795817    0.18266834873500126    0.1431845268766107    0.12024323090837531    0.11020673801910685    
  0.11078088305564007    0.12157483389124835    0.14279714526363874    0.1752468337451858    0.22050106693071939    
  0.28226457701101104    0.36387372515868655    0.45898119577697133    0.5401891699589108    0.5634819777242961    
  0.5163485066241796    0.4507647841359465    0.40779146210189776    0.36875333454012027    0.30887812625590416    
  0.24008102804194595    0.18266834873500126    0.2589743011006713    0.19967678366244443    0.15979147324117227    
  0.13511454367431178    0.12157476044685235    0.11724229189693167    0.12157483172320606    0.13511443852261593    
  0.15979159203579818    0.1996765588562432    0.2589744701703482    0.33598326006252205    0.41437142061009996    
  0.45824874943828264    0.4507647591408454    0.4364285233871205    0.4507647119058794    0.4582489023836539    
  0.41437123121415054    0.33598349112295467    0.2589743011006713    0.3638740379415963    0.2822642600816732    
  0.22050125138396745    0.17524672396514115    0.14279725238948857    0.12157478822255109    0.11078087321465    
  0.11020676074792851    0.12024315352568644    0.14318465965211288    0.18266821923504944    0.24008120385695061    
  0.30887800272639643    0.36875343709915354    0.40779140904845285    0.45076472261823225    0.5163487908778518    
  0.5634817336329735    0.5401894958982916    0.45898082812305735    0.3638740379415963    0.4582486452395937    
  0.36875356096073375    0.2957344838272805    0.23050250438970155    0.17524671489089644    0.13511453891034636    
  0.11020672778990005    0.098635561137316    0.09863563484760764    0.11020665885568016    0.13511454371461945    
  0.17524664025448064    0.23050241407671723    0.29573464315611436    0.36875337606330877    0.4582488572761312    