#     DFTpy    
  CRYSTAL 
    
  PRIMVEC    
  1.2650896347847014    -2.191199523575858    0.0    
  1.2650896347847014    2.191199523575858    0.0    
  0.0    0.0    2.3813076868965517    
  PRIMCOORD    
  1    1    
  Si    0.0    0.0    0.0    
  BEGIN_BLOCK_DATAGRID_3D    
  3d_datagrid_density    
  BEGIN_DATAGRID_3D#0    
  11    11    11    
  0.0    0.0    0.0    
  1.2650896347847014    -2.191199523575858    0.0    
  1.2650896347847014    2.191199523575858    0.0    
  0.0    0.0    2.3813076868965517    
  0.050177640568975224    0.10075492428356463    0.2790815187194063    0.42124573573400487    0.403075854248677    
  0.37590718577489307    0.40307579304077024    0.4212456736069623    0.27908149393415466    0.10075495942273338    
  0.050177640568975224    0.10075490919717414    0.10056546060130789    0.2221462467925002    0.39069117633659    
  0.41638884271065674    0.3736718872967761    0.37376458486236547    0.41631798343922805    0.3906035446597284    
  0.22214112558408913    0.10075490919717414    0.27908143765243676    0.22214631685456346    0.2794755401031291    
  0.39054102606164254    0.4171897999462759    0.370290923433601    0.3452854074742692    0.37026070239142606    
  0.4173568758291613    0.3906035307305405    0.27908143765243676    0.42124558397063977    0.39069107870570663    
  0.39054101941628067    0.4209896948374426    0.416288512894374    0.3704782704307713    0.3339548792658956    
  0.33404751463502363    0.3702608362338874    0.4163178598477034    0.42124558397063977    0.403075744210752    
  0.41638873137847565    0.41718971042407393    0.41628854594517894    0.4034163977463684    0.37371284180355413    
  0.34514319108653524    0.33395497777079236    0.34528547034584534    0.3737646250526595    0.403075744210752    
  0.3759072275052456    0.3736719049987714    0.3702909870911869    0.37047826682864327    0.37371292587970906    
  0.3755921575056658    0.3737128793764166    0.3704782812929498    0.3702910192439718    0.373671933119652    
  0.3759072275052456    0.4030757542293131    0.37376458081369796    0.34528542969478127    0.33395494942993703    
  0.3451432811502243    0.3737128826320846    0.40341636819516175    0.41628848134703716    0.4171898021808332    
  0.41638871643347997    0.4030757542293131    0.4212456738357511    0.41631798164083145    0.3702606741585299    
  0.33404754791369956    0.3339549498799103    0.3704782644623071    0.4162884111110637    0.4209897132961655    
  0.39054102936022694    0.3906911396182329    0.4212456738357511    0.2790814367790157    0.3906034981741228    
  0.41735685404154715    0.37026066857380713    0.3452854719143607    0.3702909603911361    0.41718967750760527    
  0.3905409931561636    0.27947562243665475    0.22214632103170223    0.2790814367790157    0.10075493126285943    
  0.22214114369354723    0.3906035460669582    0.41631798823851707    0.37376463188242937    0.3736718666906402    
  0.4163887791005956    0.39069118812144105    0.222146303209314    0.10056546825776892    0.10075493126285943    
  0.050177640568975224    0.10075492428356463    0.2790815187194063    0.42124573573400487    0.403075854248677    
  0.37590718577489307    0.40307579304077024    0.4212456736069623    0.27908149393415466    0.10075495942273338    
  0.050177640568975224    0.09689376513283368    0.15633728651725293    0.32032407154100107    0.4140125303485621    
  0.3779108481935289    0.34963236652687535    0.37791080658571463    0.41401246548019294    0.3203240627348966    
  0.1563373068406061    0.09689376513283368    0.15633727169721504    0.15611380651766    0.2730755314705427    
  0.39939544290397294    0.3948388363323339    0.34796113034772563    0.34803521389011255    0.39477510964138474    
  0.39935200174317176    0.273040111635517    0.15633727169721504    0.3203239719235476    0.2730756006109698    
  0.3206766317485133    0.39928106884851106    0.3982577664439354    0.3454814228842602    0.32067383180004205    
  0.3454676256302173    0.39836099754143045    0.3993520038528945    0.3203239719235476    0.41401240655981125    
  0.3993953583035164    0.3992810104611975    0.4137983595560549    0.3947672052167777    0.34561128364543925    
  0.3099970541668603    0.3100536320982807    0.3454677307605478    0.39477501313051916    0.41401240655981125    
  0.37791075748206504    0.39483871983247953    0.3982577225432971    0.3947672410699839    0.37817481399445885    
  0.34799310023026714    0.3205761354850983    0.30999712031133014    0.3206739244942553    0.34803520464953847    
  0.37791075748206504    0.3496323597166778    0.3479611741892871    0.3454814676839519    0.3456112801591627    
  0.347993135555112    0.34938835068782437    0.347993117542808    0.3456112560675565    0.34548152086112277    
  0.3479611958864216    0.3496323597166778    0.37791073912745965    0.34803518504550046    0.3206738240690774    
  0.3099970943192641    0.32057622174784756    0.34799311034693653    0.3781747717157128    0.39476716616806445    
  0.39825777309196675    0.3948387290033835    0.37791073912745965    0.4140124677248076    0.3947750586864471    
  0.34546764962095233    0.31005366924042693    0.30999709950852006    0.3456112160097608    0.39476707159377605    
  0.4137984141778344    0.3992810876276964    0.39939543025904495    0.4140124677248076    0.3203239603879979    
  0.39935191611940607    0.39836095012780537    0.3454676265076064    0.3206739020366517    0.34548145009269304    
  0.3982576590550023    0.39928105666794655    0.3206766738980095    0.27307560321357927    0.3203239603879979    
  0.15633729234026364    0.2730401363593887    0.3993519300749588    0.39477502257331404    0.3480352145992601    
  0.3479611504461472    0.3948387501829021    0.39939549869182916    0.27307554105761866    0.15611381906640492    
  0.15633729234026364    0.09689376513283368    0.15633728651725293    0.32032407154100107    0.4140125303485621    
  0.3779108481935289    0.34963236652687535    0.37791080658571463    0.41401246548019294    0.3203240627348966    
  0.1563373068406061    0.09689376513283368    0.2775623385630006    0.3243393695808922    0.3965846365802376    
  0.380909135347926    0.31645544249226265    0.2880296659634402    0.31645541582673153    0.3809090573855635    
  0.3965846520285047    0.3243394410802932    0.2775623385630006    0.32433934962409444    0.3241894321562483    
  0.3828292453586323    0.3967747762566955    0.33800020695955846    0.28720715641922673    0.28723150384606805    
  0.33797596798479806    0.3967717922220766    0.38279477457238714    0.32433934962409444    0.3965845839569164    
  0.38282930645672103    0.3967450837339    0.39673852936565773    0.3452556810001144    0.2859525399370512    
  0.26306822475058567    0.28595184497565435    0.34527777363218376    0.39677177537458275    0.3965845839569164    
  0.38090901141915734    0.39677468037479563    0.39673851391834974    0.38081980382574876    0.3379791566964362    
  0.28598851370191597    0.2539691421756768    0.25398257856173045    0.2859519321684173    0.3379759038951265    
  0.38090901141915734    0.31645535437073863    0.3380001768648815    0.3452556794950684    0.33797917148539103    
  0.3165521370766964    0.28721572435687115    0.2630428256428958    0.2539692315498371    0.263068315885362    
  0.28723153599027573    0.31645535437073863    0.2880296595840764    0.2872071649499022    0.2859526226471451    
  0.28598854818515074    0.2872157962698558    0.2879424630086066    0.287215758120832    0.2859885437096859    
  0.2859525841814952    0.28720718154058617    0.2880296595840764    0.3164553557464968    0.28723152320157674    
  0.26306824332865814    0.2539691525363053    0.2630428435420098    0.2872157721277323    0.31655205240562934    
  0.33797915585646543    0.3452557056662525    0.3380001249499757    0.3164553557464968    0.3809090665454858    
  0.33797590408739214    0.28595185388467204    0.2539825790874929    0.25396921945451983    0.28598849290150435    
  0.33797905202798034    0.3808198459089651    0.3967385704385357    0.39677478178039466    0.3809090665454858    
  0.39658448593910317    0.39677166545077897    0.34527767472487486    0.2859518198431728    0.2630683404008638    
  0.2859525678492683    0.34525563394757897    0.396738515576419    0.39674520392627044    0.3828292536490853    
  0.39658448593910317    0.32433939603240103    0.3827947581480866    0.39677170860269245    0.33797592779942864    
  0.28723153917079214    0.2872071324699925    0.3380001560722032    0.39677480211918187    0.3828292468935621    
  0.3241894799998077    0.32433939603240103    0.2775623385630006    0.3243393695808922    0.3965846365802376    
  0.380909135347926    0.31645544249226265    0.2880296659634402    0.31645541582673153    0.3809090573855635    
  0.3965846520285047    0.3243394410802932    0.2775623385630006    0.4798240067124878    0.46878640972511354    
  0.41466485439230244    0.3230648146525641    0.24898479155306727    0.2230912524616739    0.24898477931548593    
  0.3230647603723182    0.41466488712472227    0.46878647564572745    0.4798240067124878    0.46878636957170566    
  0.46876383938308847    0.43446614663186006    0.3558194139741312    0.27094017118062586    0.22297726837055556    
  0.22297680149371435    0.27093972931688315    0.3558155652544597    0.4344645554879657    0.46878636957170566    
  0.41466478941544066    0.43446624547843693    0.4146904353706724    0.3558132334013122    0.2794403879915321    
  0.22264838277335525    0.2031144708524782    0.2226497025738073    0.279442254822627    0.3558155453249782    
  0.41466478941544066    0.323064711069918    0.35581934951039895    0.3558132395726492    0.32305374802599207    
  0.27093766064877695    0.22265485881668795    0.19581807267911827    0.19581840556276847    0.22264979040962646    
  0.27093966450933826    0.323064711069918    0.24898473992748596    0.2709401152495491    0.2794403738219084    
  0.27093770593351374    0.248997589083006    0.22297676110479492    0.203109614278952    0.1958181379533937    
  0.2031145263871006    0.22297681481455736    0.24898473992748596    0.2230912356875664    0.2229772706521454    
  0.2226484771950944    0.22265489721848752    0.2229767906078537    0.22307958232598707    0.2229767503806093    
  0.2226548802957432    0.2226484352081873    0.22297727679142557    0.2230912356875664    0.24898471546057369    
  0.2229767897689398    0.20311448768128254    0.19581810123855486    0.2031096517802495    0.2229767701020609    
  0.24899752600038594    0.2709376724126477    0.2794404032413654    0.27094005467955    0.24898471546057369    
  0.3230647570043115    0.2709396878453029    0.22264971805604447    0.19581840956972277    0.19581813185215502    
  0.2226548455543336    0.2709375880878505    0.32305379005547047    0.35581329817289353    0.35581939380917454    
  0.3230647570043115    0.41466470098451125    0.3558154484557626    0.27944218166613644    0.22264968941574603    
  0.20311453669922858    0.2226484275668864    0.2794403303878614    0.35581323289318895    0.4146905613043648    
  0.43446615966174684    0.41466470098451125    0.468786431989608    0.4344644904956466    0.355815442288393    
  0.27093971407113665    0.22297682044694397    0.22297725154663717    0.2709401198637085    0.35581944296580825    
  0.43446617307070556    0.4687639329789627    0.468786431989608    0.4798240067124878    0.46878640972511354    
  0.41466485439230244    0.3230648146525641    0.24898479155306727    0.2230912524616739    0.24898477931548593    
  0.3230647603723182    0.41466488712472227    0.46878647564572745    0.4798240067124878    0.5246934534848515    
  0.48227919778771444    0.37933423200067323    0.27194085024017267    0.20170814417964059    0.17854768237463908    
  0.20170811116915777    0.2719408048665864    0.3793342172165059    0.48227924934190947    0.5246934534848515    
  0.482279168665689    0.48227872635049224    0.40976069945731025    0.30652076891379737    0.22209862568808042    
  0.17898048712846498    0.17898200935860453    0.22209655209180254    0.306515744147146    0.40976640011672777    
  0.482279168665689    0.3793341404324463    0.40976079203228505    0.37934047429261103    0.3065172171480144    
  0.23027313190040663    0.17940571611198033    0.16238625647400032    0.17940497086771562    0.23027964510037152    
  0.30651573375023994    0.3793341404324463    0.2719407529937275    0.3065207258230463    0.30651718129129707    
  0.27194085423854764    0.22209787150718077    0.179410126472429    0.15632539709935933    0.15632748694600973    
  0.17940503804269023    0.2220964684490364    0.2719407529937275    0.2017080666731867    0.2220985658133455    
  0.23027312733803645    0.22209790270821084    0.2017077802909236    0.17897952631356334    0.16238425218148858    
  0.1563254808661751    0.16238632062252867    0.17898200868580585    0.2017080666731867    0.1785476331475242    
  0.17898049865799745    0.17940577613702854    0.1794101326296013    0.17897954008584196    0.17855119104696116    
  0.17897953441832473    0.1794101168507367    0.17940579582191868    0.17898051082259522    0.1785476331475242    
  0.20170805369467884    0.17898199550185223    0.16238627593443    0.15632543948593905    0.16238428327341806    
  0.1789795174760388    0.20170774610702402    0.2220978605341434    0.23027312881710635    0.22209853261449902    
  0.20170805369467884    0.27194080433144857    0.22209653755942996    0.1794050011490107    0.1563274766006983    
  0.15632543659324627    0.1794101111927865    0.22209779812504227    0.27194088469235467    0.30651722316869673    
  0.30652079203456406    0.27194080433144857    0.3793340884558072    0.30651564947339416    0.23027962078313022    
  0.179404990159603    0.16238635091158715    0.17940573468069962    0.23027305755124625    0.30651721620277605    
  0.37934051796050017    0.40976078393194876    0.3793340884558072    0.4822792152398081    0.40976638395351195    
  0.3065156706189138    0.22209650522382088    0.17898201413920187    0.17898048498115735    0.22209855154169197    
  0.30652086172648024    0.4097607051082242    0.4822786891326547    0.4822792152398081    0.5246934534848515    
  0.48227919778771444    0.37933423200067323    0.27194085024017267    0.20170814417964059    0.17854768237463908    
  0.20170811116915777    0.2719408048665864    0.3793342172165059    0.48227924934190947    0.5246934534848515    
  0.5130149314694677    0.4661758399256467    0.3584356930317211    0.2526433990169709    0.18549326731367857    
  0.16342845264747202    0.18549323629225747    0.25264335989304026    0.3584356820600691    0.46617594042495153    
  0.5130149314694677    0.46617578587713726    0.46617394945443513    0.3894874606071258    0.2861579903989724    
  0.20503442896890064    0.16403682670665026    0.16403802846337345    0.20503205271513145    0.28615369674871927    
  0.38949210198587264    0.46617578587713726    0.3584356100216762    0.38948756072298624    0.35844187423325125    
  0.2861531235984443    0.21292200814764256    0.16471633321676976    0.14853012972234145    0.16471709404629953    
  0.2129266395724426    0.2861536794845025    0.3584356100216762    0.2526432946474856    0.28615793900217945    
  0.28615313057617864    0.2526444914929246    0.20503503634753062    0.16471871562821522    0.1428592110870487    
  0.14285617895609193    0.16471717500561725    0.20503196483319835    0.2526432946474856    0.18549319649354493    
  0.20503436981267145    0.2129219572902438    0.20503506992174822    0.18548948071575055    0.16403874723381667    
  0.14852580808617608    0.1428592767853192    0.14853015866666075    0.1640380559837965    0.18549319649354493    
  0.16342847096924484    0.16403682948156892    0.1647163793269959    0.16471871889120926    0.16403877555191038    
  0.16342949637181914    0.1640387667743133    0.16471873638657    0.1647164089187378    0.1640368421194415    
  0.16342847096924484    0.18549321014675768    0.1640380212358655    0.14853015607088263    0.14285926404225419    
  0.14852584749002562    0.16403876758163127    0.18548947815960135    0.20503503641758133    0.21292201751030015    
  0.2050343592795025    0.18549321014675768    0.25264337127647973    0.20503204175460407    0.16471707834706725    
  0.1428561968740751    0.1428592505562959    0.16471871432486643    0.2050349716923605    0.2526445138413202    
  0.2861531384138167    0.286157984789163    0.25264337127647973    0.3584355990326231    0.2861536495826051    
  0.2129266395966489    0.16471707396671978    0.1485301695608388    0.16471635739317922    0.2129219216236239    
  0.2861531053432618    0.3584419650439884    0.38948756219971675    0.3584355990326231    0.4661758755512209    
  0.3894920969317729    0.28615368250527734    0.20503204574970202    0.16403805591790407    0.16403682466064848    
  0.20503439824906405    0.2861580301795636    0.38948754088405124    0.46617399647095403    0.4661758755512209    
  0.5130149314694677    0.4661758399256467    0.3584356930317211    0.2526433990169709    0.18549326731367857    
  0.16342845264747202    0.18549323629225747    0.25264335989304026    0.3584356820600691    0.46617594042495153    
  0.5130149314694677    0.5246934732978801    0.4822792023596772    0.3793342245395232    0.27194084664710305    
  0.2017081298161019    0.1785476675232953    0.2017081052392343    0.2719408034092311    0.3793342238150316    
  0.48227923611014567    0.5246934732978801    0.4822791642555614    0.4822787086525276    0.4097606999516274    
  0.30652079171726543    0.2220986290670451    0.17898047024021455    0.1789820166844235    0.22209656217303075    
  0.3065157397681569    0.4097663679774885    0.4822791642555614    0.3793341228976888    0.40976079261827264    
  0.37934046453559256    0.30651722817936644    0.23027314246352332    0.1794057244239927    0.16238626988765756    
  0.1794049790430454    0.2302796355605617    0.3065157503049042    0.3793341228976888    0.2719407526407486    
  0.30652073865783686    0.30651719056252774    0.2719408416852146    0.22209788402984454    0.17941012910308424    
  0.15632540970621567    0.15632747102424296    0.17940505473217752    0.22209649466118467    0.2719407526407486    
  0.20170806414257278    0.22209856828010488    0.2302731295212928    0.222097924859922    0.20170776744196434    
  0.17897952238139583    0.1623842414278794    0.15632546148778825    0.16238633567940486    0.17898200544362936    
  0.20170806414257278    0.1785476524696088    0.17898051052996433    0.17940576528292362    0.1794101448774906    
  0.17897953596012697    0.1785511846973989    0.17897953360580296    0.17941012330997666    0.1794058100888592    
  0.1789805069932381    0.1785476524696088    0.20170805936489655    0.17898200088135618    0.1623862649456174    
  0.15632545508110532    0.16238428794751175    0.17897952956581384    0.20170773799425515    0.2220978681314153    
  0.23027315664568498    0.22209856677243797    0.20170805936489655    0.2719408038475401    0.22209653433881302    
  0.17940499964839063    0.15632749177653654    0.15632543996262865    0.179410091177763    0.22209779573243993    
  0.271940898027682    0.30651724769552524    0.3065207865531556    0.2719408038475401    0.37933408828322046    
  0.3065156633120235    0.23027960650230672    0.17940498580267247    0.16238632124135374    0.17940575464986783    
  0.23027307055967938    0.3065172181121153    0.3793405200468327    0.40976078234367763    0.37933408828322046    
  0.4822792127935656    0.409766395862265    0.30651567243490896    0.2220964817564019    0.1789820106934081    
  0.17898049069464006    0.2220985770782571    0.3065208453390206    0.40976074089347214    0.48227873541016614    
  0.4822792127935656    0.5246934732978801    0.4822792023596772    0.3793342245395232    0.27194084664710305    
  0.2017081298161019    0.1785476675232953    0.2017081052392343    0.2719408034092311    0.3793342238150316    
  0.48227923611014567    0.5246934732978801    0.4798240240162406    0.4687863636347877    0.4146648580154432    
  0.32306481919012303    0.248984799188393    0.22309123629597463    0.24898477958694212    0.32306475788718686    
  0.4146648881874706    0.4687864754086287    0.4798240240162406    0.4687863307796147    0.4687638421699623    
  0.43446614647908066    0.3558194174354759    0.270940149021672    0.22297727037918355    0.22297679224441075    
  0.27093974811409804    0.355815554536431    0.43446451826697935    0.4687863307796147    0.41466481208703304    
  0.43446620544003034    0.41469046169554263    0.35581325627931004    0.279440388875877    0.22264839354686025    
  0.2031144678286107    0.22264970349089366    0.27944226375357384    0.35581553641436725    0.41466481208703304    
  0.32306471116227997    0.35581933841532526    0.3558132333741028    0.32305374613578214    0.2709376811749515    
  0.22265484592298262    0.19581806805731955    0.19581841813901135    0.22264978236954255    0.27093968835234256    
  0.32306471116227997    0.24898471998821023    0.27094012850887794    0.2794403903143311    0.27093769696665    
  0.2489975885629787    0.22297672553762737    0.20310964266387185    0.1958181532660042    0.2031145405623933    
  0.22297680846538345    0.24898471998821023    0.22309123220119    0.22297728926828955    0.22264846852634015    
  0.22265488685287035    0.22297678733995457    0.22307957732028538    0.22297675981998072    0.2226548760256092    
  0.2226484453779023    0.22297729348128403    0.22309123220119    0.24898472544974187    0.2229767987119924    
  0.2031144759972795    0.19581808364563094    0.20310964913030558    0.22297677569206834    0.24899751865123818    
  0.27093768736538487    0.27944041942487213    0.2709400867146427    0.24898472544974187    0.3230647503582129    
  0.2709396804780284    0.22264970416174726    0.19581841313850026    0.19581813958107516    0.2226548499222114    
  0.27093758632882975    0.32305378690537573    0.35581328794951894    0.3558194150449766    0.3230647503582129    
  0.4146646889328489    0.3558154198706296    0.2794421802779885    0.22264965886680163    0.20311455862682393    
  0.22264841830363985    0.27944035242110077    0.35581324182441043    0.4146905959821037    0.4344661688285277    
  0.4146646889328489    0.46878641193062165    0.4344644936365249    0.3558154675196559    0.2709396808471812    
  0.22297681440281064    0.2229772613832851    0.27094009880597925    0.35581945865091796    0.43446616688303946    
  0.4687639082037677    0.46878641193062165    0.4798240240162406    0.4687863636347877    0.4146648580154432    
  0.32306481919012303    0.248984799188393    0.22309123629597463    0.24898477958694212    0.32306475788718686    
  0.4146648881874706    0.4687864754086287    0.4798240240162406    0.2775623349237502    0.3243393775234763    
  0.3965846183889491    0.3809091194819329    0.31645543521772257    0.2880296834775369    0.31645541216343803    
  0.38090907891725384    0.3965846569483434    0.3243394361907872    0.2775623349237502    0.3243393537311081    
  0.32418942733075873    0.38282924178205036    0.39677477835849606    0.3380002327298825    0.28720715210400544    
  0.28723152587374123    0.3379759766073815    0.39677180216262165    0.3827947940115652    0.3243393537311081    
  0.39658456682552085    0.3828293279164578    0.3967450736101881    0.3967385216287753    0.345255684138862    
  0.28595252105235663    0.2630682296344125    0.285951855329369    0.3452777762354695    0.39677179781982447    
  0.39658456682552085    0.38090901359956486    0.3967746962411133    0.39673852820579747    0.38081980396782344    
  0.33797914148005864    0.2859885016849942    0.2539691464956055    0.2539825733617888    0.2859519519806402    
  0.33797590109298514    0.38090901359956486    0.31645537340808827    0.33800015736551003    0.34525566354041354    
  0.33797919621705846    0.3165521240589477    0.2872157479304699    0.2630427918144885    0.2539692226936166    
  0.2630683095024998    0.28723153438393834    0.31645537340808827    0.2880296594862495    0.28720715849380696    
  0.28595263637631857    0.28598855632816766    0.28721580773797095    0.2879424717782816    0.28721574032851105    
  0.28598853908022254    0.2859525827179311    0.2872071637298125    0.2880296594862495    0.31645535405718395    
  0.28723149752316723    0.2630682424066438    0.25396917091534915    0.2630428408025157    0.2872157797937034    
  0.31655206406179554    0.33797913842400606    0.34525569630193953    0.3380000950368764    0.31645535405718395    
  0.3809090594879637    0.3379759101436966    0.2859518526914717    0.25398256313189066    0.253969208958828    
  0.2859885095332008    0.337979053264905    0.38081983496600896    0.39673859890861835    0.39677474787870665    
  0.3809090594879637    0.39658447503291083    0.3967716758600834    0.34527767464407944    0.2859518200643194    
  0.2630683021753783    0.2859525771299989    0.3452556208363146    0.3967385202843971    0.39674520476314645    
  0.38282926714159765    0.39658447503291083    0.32433941948599465    0.38279474925611445    0.39677167531581614    
  0.33797592481625427    0.28723153318489186    0.2872071273466659    0.3380001676126434    0.3967748059840856    
  0.3828292835912526    0.3241895048559824    0.32433941948599465    0.2775623349237502    0.3243393775234763    
  0.3965846183889491    0.3809091194819329    0.31645543521772257    0.2880296834775369    0.31645541216343803    
  0.38090907891725384    0.3965846569483434    0.3243394361907872    0.2775623349237502    0.09689376878601533    
  0.15633728181796974    0.32032408031483617    0.4140125315034603    0.3779108666648263    0.34963238274629505    
  0.3779108122785621    0.41401247627108834    0.32032406102028443    0.15633730216518596    0.09689376878601533    
  0.15633727662670746    0.15611381134073174    0.27307552434952426    0.39939542769475794    0.3948388482447116    
  0.3479611617010281    0.34803520701281226    0.39477511728020376    0.39935200508182794    0.27304013417899065    
  0.15633727662670746    0.3203240044170101    0.2730756026709195    0.320676630783142    0.39928105268592534    
  0.398257745694205    0.3454813928839832    0.320673819362393    0.34546762238950907    0.39836102162571635    
  0.3993520146176889    0.3203240044170101    0.4140124128191042    0.3993953529500871    0.39928101090341706    
  0.4137983745437384    0.3947671789594403    0.34561125696133427    0.30999703280749724    0.3100536496998637    
  0.3454677071909234    0.3947749930171316    0.4140124128191042    0.37791075764859267    0.3948387342336596    
  0.39825773057958846    0.3947672133368212    0.3781748353942008    0.3479930882572174    0.32057614711770793    
  0.3099971545321328    0.3206739285717435    0.34803521088408784    0.37791075764859267    0.3496323372342594    
  0.3479611664964702    0.3454814863224045    0.3456112628832908    0.34799315126377994    0.3493883608297201    
  0.34799310395684513    0.3456112262392645    0.34548151098315777    0.3479612056686666    0.3496323372342594    
  0.3779107382354115    0.3480351889131879    0.32067383474153377    0.3099970882821541    0.32057620351916205    
  0.3479931001155315    0.3781747697822151    0.3947671537839278    0.39825775140100006    0.39483869570439445    
  0.3779107382354115    0.4140124656643369    0.39477506590031164    0.3454676361190913    0.3100536344918306    
  0.3099970894488927    0.34561123704788327    0.39476707610011824    0.4137983948043841    0.39928106627111465    
  0.39939543755877505    0.4140124656643369    0.3203239558806839    0.39935189771339474    0.3983609643661763    
  0.34546762314911195    0.3206739354157814    0.34548141121724524    0.39825764121358215    0.39928105476832754    
  0.32067668255678083    0.27307560108791895    0.3203239558806839    0.1563372874650923    0.2730401333938571    
  0.3993519323802274    0.3947750376693261    0.3480352104170305    0.34796113600378553    0.39483871190596814    
  0.39939551923974304    0.2730755390366419    0.15611380995093005    0.1563372874650923    0.09689376878601533    
  0.15633728181796974    0.32032408031483617    0.4140125315034603    0.3779108666648263    0.34963238274629505    
  0.3779108122785621    0.41401247627108834    0.32032406102028443    0.15633730216518596    0.09689376878601533    
  0.050177640568975224    0.10075492428356463    0.2790815187194063    0.42124573573400487    0.403075854248677    
  0.37590718577489307    0.40307579304077024    0.4212456736069623    0.27908149393415466    0.10075495942273338    
  0.050177640568975224    0.10075490919717414    0.10056546060130789    0.2221462467925002    0.39069117633659    
  0.41638884271065674    0.3736718872967761    0.37376458486236547    0.41631798343922805    0.3906035446597284    
  0.22214112558408913    0.10075490919717414    0.27908143765243676    0.22214631685456346    0.2794755401031291    
  0.39054102606164254    0.4171897999462759    0.370290923433601    0.3452854074742692    0.37026070239142606    
  0.4173568758291613    0.3906035307305405    0.27908143765243676    0.42124558397063977    0.39069107870570663    
  0.39054101941628067    0.4209896948374426    0.416288512894374    0.3704782704307713    0.3339548792658956    
  0.33404751463502363    0.3702608362338874    0.4163178598477034    0.42124558397063977    0.403075744210752    
  0.41638873137847565    0.41718971042407393    0.41628854594517894    0.4034163977463684    0.37371284180355413    
  0.34514319108653524    0.33395497777079236    0.34528547034584534    0.3737646250526595    0.403075744210752    
  0.3759072275052456    0.3736719049987714    0.3702909870911869    0.37047826682864327    0.37371292587970906    
  0.3755921575056658    0.3737128793764166    0.3704782812929498    0.3702910192439718    0.373671933119652    