#     DFTpy    
  CRYSTAL 
    
  PRIMVEC    
  5.2427586206896555    0.0    0.0    
  0.0    5.2427586206896555    0.0    
  0.0    0.0    5.2427586206896555    
  PRIMCOORD    
  8    1    
  Si    0.0    0.0    0.0    
  Si    1.3106896551724139    1.3106896551724139    1.3106896551724139    
  Si    0.0    2.6213793103448277    2.6213793103448277    
  Si    1.3106896551724139    3.932068965517242    3.932068965517242    
  Si    2.6213793103448277    0.0    2.6213793103448277    
  Si    3.932068965517242    1.3106896551724139    3.932068965517242    
  Si    2.6213793103448277    2.6213793103448277    0.0    
  Si    3.932068965517242    3.932068965517242    1.3106896551724139    
  BEGIN_BLOCK_DATAGRID_3D    
  3d_datagrid_density    
  BEGIN_DATAGRID_3D#0    
  23    23    23    
  0.0    0.0    0.0    
  5.2427586206896555    0.0    0.0    
  0.0    5.2427586206896555    0.0    
  0.0    0.0    5.2427586206896555    
  0.05433296513150672    0.1014892505355144    0.26838947634013083    0.40509196130324554    0.3495490469866459    
  0.23500801315128125    0.1517998245279767    0.10290807417694436    0.07636247199775838    0.062472689017043025    
  0.055684883607777326    0.053695026707930686    0.055684913504950716    0.062472692335558244    0.07636248566896502    
  0.1029080899976341    0.15179981220474448    0.23500799966375227    0.3495491015849608    0.4050920537547696    
  0.26838953386823466    0.10148923037528486    0.05433296513150672    0.10148922332871879    0.15778198846251354    
  0.3186571413369464    0.41614275870208534    0.34554723909111473    0.2338117935833717    0.15349963765099744    
  0.10560553933049631    0.07899614379961055    0.06478266175798453    0.057758787034291104    0.05568484845485227    
  0.05775880206258533    0.06478262969602078    0.07899610567263084    0.10560551665427587    0.15349962681398413    
  0.2338117836079696    0.34554718265027407    0.41614281570057476    0.3186570945331712    0.15778194478847926    
  0.10148922332871879    0.2683894548344921    0.3186571124762403    0.4121256750887998    0.41790997187349127    
  0.32820039310844185    0.22903106467969636    0.15795116176995272    0.11348474328420538    0.08723037237273733    
  0.0723959347714192    0.06478263518768843    0.06247270486745366    0.06478263301007957    0.07239595346902063    
  0.0872303126884225    0.11348474942409763    0.1579510787764893    0.22903106737161905    0.32820044447166313    
  0.4179098660285011    0.41212567047279697    0.3186571363173071    0.2683894548344921    0.405092012619794    
  0.4161428027334172    0.41790995311336043    0.3714606473259081    0.2938696875355935    0.22004425493369226    
  0.16446359499348956    0.1265900981072811    0.10220132954534733    0.08723030844791874    0.07899612312770647    
  0.07636252345751704    0.07899612767825297    0.0872303393324722    0.10220137166873122    0.12659012277923903    
  0.16446362366989298    0.22004424161681685    0.29386967858618585    0.37146063370440263    0.4179099214297853    
  0.4161427663140423    0.405092012619794    0.34954908720086825    0.3455472166011401    0.3282004467632363    
  0.2938697509338455    0.2504201889546756    0.20810989407066344    0.172778326453578    0.14588667217624124    
  0.12659011640425974    0.11348480939943636    0.10560554783829289    0.10290809128725946    0.10560551194414614    
  0.11348477414459682    0.12659014280499348    0.14588666665175845    0.17277833465576356    0.20810988081059636    
  0.2504202012700771    0.29386978113670775    0.32820043370553564    0.3455472492364028    0.34954908720086825    
  0.23500792490516187    0.23381184261077018    0.22903107902498984    0.22004429196475486    0.20810985251859887    
  0.19494217359223465    0.1828231981923643    0.17277830222580495    0.16446358438493344    0.1579510842579711    
  0.15349960106739075    0.15179977480237622    0.15349956663018355    0.15795113761298624    0.1644635870198166    
  0.17277830094000104    0.18282322058734274    0.1949421901566611    0.20810985879672717    0.22004430145683807    
  0.22903111501854453    0.23381183442534514    0.23500792490516187    0.15179975941277538    0.15349962882454582    
  0.15795104267219517    0.16446361142666122    0.17277827608119506    0.18282317357003036    0.19494219208385816    
  0.20810984611329933    0.22004433399079373    0.22903109686957815    0.2338117994865186    0.2350079230859638    
  0.2338117855357341    0.22903114759819307    0.22004427579298433    0.2081097598409341    0.194942195816543    
  0.18282316356693493    0.17277832640570792    0.16446358521667814    0.15795107934966032    0.1534996403818551    
  0.15179975941277538    0.10290805557696271    0.1056055547621765    0.11348475807830963    0.12659016445785412    
  0.14588665119697747    0.17277833923697655    0.20810983135690372    0.25042027253740423    0.29386970909532956    
  0.3282004182859413    0.3455472784959519    0.34954912104195274    0.3455473032450043    0.3282004409037128    
  0.2938697251527702    0.250420292574949    0.20810986182904861    0.1727783512468753    0.14588667705167974    
  0.12659009924508433    0.1134847972406957    0.10560558041261717    0.10290805557696271    0.07636251321091264    
  0.07899615701854606    0.08723032219451644    0.10220134385236021    0.1265901103976223    0.16446357086312607    
  0.22004423568557405    0.2938696786376133    0.37146064479519664    0.4179099766724754    0.41614275811018714    
  0.4050918991222263    0.4161427506114459    0.41790992950031586    0.3714606691030328    0.2938696644184875    
  0.22004428996085118    0.1644634951467091    0.12659014874208951    0.10220131496252152    0.08723034116011089    
  0.07899608219084436    0.07636251321091264    0.06247266064496791    0.06478264852482145    0.0723959342771573    
  0.08723034275950317    0.11348480130540838    0.15795111650075355    0.22903112792536984    0.3282004491726285    
  0.4179099952940246    0.41212565123879663    0.3186570825122179    0.2683895326241547    0.31865707806491794    
  0.412125676591029    0.4179099817260404    0.32820040425050795    0.22903115273578478    0.15795111624152966    
  0.11348477203789137    0.08723033124401033    0.07239596672657198    0.06478263685509289    0.06247266064496791    
  0.05568488038101423    0.05775879566006811    0.06478262918381947    0.07899609629563016    0.1056055332860211    
  0.15349961328174702    0.23381178562453708    0.34554721009515044    0.4161427638510838    0.31865708339440213    
  0.15778195282450763    0.10148920747393222    0.15778194675838092    0.31865714097464176    0.4161427356680727    
  0.3455472738691472    0.23381177073569867    0.1534996327251707    0.10560548995277699    0.07899612114595884    
  0.06478262887656482    0.057758808062677316    0.05568488038101423    0.05369504822639649    0.055684912420631894    
  0.06247267152820296    0.07636250111610113    0.10290807598002451    0.15179981940127707    0.23500795815426134    
  0.34954904189231123    0.4050920139093072    0.26838958264095997    0.10148921972314084    0.05433295124853298    
  0.1014892356127464    0.26838949754496183    0.4050920023230694    0.3495491372545508    0.23500795276383082    
  0.15179985370944538    0.10290805112779576    0.07636251253232797    0.062472703742347944    0.05568490041074685    
  0.05369504822639649    0.05568489706756843    0.057758796177460686    0.06478262123500801    0.07899612016705945    
  0.10560551518692116    0.15349961204827386    0.2338118109642035    0.34554722155066153    0.4161427802777919    
  0.3186571270216484    0.15778198369753435    0.10148920960987647    0.1577819667031721    0.3186570850034995    
  0.41614282341366743    0.34554713504309925    0.23381186558056427    0.15349965711361074    0.10560548052523504    
  0.07899614246195001    0.06478262500402711    0.05775881908766252    0.05568489706756843    0.06247266354912808    
  0.06478265230708453    0.07239596286554369    0.08723034188883347    0.11348474130205222    0.157951111030553    
  0.22903113249108106    0.32820043428426104    0.41791004780820595    0.41212565226321446    0.3186570936672686    
  0.2683894568772502    0.3186571063381882    0.41212569903859714    0.41790998258330275    0.32820037676544916    
  0.22903111322283498    0.15795110325043843    0.11348477024890913    0.08723030433415398    0.07239596632525934    
  0.06478263784936562    0.06247266354912808    0.0763624893902501    0.07899610574545696    0.0872303147910985    
  0.10220131885246907    0.12659011267667322    0.164463559456878    0.22004424754700913    0.2938696735668391    
  0.3714606284293835    0.4179098780251449    0.41614281482321036    0.4050919849705911    0.41614273385437406    
  0.4179098997903516    0.3714607235842781    0.2938696567118538    0.2200442994498456    0.16446357302396122    
  0.12659009275285765    0.10220132046696616    0.08723034677324398    0.07899613536498284    0.0763624893902501    
  0.10290806176815863    0.10560554805219562    0.113484764188661    0.12659014655588977    0.14588667659459725    
  0.1727783381908044    0.20810987168124417    0.25042029630078877    0.2938697480013981    0.32820045754988686    
  0.3455472841952345    0.34954908222852205    0.3455472645737146    0.3282004493361658    0.29386975804465343    
  0.25042020753110916    0.2081098414300121    0.17277831648396905    0.14588667995595536    0.12659012767309347    
  0.11348473935102286    0.10560556757387311    0.10290806176815863    0.1517997535674847    0.153499606744331    
  0.15795112509703063    0.16446360504632954    0.17277827298388937    0.1828232043584985    0.1949422246961661    
  0.20810982484707208    0.22004429542989382    0.22903111277436336    0.2338117986620525    0.23500795229168026    
  0.23381182757213131    0.22903110643099367    0.22004429732840572    0.20810982056943575    0.19494221078730947    
  0.18282319056016885    0.17277831282617417    0.16446355380240082    0.15795107996811145    0.15349959520184578    
  0.1517997535674847    0.23500797402959653    0.2338118038591597    0.2290310929405963    0.22004431870816135    
  0.2081098121873726    0.19494219203119725    0.1828232051580316    0.17277826802268195    0.1644635675429637    
  0.15795110473815635    0.1534996061732177    0.15179976537588627    0.15349960468205567    0.157951124278873    
  0.16446358047727533    0.17277827566919815    0.18282319367273359    0.1949421955393581    0.20810978935045496    
  0.22004425238140304    0.2290310769866208    0.2338119081173827    0.23500797402959653    0.34954904337951914    
  0.3455472396129953    0.3282004557665629    0.2938696819836712    0.25042024201247687    0.20810988922906315    
  0.17277833504458925    0.14588666285177038    0.12659015399864462    0.11348477231907125    0.10560554621251386    
  0.10290806400930128    0.10560551480324029    0.11348478454873638    0.1265901294339534    0.1458866744400182    
  0.17277837922556485    0.2081098617029917    0.25042024732248874    0.2938697395723791    0.3282004089834506    
  0.3455473019427436    0.34954904337951914    0.4050919426117614    0.41614270185188285    0.417909956377071    
  0.37146067938559035    0.29386971040816234    0.22004431449279635    0.16446352002963782    0.12659013094122284    
  0.1022013382925819    0.08723032193023311    0.0789961365996051    0.07636247214256725    0.07899610947161652    
  0.08723035144654864    0.10220134894262892    0.12659009411013067    0.1644635870318673    0.22004427833778786    
  0.2938696240634627    0.37146059847845253    0.417909982265952    0.4161428452642013    0.4050919426117614    
  0.268389510914068    0.3186572018306393    0.4121256505046553    0.4179099389270298    0.32820046033893296    
  0.22903111943578028    0.15795114287509981    0.11348480987944276    0.08723033445560247    0.07239594406672097    
  0.06478262972173561    0.062472692947193834    0.06478264430620066    0.07239596151661275    0.0872303624448637    
  0.11348471104737023    0.15795114861014287    0.22903110158671938    0.328200418588652    0.41791009080371105    
  0.4121256247002131    0.3186571468451297    0.268389510914068    0.10148922934478039    0.15778195202405615    
  0.3186570735696522    0.41614274621068653    0.34554723676609783    0.23381180998049292    0.15349960235062013    
  0.1056054928226324    0.07899616334708552    0.06478263130267474    0.05775878522924215    0.055684891023202274    
  0.0577588091627447    0.06478264675199594    0.07899611957855697    0.10560549381935339    0.15349965010212419    
  0.23381176003023832    0.3455471497148804    0.41614278663231236    0.31865717533725435    0.15778193170541208    
  0.10148922934478039    0.05433296513150672    0.1014892505355144    0.26838947634013083    0.40509196130324554    
  0.3495490469866459    0.23500801315128125    0.1517998245279767    0.10290807417694436    0.07636247199775838    
  0.062472689017043025    0.055684883607777326    0.053695026707930686    0.055684913504950716    0.062472692335558244    
  0.07636248566896502    0.1029080899976341    0.15179981220474448    0.23500799966375227    0.3495491015849608    
  0.4050920537547696    0.26838953386823466    0.10148923037528486    0.05433296513150672    0.10148923859425343    
  0.1577819351292629    0.3186570084862031    0.4161427019807365    0.34554717322287076    0.23381182739565776    
  0.1534996218159844    0.10560552680274903    0.07899609557497839    0.06478263609240577    0.0577588046116249    
  0.055684870241889645    0.057758802050572385    0.06478265760668778    0.0789961038908867    0.10560554410565463    
  0.15349965785923117    0.2338117993265323    0.34554718961825015    0.4161427418796545    0.3186571345181703    
  0.1577819593123089    0.10148923859425343    0.15778190736960424    0.22773111752039085    0.38928447368065555    
  0.4633657365452149    0.3797955038893172    0.26257499428798026    0.17636203235180556    0.12261729748529838    
  0.09107282325518305    0.07279435411152785    0.0624817157380282    0.057758744984494965    0.057494523759305485    
  0.062060002120615784    0.0732651119374122    0.09560777260415138    0.13663768922002048    0.20641461729248778    
  0.3065871291763991    0.3851302146619737    0.3349444651104431    0.20719882818160254    0.15778190736960424    
  0.3186570152178172    0.38928450811489235    0.4900146257176061    0.4931841534700694    0.3975218224276404    
  0.28798894093883376    0.20383937941244024    0.1470098234915383    0.11054194442672446    0.0873037815210344    
  0.0727943515354561    0.06478265093891075    0.06206000115964945    0.06456375610734393    0.07341433052460271    
  0.09190177585799397    0.12555733138587669    0.18185125052048862    0.2644134418248295    0.3504013970761048    
  0.3774255619902934    0.3349444554615497    0.3186570152178172    0.41614269200301196    0.46336579110549886    
  0.4931842286785015    0.46357181552596477    0.3880905650195077    0.3042750380753429    0.23291684341593616    
  0.17851231063445513    0.1388949390561909    0.11054191050560128    0.091072827592053    0.07899612301419287    
  0.07326508543572023    0.07341433756275674    0.07970782626569203    0.09397424492050646    0.1194993823016727    
  0.16034288721377557    0.21916303979682122    0.2897679368379571    0.3504014724704118    0.38513016918994797    
  0.41614269200301196    0.3455472431867949    0.3797954858895187    0.3975218420269916    0.3880906416579614    
  0.35415848306263525    0.3073741757828756    0.25939252074706726    0.21612939262254868    0.17851229659222004    
  0.1470098717550697    0.12261731483114545    0.10560553431606039    0.09560781709075425    0.09190183672456453    
  0.0939742723052755    0.10224070737608663    0.11795196019211163    0.14254747771188545    0.17676520313863628    
  0.21916310417048712    0.26441347207948296    0.3065872143287663    0.3455472431867949    0.2338117502032952    
  0.26257500023329916    0.28798896073172453    0.3042750609855167    0.30737410106196494    0.29782271319977893    
  0.28089219886176514    0.25939246910904834    0.23291683748525308    0.20383928529224488    0.17636197000901355    
  0.15349960885878647    0.13663760339819667    0.1255573604604077    0.11949933344967185    0.11795194299438504    
  0.12098590514303761    0.12918750086626135    0.14254743317499724    0.16034292128402014    0.18185124406142855    
  0.20641462321764403    0.2338117502032952    0.15349956856893604    0.1763620219484782    0.20383925416794946    
  0.23291687881514947    0.2593924437466475    0.28089218191683485    0.2978227078349848    0.3073740701900168    
  0.30427505744076044    0.287989016418336    0.26257501897028834    0.23381176042552768    0.2064146109938374    
  0.18185129680497392    0.16034288722926016    0.14254742012171392    0.12918755129421272    0.12098586563087994    
  0.11795191574487407    0.1194993732826203    0.12555733861936857    0.13663764922440674    0.15349956856893604    
  0.10560551520141241    0.12261732139047847    0.14700985929090965    0.17851235053011777    0.21612941308914835    
  0.2593924905538232    0.30737412272282244    0.35415858223779384    0.3880905720792058    0.3975219080164068    
  0.3797955666864632    0.345547201261126    0.30658724461729636    0.2644134718897177    0.2191630726266546    
  0.17676524045394004    0.1425474475402009    0.11795195345573596    0.10224070384794093    0.09397425309201513    
  0.09190182498340449    0.09560786746751444    0.10560551520141241    0.07899610284565747    0.09107283391465083    
  0.11054189471784705    0.1388949836304233    0.17851225184448943    0.23291685160464995    0.30427499027138283    
  0.3880905454298541    0.46357190735674786    0.4931842321839845    0.46336582352994926    0.41614267926670695    
  0.38513014309129967    0.3504014171513326    0.2897679287417569    0.21916296988006745    0.16034294556192843    
  0.11949931411119942    0.09397427600370506    0.07970775667863172    0.07341433293409931    0.07326506373150334    
  0.07899610284565747    0.06478258293966249    0.07279434179272817    0.08730379127186838    0.11054195811664365    
  0.14700985139340816    0.20383929246459187    0.2879890019593245    0.3975218739574642    0.49318425885311656    
  0.4900145551801999    0.38928445133148293    0.31865702686745295    0.3349444187412286    0.3774255294741189    
  0.35040150831888567    0.2644133818772732    0.18185128823249416    0.1255573465661637    0.09190183099298935    
  0.07341433699696401    0.06456373663368152    0.06206001020335119    0.06478258293966249    0.05775877123100553    
  0.062481697878976644    0.07279435354205008    0.09107281685904012    0.12261726606142385    0.17636200770016552    
  0.26257501612738815    0.3797954431459883    0.46336583801103387    0.38928447293713264    0.2277310924024812    
  0.15778192004426664    0.20719882510151205    0.33494444119512595    0.3851301844502292    0.3065871364712307    
  0.20641465061050057    0.13663763137159085    0.09560777751996717    0.07326510173073315    0.06206000618187089    
  0.057494527954901196    0.05775877123100553    0.05568490027547675    0.05775880756592146    0.06478259344254574    
  0.07899610802942715    0.10560552974926427    0.15349960852981223    0.23381182054157426    0.34554721089774604    
  0.4161427959718171    0.3186571164539877    0.1577819384754416    0.10148921976297685    0.15778193003990856    
  0.31865704829124925    0.4161427555553857    0.3455472278597672    0.23381182083023674    0.15349960160957848    
  0.10560549402216667    0.07899613080059177    0.06478264744564712    0.05775880441014842    0.05568490027547675    
  0.057758780300955964    0.05749453800064621    0.06205997798120792    0.07326508854664283    0.09560781208683658    
  0.1366376367450388    0.20641461833926622    0.30658716751771314    0.38513018426659434    0.3349444562662191    
  0.20719881453693734    0.15778191946371745    0.22773107609927173    0.3892843954085037    0.46336581608384625    
  0.3797954499603179    0.2625750490720351    0.17636201977550753    0.12261727167469129    0.09107282203826775    
  0.07279435327986379    0.06248170467530912    0.057758780300955964    0.06478262354845814    0.06206002234854447    
  0.06456373742936668    0.07341434647835746    0.09190180343651076    0.12555734258671514    0.18185128666432868    
  0.26441347379909635    0.35040152010084014    0.3774255024473941    0.3349444511382955    0.31865701388837214    
  0.38928444672583545    0.4900146349297969    0.493184235891528    0.39752179137400706    0.28798901987049436    
  0.2038393144457139    0.14700986095826668    0.11054193106108019    0.08730380506841061    0.07279437740051688    
  0.06478262354845814    0.07899611343874448    0.07326511791957964    0.07341431918804697    0.07970779836182394    
  0.09397425001110363    0.11949934571429391    0.16034288367978444    0.2191630560692796    0.2897679257921404    
  0.35040136966938956    0.3851302159204584    0.41614271084879656    0.46336572115770286    0.49318419208639436    
  0.4635719337418994    0.38809051469431105    0.3042750738243781    0.23291684122385203    0.17851222980848802    
  0.13889489481566028    0.1105419553264112    0.09107282389915386    0.07899611343874448    0.10560549779594697    
  0.09560783702669783    0.09190181561593751    0.09397429401799723    0.10224069214417268    0.11795197223656974    
  0.14254748814985024    0.17676526930309053    0.21916309850917137    0.26441344132692496    0.306587227006041    
  0.34554720653759724    0.379795481470707    0.3975219171386708    0.3880906048262701    0.3541584607508247    
  0.30737418014637713    0.2593925289640792    0.21612940390813082    0.17851234930678783    0.14700979954125806    
  0.1226173314501359    0.10560549779594697    0.15349957705768358    0.13663762455876358    0.12555735842076496    
  0.11949936120476021    0.11795195937597704    0.12098587685734521    0.12918750827269448    0.14254741217550182    
  0.16034292022522084    0.18185126113255493    0.2064145681714705    0.23381180473747268    0.26257501538225597    
  0.2879890230766561    0.30427509108830647    0.3073740524140629    0.29782266239163413    0.2808922068129049    
  0.2593924512331707    0.23291681040346585    0.20383929132001014    0.17636203223004712    0.15349957705768358    
  0.23381172042183032    0.20641460478573118    0.18185121220986292    0.1603428871330202    0.1425474453645591    
  0.12918751564830447    0.12098588141604047    0.11795188107491851    0.11949935639921672    0.12555733836820157    
  0.13663765536596495    0.15349960185442454    0.17636197698880202    0.20383933679513133    0.23291684055303163    
  0.2593924600754029    0.2808921394880518    0.297822696416948    0.3073740528833367    0.3042750782468632    
  0.28798897317904576    0.26257511142658885    0.23381172042183032    0.3455472328529474    0.30658722210915923    
  0.2644134410635925    0.21916310704451591    0.17676524738175803    0.14254744964591834    0.1179519803028738    
  0.10224072445700821    0.09397429343613638    0.09190181145590195    0.0956078255591969    0.1056055077761456    
  0.12261728762661807    0.1470098538175779    0.1785123339536077    0.21612938462344203    0.25939254032512676    
  0.30737409390283377    0.35415849258916154    0.38809054911066204    0.3975218560539305    0.3797956053328069    
  0.3455472328529474    0.41614268753899397    0.3851301399545674    0.350401401933454    0.28976798661192316    
  0.21916300826036708    0.16034295888178182    0.11949932117962886    0.09397425613910568    0.07970778796911496    
  0.07341433090182221    0.07326512461460043    0.07899610847567227    0.09107280622751521    0.11054193363255546    
  0.138894944717721    0.17851229316060663    0.23291684421133266    0.304275047545329    0.38809046950418297    
  0.4635718567674706    0.4931842325839895    0.4633658754686262    0.41614268753899397    0.3186570848190765    
  0.33494448066452487    0.37742550798504654    0.35040144133474244    0.26441341793308815    0.18185126085779804    
  0.12555736685884641    0.09190181865057061    0.07341436819084952    0.06456371124390417    0.06205996930722779    
  0.0647826296026879    0.07279438503774806    0.08730377288249896    0.11054191822768746    0.1470098049241463    
  0.20383934505835483    0.287988920609809    0.3975218553874553    0.4931843096111933    0.49001459769133265    
  0.38928446339824285    0.3186570848190765    0.15778190738739215    0.20719881727175382    0.3349444114825951    
  0.3851301480130195    0.30658719439100574    0.2064145565123692    0.13663762318654607    0.09560778253219201    
  0.0732651359459989    0.0620599881584202    0.057494518176618534    0.0577587755677493    0.06248169332818983    
  0.07279436216647393    0.09107281856007177    0.12261729334474511    0.1763620803187013    0.26257500440350007    
  0.37979544406592375    0.46336576957763786    0.38928447882565576    0.22773105787999784    0.15778190738739215    
  0.10148923859425343    0.1577819351292629    0.3186570084862031    0.4161427019807365    0.34554717322287076    
  0.23381182739565776    0.1534996218159844    0.10560552680274903    0.07899609557497839    0.06478263609240577    
  0.0577588046116249    0.055684870241889645    0.057758802050572385    0.06478265760668778    0.0789961038908867    
  0.10560554410565463    0.15349965785923117    0.2338117993265323    0.34554718961825015    0.4161427418796545    
  0.3186571345181703    0.1577819593123089    0.10148923859425343    0.26838951958588614    0.3186570843742381    
  0.412125557763481    0.4179098953085933    0.328200399356165    0.2290310895844881    0.1579510981981161    
  0.11348480588840407    0.08723033262026189    0.07239598202885034    0.06478262294602927    0.062472683289738214    
  0.06478262961480465    0.07239593337121605    0.0872303062538182    0.11348478046029414    0.15795112516752477    
  0.22903112388373748    0.32820039360535663    0.41791000603666634    0.41212559646029706    0.318657132472236    
  0.26838951958588614    0.318657008126304    0.38928452449469575    0.4900145865930055    0.4931841018442683    
  0.397521834497967    0.2879890015083851    0.20383931629784297    0.14700980567664815    0.1105419300858253    
  0.08730378950148764    0.0727943618159331    0.06478258777563085    0.06205998614978601    0.0645637382033535    
  0.07341433021337697    0.09190179045530708    0.12555736995220612    0.18185125282128614    0.2644133842305526    
  0.3504014448546123    0.37742566002124034    0.33494447001966543    0.318657008126304    0.412125572983437    
  0.49001465515611303    0.5614781593834764    0.5469223445333826    0.45761747402609343    0.35185818424234805    
  0.26147743465632367    0.19359995102745822    0.14519582490623534    0.11089975381456267    0.08730382944964475    
  0.07239595693627683    0.06456375529762878    0.06287894359245913    0.0673553227785524    0.07996335303714669    
  0.10456524902684165    0.14655131522784492    0.21005137970062113    0.28752938196778677    0.3494875558713913    
  0.37742557650750225    0.412125572983437    0.41790984781647805    0.4931841823247398    0.5469222845339503    
  0.5440989675513326    0.4864164892451712    0.402643076186724    0.3199257177409642    0.24976684524853632    
  0.191863650353427    0.14519575714602262    0.11054189088901864    0.0872303382068077    0.07341431722708318    
  0.06735532727630987    0.06795047911690366    0.07558773421227018    0.09227183949191566    0.12098713812204864    
  0.16460324097742138    0.22277263016315013    0.28752937792055744    0.35040144166994974    0.41790984781647805    
  0.3282004093907359    0.39752185773116205    0.4576174937206148    0.4864165035601555    0.47005319895600967    
  0.41985112545410264    0.3620239515588283    0.30686006831826823    0.2497668531334527    0.19360000751708772    
  0.14700984273533294    0.11348478507143903    0.09190182815326214    0.07996336840373558    0.07558775747456159    
  0.07766628416938232    0.08646351205404719    0.10307287593827695    0.1287887525331074    0.164603282754969    
  0.2100514195325905    0.2644134102007239    0.3282004093907359    0.22903105315913327    0.2879889564615896    
  0.35185818958887183    0.4026431434925263    0.41985099196724407    0.40641613170403645    0.38584204668089483    
  0.36202389713585764    0.3199257637842602    0.2614772944426199    0.20383925120787297    0.15795109252051903    
  0.12555733635721444    0.10456525719485245    0.0922717945108203    0.08646349468478205    0.08623595254776296    
  0.09166693308917408    0.10307281908557082    0.12098719552586841    0.14655133538448453    0.18185125298200186    
  0.22903105315913327    0.1579510609260642    0.2038393260483798    0.2614772500732463    0.3199258326042559    
  0.3620238602740454    0.3858420096020587    0.40641611579310827    0.4198510006996045    0.40264307877752775    
  0.3518582962774662    0.2879889422236126    0.22903106942719736    0.18185125845370442    0.14655137502460747    
  0.12098714098649856    0.10307279791325347    0.09166699598773978    0.08623595097508226    0.08646346262195785    
  0.09227182698988359    0.104565213077082    0.1255573844540745    0.1579510609260642    0.11348476173483696    
  0.14700989337792522    0.19359996760451958    0.2497668640123103    0.30686007773721613    0.3620239279945257    
  0.4198510545158534    0.4700532102729345    0.4864164873189925    0.4576176156664346    0.39752188503420594    
  0.32820036529982966    0.264413487873638    0.21005145700705857    0.16460327502208566    0.1287887866139798    
  0.10307283302580707    0.08646351558262705    0.07766633058089452    0.07558773307846967    0.07996341269771366    
  0.09190185205377986    0.11348476173483696    0.08723030555681814    0.11054194241083845    0.14519576085531777    