#     DFTpy    
  CRYSTAL 
    
  PRIMVEC    
  6.029172413793104    0.0    0.0    
  0.0    6.029172413793104    0.0    
  0.0    0.0    6.029172413793104    
  PRIMCOORD    
  8    1    
  Si    0.0    0.0    0.0    
  Si    1.507293103448276    1.507293103448276    1.507293103448276    
  Si    0.0    3.014586206896552    3.014586206896552    
  Si    1.507293103448276    4.521879310344828    4.521879310344828    
  Si    3.014586206896552    0.0    3.014586206896552    
  Si    4.521879310344828    1.507293103448276    4.521879310344828    
  Si    3.014586206896552    3.014586206896552    0.0    
  Si    4.521879310344828    4.521879310344828    1.507293103448276    
  BEGIN_BLOCK_DATAGRID_3D    
  3d_datagrid_density    
  BEGIN_DATAGRID_3D#0    
  27    27    27    
  0.0    0.0    0.0    
  6.029172413793104    0.0    0.0    
  0.0    6.029172413793104    0.0    
  0.0    0.0    6.029172413793104    
  0.06809960108246212    0.11853058377536425    0.28449586230098817    0.4042541752303477    0.3271757856893295    
  0.20069738278308227    0.11694712203540165    0.07219904042879531    0.049519909331081524    0.038106409895895046    
  0.03220790146827042    0.02916437471531819    0.02773806301815158    0.02732034351102708    0.02773808130740377    
  0.02916441104453546    0.03220789779261162    0.0381064261966395    0.04951991045845142    0.07219909666134468    
  0.11694711104667413    0.20069737666108584    0.32717572561308866    0.404254126829282    0.2844958763303741    
  0.11853051686646819    0.06809960108246212    0.11853051192306976    0.17582577861820634    0.3300275338281122    
  0.4071206673618627    0.3157580694653497    0.1947038668857593    0.11553363302432479    0.07263305775700726    
  0.05046414213136169    0.03903975039646602    0.03298006569233381    0.029767002515788416    0.028205310842844215    
  0.027738077380935543    0.028205314051691372    0.029766997107800522    0.03298004391159203    0.03903973751200871    
  0.05046414946893544    0.07263307662916818    0.11553361783739043    0.1947038493110383    0.31575808555021745    
  0.40712065425638416    0.33002751103437283    0.17582577744380387    0.11853051192306976    0.284495868191346    
  0.3300274819385674    0.4065862647880897    0.38816416832046413    0.28134555782822773    0.17842877015833689    
  0.11180794482481891    0.07406607233059838    0.05340817333484559    0.04196542513785587    0.03542268909564957    
  0.031700534879021004    0.02976699528622969    0.029164390931364675    0.029767014050421654    0.03170052617452111    
  0.035422662302740174    0.041965447410612075    0.05340814850422908    0.07406606267551055    0.11180794269131052    
  0.17842874938789735    0.2813456150647548    0.3881641961859129    0.40658614127206993    0.330027525295605    
  0.284495868191346    0.40425412110453685    0.4071206163354821    0.38816417599247327    0.3196721040332675    
  0.23017732407532573    0.15633239278343936    0.10691860377279211    0.07658905246767021    0.058345618612925025    
  0.047042547808968445    0.039868484937791965    0.035422667330788596    0.03298008065767066    0.03220793080272286    
  0.03298009070039542    0.03542266887745547    0.039868485814901225    0.04704255393012781    0.05834564088017478    
  0.07658905513257402    0.1069186153671708    0.15633236064383063    0.23017734301834922    0.3196721280611299    
  0.38816409337072516    0.40712061967202007    0.40425412110453685    0.3271757487112711    0.3157581059585735    
  0.28134561251293516    0.23017733138229987    0.17711118030077383    0.13354719069965498    0.10188278526472547    
  0.08009667490696169    0.0651665200204315    0.05456886554310966    0.047042555847802384    0.041965408603781416    
  0.03903973413249817    0.038106423440042704    0.039039730010350666    0.04196541368891147    0.047042539542076406    
  0.05456884460544206    0.06516653446713756    0.08009671377741578    0.10188277423098673    0.1335471663494922    
  0.17711122101975704    0.23017741297042185    0.2813455606356447    0.31575811220851513    0.3271757487112711    
  0.20069741854839857    0.1947038117634112    0.1784288157746957    0.1563323852054761    0.13354716012497697    
  0.11348562951945719    0.09719937454133763    0.08429213294471266    0.07381886254046777    0.06516652337813361    
  0.05834561217377522    0.05340815673489348    0.0504641560493472    0.049519906239775494    0.050464145482236336    
  0.05340816552883832    0.05834561992731243    0.06516653376648911    0.07381886846428724    0.08429214124200181    
  0.09719934229762643    0.11348563202623065    0.13354719684170452    0.15633241149293678    0.1784287507291001    
  0.19470387762202937    0.20069741854839857    0.11694712667880884    0.11553363632241677    0.11180794102631407    
  0.10691859588480856    0.10188275649769452    0.09719936445807548    0.09289965849956129    0.08866382450767096    
  0.08429213489526814    0.08009667936113905    0.07658903971291306    0.07406605764078703    0.07263307296324688    
  0.07219905787537131    0.07263308796367283    0.07406608363508682    0.07658902898634788    0.08009670171367185    
  0.0842921583413986    0.08866386588304488    0.09289965027335578    0.09719935539532197    0.10188277997031413    
  0.10691861395616985    0.11180791413199159    0.11553360791909235    0.11694712667880884    0.07219906402172561    
  0.07263310057453783    0.07406607179431726    0.07658903650388742    0.08009667621591458    0.08429216149614542    
  0.08866388665864809    0.09289962005929582    0.09719933779441448    0.10188277998971378    0.10691857745650094    
  0.11180792032114185    0.11553360652052101    0.11694711636863755    0.11553364644460638    0.11180793249718052    
  0.1069185793366124    0.10188271467937854    0.09719935899166232    0.09289964763541335    0.08866383167347931    
  0.08429213112572978    0.08009668847608725    0.0765890515408063    0.07406607007960614    0.07263306074687516    
  0.07219906402172561    0.04951989082487605    0.05046414326957179    0.05340818471676283    0.05834565518787773    
  0.06516649749836785    0.07381886763553987    0.08429217117433517    0.09719932808065555    0.11348564667405037    
  0.13354721836875408    0.15633239576378977    0.17842879114730245    0.19470389972467242    0.20069744593278097    
  0.19470388109156897    0.17842875744228295    0.15633236954321247    0.13354719987566477    0.11348563838833377    
  0.09719936295274027    0.0842921816813197    0.07381885452804653    0.06516653433220382    0.05834562150126618    
  0.05340815641956918    0.05046413625143194    0.04951989082487605    0.03810641693415537    0.03903973627172962    
  0.04196543623882668    0.047042566723038685    0.05456882555279293    0.06516651755479853    0.08009669564515465    
  0.10188275329191765    0.1335471998519597    0.17711122234598492    0.23017731300519362    0.2813455563580133    
  0.3157581193070962    0.3271757963542017    0.31575805132505635    0.28134562329558505    0.23017734988965594    
  0.1771112026448834    0.1335471862247987    0.10188278847630128    0.08009668915577327    0.06516651104951472    
  0.054568836322460935    0.047042545663082753    0.0419654280275996    0.039039742266524124    0.03810641693415537    
  0.03220790840357557    0.032980072311686176    0.03542266219090571    0.039868471974434286    0.047042530628081815    
  0.05834563986656437    0.07658905631852501    0.10691860178757538    0.15633239074187386    0.2301773758063591    
  0.31967208811287845    0.38816410451108513    0.4071206440184321    0.40425420094310116    0.4071206241898034    
  0.38816409941288377    0.31967212373814585    0.2301773779948953    0.15633240899607428    0.10691859828003403    
  0.07658904099955889    0.05834564729215098    0.04704254882215469    0.039868485353658556    0.035422694741291415    
  0.03298007264286719    0.03220790840357557    0.029164378322928838    0.029767009138063863    0.031700537118651506    
  0.03542269155343084    0.04196542402818069    0.053408156625567034    0.07406606037148511    0.1118079111898768    
  0.17842876583472353    0.2813456190194114    0.3881641377423998    0.4065861751124645    0.3300275203806185    
  0.28449592054115735    0.33002750290707755    0.4065862533107252    0.38816411673631573    0.28134562387192635    
  0.17842873129518377    0.11180792084685963    0.07406605427123594    0.053408181491843426    0.041965436743138046    
  0.035422674057319095    0.03170053918346461    0.029767004086997482    0.029164378322928838    0.027738064502762262    
  0.028205304879984704    0.029767008125188874    0.032980076245900034    0.039039723595321485    0.050464153162697034    
  0.07263310292243781    0.11553361586186404    0.19470383244436212    0.31575812898443806    0.40712061366231334    
  0.3300274972509463    0.1758257365961977    0.11853050252566866    0.17582578912670518    0.33002753787899314    
  0.4071205584880527    0.31575813816843146    0.19470382874265646    0.1155336037988509    0.07263307912661808    
  0.050464154290406134    0.03903973581367586    0.03298007155051729    0.029767014874983212    0.02820529513241875    
  0.027738064502762262    0.027320333077278203    0.027738058226816856    0.029164397443590142    0.03220791845014521    
  0.03810640497410954    0.0495198855843271    0.07219909414197144    0.1169470978633366    0.20069736034539032    
  0.3271758329528575    0.40425411624992685    0.28449584692194085    0.11853054179960182    0.06809960674308163    
  0.1185305548774699    0.2844958954838791    0.404254152784597    0.3271758007767677    0.2006974422313366    
  0.11694712064068352    0.07219906379578368    0.049519883657471786    0.038106420972225725    0.0322079063020007    
  0.029164389071834586    0.02773806308462082    0.027320333077278203    0.027738060549761835    0.0282053069664307    
  0.02976700301364764    0.03298008041647248    0.03903971168392635    0.05046414259799853    0.0726330968846415    
  0.11553363615842997    0.1947038289579504    0.31575811841979845    0.40712061355882073    0.33002744498024605    
  0.17582575215592086    0.1185305359986429    0.17582575492131475    0.3300275252595104    0.4071205421483555    
  0.31575812021109834    0.19470386004696036    0.11553361653404304    0.07263306203290221    0.05046414619105385    
  0.039039754885689615    0.0329800826213524    0.02976700859622367    0.028205312493942307    0.027738060549761835    
  0.029164389692121945    0.029766997948853065    0.031700546863364966    0.03542267739742494    0.04196542575623333    
  0.05340816989856716    0.07406609693107366    0.11180791935716557    0.17842874611815082    0.2813455998065494    
  0.3881641959400207    0.4065861954449323    0.3300274715190242    0.2844958652531641    0.33002750787258606    
  0.40658617692970106    0.38816410148736336    0.28134558453968667    0.17842872207224683    0.11180796090745876    
  0.0740660576263084    0.05340818630943701    0.04196543673850728    0.035422686351925095    0.031700535766540035    
  0.029767009764024775    0.029164389692121945    0.03220793194291088    0.03298007817067571    0.03542268010194553    
  0.03986848124660233    0.04704251292728801    0.058345636525953065    0.07658906818435571    0.1069185776010074    
  0.1563324129784576    0.23017733362572293    0.3196721464028343    0.3881640812810329    0.4071206485203574    
  0.4042542156675282    0.40712060471078537    0.3881641567328582    0.3196720312578682    0.23017732903521163    
  0.15633240361742282    0.10691858576392067    0.07658903376078396    0.0583456309349416    0.04704254451296201    
  0.039868479128646946    0.03542267585025875    0.03298006871592909    0.03220793194291088    0.038106424733514985    
  0.03903974961566358    0.04196542673292434    0.04704253657066244    0.0545688195082978    0.06516650538567094    
  0.08009671115342704    0.10188277785783988    0.13354720775033035    0.1771112020601416    0.23017737103017807    
  0.2813455694854689    0.3157580303220718    0.32717579955423437    0.31575813936516417    0.28134565060235445    
  0.23017728364006865    0.17711123991692224    0.13354720675619156    0.10188276533782675    0.08009667750916624    
  0.06516652067920475    0.05456884835724299    0.047042563486303327    0.04196545312733745    0.03903973589522621    
  0.038106424733514985    0.04951990029633515    0.05046414146197541    0.053408169790487035    0.05834566691828475    
  0.06516650837100045    0.07381886715357709    0.08429216447042413    0.09719934525213952    0.11348566215035026    
  0.13354719788617891    0.1563324011084893    0.17842874835504577    0.19470387391217958    0.20069743189388817    
  0.19470387232044045    0.17842879551441918    0.15633234381833475    0.13354718414215022    0.1134856529212129    
  0.09719933196495818    0.08429214912223362    0.07381888917879878    0.06516653039008073    0.05834563830484698    
  0.05340816470092861    0.050464135485482245    0.04951990029633515    0.0721990985843599    0.07263308860397016    
  0.07406605073732325    0.07658904527326849    0.0800966736448602    0.08429215291728079    0.08866388804599065    
  0.092899618344379    0.0971993567802587    0.1018827465874031    0.10691860431795461    0.11180792023653854    
  0.11553361128241693    0.11694710903432451    0.11553363412186456    0.11180794992959114    0.10691857068072928    
  0.1018827530595475    0.09719937145571467    0.09289966219477293    0.08866385792602363    0.08429215349311885    
  0.08009667421920584    0.0765890450209532    0.07406606804292853    0.07263306377130924    0.0721990985843599    
  0.11694713714475966    0.11553363678686683    0.11180796415935843    0.10691860442640533    0.10188274724876614    
  0.09719935193167507    0.09289965660276597    0.08866384291574819    0.08429215282444509    0.08009670986572728    
  0.0765890538836844    0.0740660561357152    0.07263308073713999    0.0721990575725936    0.07263310329276088    
  0.07406606201002851    0.0765890201350019    0.0800966855968142    0.08429215393147688    0.08866385561104749    
  0.09289963217852057    0.09719936643817366    0.10188274603150971    0.10691858587023668    0.11180792256964785    
  0.11553360566693952    0.11694713714475966    0.20069739982563412    0.19470386299694334    0.17842879370974135    
  0.15633239928095505    0.13354717963042959    0.11348565032027971    0.09719937770497245    0.08429212269713528    
  0.07381886274432277    0.06516655481331031    0.05834560874665168    0.053408167132861874    0.05046413339857951    
  0.049519897567352124    0.05046416008378548    0.05340816198112949    0.0583456069407725    0.06516652641671673    
  0.07381884737147548    0.08429213859417545    0.09719934491784411    0.11348563431327206    0.13354716864440425    
  0.15633242876911319    0.1784287993930814    0.19470379452932776    0.20069739982563412    0.3271758087852732    
  0.3157580649333753    0.2813456533347922    0.23017733515205602    0.17711119224294952    0.13354720549164745    
  0.10188277225560581    0.08009667502267521    0.06516654446675568    0.054568843456467925    0.04704254915982315    
  0.041965416392951815    0.039039746292527704    0.03810640470163616    0.03903974698641761    0.04196543009498942    
  0.04704253364394025    0.054568861419522614    0.0651665555927543    0.08009669121682221    0.10188275926206539    
  0.1335471885185527    0.1771111994401709    0.23017734606345858    0.281345627132032    0.31575807009634443    
  0.3271758087852732    0.40425414554544287    0.40712061587166753    0.38816418157525673    0.3196721451573405    
  0.23017728670010573    0.15633239235257088    0.10691860501136148    0.07658903972626359    0.05834562717250194    
  0.04704254269538759    0.0398684766488483    0.03542266847089264    0.03298006423325115    0.032207922981632525    
  0.0329800732661122    0.03542266266251907    0.039868469070692615    0.047042570340027304    0.05834563651128677    
  0.07658904989899584    0.10691859909506392    0.1563323810965647    0.23017734380321744    0.3196721502205677    
  0.3881641051072232    0.4071206345500531    0.40425414554544287    0.2844958612550263    0.3300274655592501    
  0.406586212614786    0.38816414459558257    0.28134561866378544    0.17842876958615642    0.11180795103609147    
  0.07406606119842804    0.05340814753508525    0.041965442006990164    0.03542267931278348    0.03170055129175242    
  0.029767006422786357    0.029164392376987664    0.02976700535076135    0.03170053254265186    0.03542265279685306    
  0.04196541308824667    0.053408170386271596    0.07406605783357186    0.11180794010041253    0.17842875119989732    
  0.2813456186596855    0.3881642252673896    0.4065862116044134    0.330027469127215    0.2844958612550263    
  0.11853053002794871    0.17582578507383767    0.3300274806792957    0.4071206619889692    0.31575806877188767    
  0.19470380667327336    0.11553363874135601    0.07263305707257936    0.05046415814046605    0.03903974282784143    
  0.03298008460013187    0.02976700697858507    0.02820530590997672    0.027738066888399353    0.0282053123831077    
  0.02976702547609447    0.03298006811543303    0.039039719577932994    0.05046415533420393    0.0726330865272238    
  0.11553359247636182    0.19470385617421748    0.31575804120872725    0.40712069314504223    0.330027567092479    
  0.1758257886193835    0.11853053002794871    0.06809960108246212    0.11853058377536425    0.28449586230098817    
  0.4042541752303477    0.3271757856893295    0.20069738278308227    0.11694712203540165    0.07219904042879531    
  0.049519909331081524    0.038106409895895046    0.03220790146827042    0.02916437471531819    0.02773806301815158    
  0.02732034351102708    0.02773808130740377    0.02916441104453546    0.03220789779261162    0.0381064261966395    
  0.04951991045845142    0.07219909666134468    0.11694711104667413    0.20069737666108584    0.32717572561308866    
  0.404254126829282    0.2844958763303741    0.11853051686646819    0.06809960108246212    0.1185305470080999    
  0.1758258261029733    0.3300274872161051    0.40712064227059275    0.3157580998069807    0.1947038329873664    
  0.11553364457981087    0.07263306222222242    0.05046414450384423    0.039039738915802286    0.03298006882012792    
  0.02976699358188624    0.028205320532046673    0.02773807748263813    0.028205328968967557    0.029767020808585357    
  0.03298006640222657    0.03903974267783873    0.050464171368972015    0.072633111632526    0.11553360329829998    
  0.19470384710300928    0.31575806164714826    0.4071206422908955    0.3300274863262977    0.17582574664832645    
  0.1185305470080999    0.17582574537102436    0.2386375024403436    0.3784703228117987    0.4231503357801179    
  0.32227338878516265    0.20351681400938007    0.125112461153891    0.08102633961119676    0.05711944712757996    
  0.04404017011951561    0.03651934871771846    0.0320765445628484    0.029512969124467846    0.028205325424279018    
  0.027951594614367622    0.028856177740647877    0.03135260746388501    0.0365065385807378    0.0465776041661648    
  0.06638963993887707    0.10501870762921446    0.17665636901824522    0.2885384787364396    0.38823673603088876    
  0.35434835634614703    0.2291181685598134    0.17582574537102436    0.330027457360192    0.3784703147699678    
  0.4418400166545962    0.41212972977190965    0.30534698585359665    0.2031102868085063    0.13403437125984574    
  0.0922039862297016    0.06733889912824464    0.0521573988347608    0.04241935461844703    0.03608096693652269    
  0.03207653749228714    0.02976699295112867    0.028856186742556283    0.029326278755561    0.03144267412588991    
  0.03602743402153276    0.044871514410072    0.06175583574881624    0.09374156640155833    0.1516134989280885    
  0.24359718780911246    0.3482384228924758    0.39236184016050296    0.35434831600852634    0.330027457360192    
  0.40712062191179477    0.423150259193207    0.412129718114874    0.35190992471844157    0.26858457145348713    
  0.19550090185590582    0.14238934980728402    0.10613325821529022    0.08138497843655297    0.0638740207813969    
  0.05127764703886685    0.04241933536997903    0.036519365877788985    0.032980077302990234    0.031352623037346636    
  0.03144266671496495    0.033298467574802204    0.037410988399428476    0.044987069056529466    0.058570611202187366    
  0.08279932591597043    0.12431353049914984    0.18919092512989635    0.27295579841481943    0.34823833370528895    
  0.38823672536370724    0.40712062191179477    0.31575808162284985    0.322273467861855    0.30534705552396646    
  0.2685845625273272    0.22452549122945883    0.18379706600875936    0.14962585177985321    0.12173673475798467    
  0.09872064241697864    0.07941555113946883    0.06387403551451686    0.05215738299758757    0.044040132478439874    
  0.03903973915882079    0.03650653561491857    0.03602742258780928    0.0374109820639828    0.04078861140751091    
  0.046797081976256684    0.056819450786253785    0.07332131782614779    0.09954013667367645    0.1383886297677845    
  0.18919096302493732    0.2435971437939016    0.288538469996289    0.31575808162284985    0.19470385467463291    
  0.20351677281752728    0.20311032926415895    0.19550090052388294    0.18379704054441764    0.16990820237141827    
  0.15419660397500876    0.13679380540995956    0.11791010241836085    0.09872067083280818    0.08138496554126422    
  0.06733888510276045    0.05711944593309577    0.05046415950266727    0.04657761582872934    0.04487152116072412    
  0.044987043269525    0.046797087167337555    0.050479594059247276    0.05654034250192779    0.06592163249975116    
  0.07992506191243912    0.09954012551473725    0.12431358913415069    0.15161346405004353    0.17665638403900702    
  0.19470385467463291    0.11553363197455023    0.12511245200286542    0.13403433929238814    0.14238933522998978    
  0.1496258099968708    0.15419655751280137    0.15417905499458825    0.14830876026572337    0.13679380372102365    
  0.12173671818817279    0.10613325774273875    0.09220398278990928    0.08102636316230798    0.07263306699726445    
  0.06638965321765525    0.06175583830264573    0.05857059461244068    0.05681942508547069    0.05654036017556427    
  0.05784555424704151    0.06085824651612131    0.0659216367039283    0.07332130647596923    0.08279933100403665    
  0.0937415713602762    0.10501867164518089    0.11553363197455023    0.07263307476680651    0.08102637500005672    
  0.09220400200972054    0.10613324437817388    0.12173670371212116    0.13679384674674103    0.14830885787448875    
  0.15417899275767427    0.15419655471359012    0.1496258080676197    0.14238932644907007    0.1340343381195542    
  0.12511244021345327    0.11553362033683331    0.10501871261970148    0.09374158792125012    0.0827992834604864    
  0.07332128109306495    0.06592165352458026    0.060858242146907146    0.05784553172248556    0.05654034271163149    
  0.056819433661323686    0.0585706226568107    0.061755843862408816    0.06638962972736767    0.07263307476680651    
  0.050464134690353206    0.05711943484537133    0.06733890384755169    0.08138499617674831    0.09872062857788678    
  0.11791010552077202    0.13679383851507332    0.15419651730857134    0.1699082055600393    0.1837971112892202    
  0.19550091345631865    0.2031103048291188    0.2035168493475675    0.19470389114263037    0.17665641126278106    
  0.15161347426400984    0.12431354644438972    0.09954014030031265    0.07992507227042542    0.06592166045238873    
  0.05654036269025107    0.05047957827895675    0.0467970825267626    0.044987058692294135    0.044871513498599976    
  0.04657760594189915    0.050464134690353206    0.03903973200871569    0.04404013222539575    0.05215739920694688    
  0.06387403726673584    0.07941550421031056    0.09872064427374626    0.12173674242317443    0.1496257936793452    
  0.18379708676530132    0.22452557402909168    0.2685846263045886    0.30534695775142545    0.32227343552167814    
  0.31575807521316607    0.2885384364078719    0.24359721525040923    0.18919091804331825    0.1383886063494581    
  0.09954015205994433    0.07332133061477969    0.05681943483397584    0.046797076177264973    0.040788606732295535    
  0.03741097910198114    0.03602743735241707    0.0365065516436197    0.03903973200871569    0.032980053482215985    
  0.03651936412206756    0.042419325787966325    0.05127762740414666    0.06387399887801193    0.08138498844587666    
  0.10613326398276055    0.1423893433464304    0.19550089343207463    0.2685846281973198    0.35190987936660556    
  0.41212968602164135    0.42315033642833993    0.4071206705215483    0.3882367571543102    0.34823831823679413    
  0.27295573020660086    0.18919093765853995    0.12431358216670997    0.08279930911864145    0.05857059987101825    
  0.04498706053953741    0.037410971798985726    0.033298490803240634    0.03144269465268249    0.03135260438043096    
  0.032980053482215985    0.029767002110400398    0.03207654600869715    0.036080957524078854    0.04241935269228561    
  0.052157384490319064    0.06733889716531682    0.09220398244265039    0.13403433534203563    0.20311028404531659    
  0.30534704777064736    0.41212969210588835    0.4418399599156209    0.37847038321092286    0.33002756343475675    
  0.35434834558384387    0.3923618845889342    0.3482383449568324    0.24359719456105103    0.15161343963249865    
  0.09374156546828467    0.06175581157759835    0.04487152680530566    0.03602743449585301    0.031442687602775424    
  0.02932628928825608    0.028856182616971465    0.029767002110400398    0.028205301170290506    0.029512984282387186    
  0.032076548484100825    0.036519357908177806    0.04404014942813887    0.05711944530946505    0.08102639398338138    
  0.12511242962028418    0.2035168099427538    0.3222734819029321    0.4231503396471759    0.3784703625691459    
  0.23863747809511446    0.17582573565638165    0.22911820904372804    0.35434834647292474    0.3882366384458553    
  0.28853849516458885    0.17665635592403967    0.10501868728835669    0.06638963666784564    0.04657760986333473    
  0.03650654266109932    0.03135260774099846    0.028856190287575138    0.027951581584302304    0.028205301170290506    
  0.027738067541355427    0.02820530400499279    0.02976700377311056    0.03298007725701265    0.03903972706726442    
  0.050464149062462556    0.07263309535185485    0.11553361942182502    0.19470381968654873    0.31575813892077953    
  0.407120568348917    0.33002745662655764    0.17582578589219558    0.11853054207985832    0.17582577107643563    
  0.3300275262531634    0.40712061072663636    0.3157580768441902    0.19470387731802966    0.11553363373794748    
  0.07263307516374128    0.050464137343452994    0.0390397266326553    0.032980070424048165    0.02976698883255421    
  0.028205305365479907    0.027738067541355427    0.028205313458922597    0.0279515897546194    0.028856184191613142    
  0.03135261594208268    0.036506531704111785    0.04657759093346703    0.06638966418230716    0.10501868349224278    
  0.17665635676642713    0.28853846657429616    0.3882367211640074    0.3543482527124043    0.22911817679633964    
  0.17582574431649742    0.23863751516742068    0.37847040114439273    0.4231502190547761    0.3222734613382716    
  0.2035167918541953    0.12511244977755864    0.08102635735741016    0.05711942596986196    0.044040165892274157    
  0.036519367794725595    0.03207657578180546    0.02951296366269713    0.028205313458922597    0.029766993175292463    
  0.028856174327081343    0.029326293543769963    0.031442684161499694    0.036027427605873324    0.044871519302968815    
  0.0617558592067415    0.09374155959624049    0.1516134697577062    0.24359720813136174    0.34823837114747386    
  0.39236187227785785    0.3543482743817014    0.3300275191634042    0.37847034591295836    0.4418399524280593    
  0.41212968260918625    0.3053470154110966    0.20311023459940156    0.13403437387224867    0.09220397773476838    
  0.06733891235638094    0.05215740817993695    0.042419360693116845    0.03608096430790261    0.03207653624249926    
  0.029766993175292463    0.032980071847722364    0.031352623329728865    0.03144268266595734    0.03329848529637284    
  0.03741095809664988    0.0449870653863158    0.058570630362520776    0.08279929425704839    0.12431359180397752    
  0.18919092406261553    0.27295577743542826    0.3482383290839904    0.38823670806455157    0.40712067573359173    
  0.4231502846889013    0.4121297018236736    0.3519098577756832    0.2685845985078981    0.1955009022911332    
  0.14238932747646213    0.10613325216509822    0.08138496870821871    0.06387401585558024    0.05127761882763133    
  0.04241935099327313    0.03651936283819444    0.032980071847722364    0.039039737129357356    0.03650653803495748    
  0.036027442927756004    0.03741097838050829    0.040788599327687615    0.04679709092445312    0.05681945818799019    
  0.07332130496357556    0.09954015123293619    0.13838860551150273    0.18919094182030322    0.24359715616830793    
  0.2885384135031227    0.31575813586895574    0.3222734654285993    0.30534708382687586    0.2685845218084816    
  0.22452556520387074    0.18379709800873562    0.14962582345314232    0.12173671984779888    0.09872064775014458    
  0.07941552755153505    0.06387403828793169    0.05215740773980285    0.04404013259766828    0.039039737129357356    
  0.05046413932284453    0.046577585929922984    0.044871520198556475    0.0449870950301554    0.04679706200457935    
  0.050479600561302955    0.056540366415002916    0.06592162274719647    0.07992507464762097    0.09954013240945458    
  0.1243135647117045    0.15161346499253464    0.17665634910553016    0.19470384957660306    0.20351685485502857    
  0.20311030729026291    0.19550085069536663    0.18379704984003745    0.1699082133344581    0.1541965561839978    