#     DFTpy    
  CRYSTAL 
    
  PRIMVEC    
  9.772120340431972    1.8179197048275863e-09    -5.902719062068965e-10    
  1.8179197048275863e-09    9.772120342632624    -1.7028919475862068e-09    
  -5.902719062068965e-10    -1.7028919475862068e-09    9.772120343245291    
  PRIMCOORD    
  63    1    
  Si    2.443030131134386    2.1406332435609483e-08    2.443030035628092    
  Si    7.329090301350373    2.2315292288023272e-08    2.4430300353329555    
  Si    2.443030132043346    4.886060192722644    2.443030034776646    
  Si    7.329090302259331    4.886060193631603    2.4430300344815095    
  Si    2.443030130839251    2.0554886461816376e-08    7.3290902072507365    
  Si    7.329090301055236    2.146384631423017e-08    7.3290902069556    
  Si    2.4430301317482104    4.886060191871198    7.329090206399291    
  Si    7.329090301964196    4.886060192780158    7.329090206104155    
  Si    1.2215150419505512    1.2215149795093303    1.2215149955595115    
  Si    6.107575212166537    1.2215149804182899    1.2215149952643758    
  Si    1.2215150428595107    6.107575150825641    1.221514994708066    
  Si    6.1075752130754974    6.107575151734601    1.22151499441293    
  Si    1.2215150416554155    1.221514978657884    6.107575167182158    
  Si    6.107575211871401    1.2215149795668439    6.107575166887021    
  Si    1.221515042564375    6.1075751499741955    6.107575166330711    
  Si    6.107575212780361    6.107575150883155    6.107575166035575    
  Si    2.4430301444448883    2.443030067959727    3.09042966313072e-08    
  Si    7.329090314660873    2.443030068868687    3.0609160678203754e-08    
  Si    2.4430301453538483    7.329090239276038    3.005285065751409e-08    
  Si    7.329090315569832    7.329090240184999    2.9757714704410647e-08    
  Si    2.4430301441497524    2.443030067108281    4.886060202526942    
  Si    7.329090314365737    2.4430300680172405    4.886060202231805    
  Si    2.4430301450587124    7.329090238424592    4.8860602016754955    
  Si    7.329090315274696    7.329090239333553    4.886060201380359    
  Si    1.2215150452242576    3.664545173342264    3.664545178901084    
  Si    6.107575215440243    3.664545174251224    3.6645451786059486    
  Si    1.2215150461332178    8.550605344658575    3.6645451780496385    
  Si    6.107575216349203    8.550605345567536    3.664545177754503    
  Si    1.2215150449291219    3.664545172490818    8.550605350523728    
  Si    6.107575215145108    3.6645451733997785    8.550605350228594    
  Si    1.2215150458380817    8.55060534380713    8.550605349672283    
  Si    6.107575216054067    8.550605344716088    8.550605349377147    
  Si    4.886060126740358    2.4560328889028326e-08    4.685323880962571e-08    
  Si    9.772120297865305    4.886060196785602    4.5706656882729155e-08    
  Si    4.886060127649317    4.886060195876641    4.600179283583261e-08    
  Si    9.772120296661209    2.461784276764902e-08    4.886060218180748    
  Si    4.886060126445223    2.370888291523523e-08    4.886060218475884    
  Si    9.77212029757017    4.886060195934155    4.886060217329303    
  Si    4.886060127354181    4.886060195025195    4.886060217624438    
  Si    3.6645451305418164    1.2215150126598846    3.664545173274423    
  Si    8.5506053007578    1.2215150135688444    3.6645451729792886    
  Si    3.6645451314507764    6.107575183976197    3.664545172422978    
  Si    8.55060530166676    6.107575184885156    3.6645451721278417    
  Si    3.6645451302466796    1.2215150118084388    8.55060534489707    
  Si    8.550605300462664    1.2215150127173986    8.550605344601934    
  Si    3.6645451311556396    6.10757518312475    8.550605344045623    
  Si    8.550605301371624    6.10757518403371    8.550605343750489    
  Si    9.772120280305733    2.443030059649339    2.4430300557346643    
  Si    4.8860601100897485    2.4430300587403786    2.4430300560297997    
  Si    9.772120281214692    7.32909023096565    2.4430300548832182    
  Si    4.8860601109987085    7.329090230056691    2.443030055178354    
  Si    9.772120280010597    2.443030058797893    7.32909022735731    
  Si    4.886060109794612    2.4430300578889326    7.329090227652444    
  Si    9.772120280919557    7.329090230114204    7.329090226505864    
  Si    4.886060110703573    7.329090229205245    7.329090226800998    
  Si    3.6645451227953934    3.664545177761151    1.2215149936874727    
  Si    8.550605293011378    3.66454517867011    1.2215149933923368    
  Si    3.664545123704354    8.55060534907746    1.2215149928360267    
  Si    8.55060529392034    8.550605349986421    1.2215149925408908    
  Si    3.664545122500257    3.6645451769097046    6.107575165310117    
  Si    8.550605292716241    3.664545177818664    6.107575165014983    
  Si    3.6645451234092175    8.550605348226016    6.107575164458671    
  Si    8.550605293625203    8.550605349134978    6.107575164163536    
  BEGIN_BLOCK_DATAGRID_3D    
  3d_datagrid_density    
  BEGIN_DATAGRID_3D#0    
  43    43    43    
  0.0    0.0    0.0    
  9.772120340431972    1.8179197048275863e-09    -5.902719062068965e-10    
  1.8179197048275863e-09    9.772120342632624    -1.7028919475862068e-09    
  -5.902719062068965e-10    -1.7028919475862068e-09    9.772120343245291    
  0.0666080211912797    0.06900963876103287    0.07560133810889086    0.08469553353708877    0.09357279599703364    
  0.098886633071849    0.09865292325063571    0.09312952039892095    0.08467119644931645    0.07672524733251544    
  0.07198309057943593    0.07242356441590926    0.080090745808111    0.09830320448666009    0.13321984678956747    
  0.19379068753545173    0.28902551899168777    0.40393159409912865    0.43077259704256965    0.26478152478095796    
  0.09689096580679239    0.05180492625526699    0.09689099146850437    0.264781608340128    0.43077250634681297    
  0.4039316417538325    0.2890255688570122    0.19379067517501905    0.13321985124611696    0.09830311115059522    
  0.08009076417778636    0.07242357795892052    0.07198306991784514    0.0767252192176513    0.08467122411241847    
  0.09312951325818085    0.09865292030469613    0.0988866117117164    0.09357282367999854    0.08469551498121174    
  0.0756013040841261    0.06900967340858614    0.0666080211912797    0.06900967235668545    0.07157198616229292    
  0.07865802867276706    0.08847708991113605    0.09809751138263749    0.10395823327597162    0.10386771109888146    
  0.09814514824848533    0.08931588467663577    0.08089595866627064    0.07576800270305745    0.07612176225349547    
  0.08400307719019831    0.10239252136580541    0.13710897714796863    0.196589644117081    0.28924114651799454    
  0.40336188862112676    0.44952483732692766    0.31958800348004585    0.15192616454883445    0.09689224363647837    
  0.1519261928055878    0.31958810543522875    0.4495247747204409    0.4033618946974647    0.28924112981157135    
  0.19658961781311998    0.13710899133066715    0.10239246966637038    0.08400310624638913    0.0761217660681897    
  0.07576798202027814    0.08089595403339161    0.08931588091033187    0.09814519858215523    0.10386771452414247    
  0.10395823283222513    0.09809755513364198    0.08847709820648351    0.07865800329075183    0.07157201747945978    
  0.06900967235668545    0.0756013408833705    0.07865798378762762    0.0871867747092052    0.09912615751794855    
  0.11106649152142938    0.11889007563152794    0.11969127007649567    0.11375032733726988    0.10395180397952751    
  0.0942462028661433    0.08816432140119448    0.08827454883203065    0.09654638484738591    0.11530334838111998    
  0.14911481237679447    0.2047333122987659    0.28817607448819266    0.3932608150621186    0.46989403507457234    
  0.4337016739375858    0.31961799329637275    0.2648013729368454    0.31961798316052065    0.43370174644485    
  0.46989395149122726    0.39326073354375196    0.288176068491796    0.20473327020106313    0.14911477776137308    
  0.11530338258729765    0.09654641402066723    0.08827453371914082    0.088164311132585    0.09424618533753629    
  0.10395178346328666    0.11375031512310922    0.11969127393050569    0.11889009009453616    0.11106650366692791    
  0.099126171593204    0.08718675208298898    0.07865802329592116    0.0756013408833705    0.08469555235236255    
  0.08847708550896008    0.0991261620224104    0.11437050775739516    0.1304038663341169    0.14224014224794587    
  0.1459508811028639    0.1412794089295177    0.1311942427759899    0.12039226513939029    0.11340200170966765    
  0.1131185670544205    0.12136827880027119    0.1395813077277078    0.17021739098276628    0.21715093888384537    
  0.28297590940827483    0.36363706153102837    0.4384547618025894    0.46954286068152146    0.4492376773637025    
  0.4304985101597572    0.4492376225952513    0.46954292978247475    0.43845465469716716    0.3636369931705317    
  0.28297586864740165    0.21715090671068968    0.1702173571484227    0.13958130537594227    0.12136832016534813    
  0.11311852873181323    0.11340201183908466    0.12039224689722064    0.13119427196995173    0.14127934515968768    
  0.1459508613286805    0.1422401655980549    0.13040388275381348    0.11437046023423515    0.09912615151132037    
  0.08847709326901175    0.08469555235236255    0.09357279598096724    0.09809747419487966    0.11106651841878885    
  0.13040388118869609    0.1521920969786771    0.1709469807321125    0.18171822223627354    0.18276448917051122    
  0.17587628003002742    0.16603567137298844    0.15896053391867776    0.15822019684186794    0.16533656613077088    
  0.18032278752295391    0.20278697789413247    0.23371096812413902    0.2737181368518214    0.3195302314086873    
  0.362853189888044    0.39222352534782867    0.4024410129963663    0.4030667267534755    0.40244091862141657    
  0.39222356504001915    0.3628531752127689    0.3195302196255238    0.27371814885759016    0.23371095065012518    
  0.20278689906539624    0.18032276690784485    0.16533657984454625    0.15822017563770968    0.15896051135848926    
  0.16603564018742983    0.1758763532123774    0.18276446147307107    0.18171819985025592    0.17094700328949172    
  0.152192120614763    0.13040386564964893    0.11106650196441656    0.0980975159669512    0.09357279598096724    
  0.09888666306609223    0.1039582172072381    0.11889008992733795    0.14224015204832063    0.1709469667869406    
  0.20041488770100319    0.22489468173979346    0.23956926205752632    0.2433005305712976    0.23958617730654747    
  0.2347939163268073    0.23374236109761456    0.2374166297051958    0.2436808957340578    0.24984725150574266    
  0.25586562750835007    0.2635552399065792    0.27293081130124797    0.28161614801144935    0.2867663711593124    
  0.2880379570848749    0.2879346670874295    0.2880379384283062    0.2867664673109595    0.28161595439027276    
  0.2729307905041433    0.2635552373735488    0.2558656253732253    0.24984724716397308    0.24368085538099382    
  0.23741666005663678    0.23374238561096053    0.23479388194024892    0.23958618493020253    0.24330058131906732    
  0.23956925797190876    0.22489468347931046    0.2004149223580073    0.17094699224964333    0.14224013343434347    
  0.11889006902538067    0.1039582327089801    0.09888666306609223    0.09865290186407717    0.10386764764736242    
  0.11969124491688166    0.14595087751329028    0.1817181564312247    0.22489466180781154    0.26981460796844564    
  0.3083117093395888    0.33363697601679326    0.34364898989426207    0.3441406608706373    0.34329201176563473    
  0.34125788810776464    0.3314720601463736    0.31063376689364663    0.2829562068525082    0.25532665354396517    
  0.23260574828068492    0.21583904828217607    0.20362704877171464    0.19580203102329888    0.1931578039556155    
  0.19580203810910188    0.2036270593529547    0.2158389870960432    0.23260573157820752    0.2553267121649525    
  0.28295613821072    0.310633765744991    0.3314719091078569    0.34125790012083274    0.3432919485815151    
  0.34414069668922526    0.34364899826368417    0.33363701009824465    0.3083117549412039    0.2698146526006703    
  0.22489469875351123    0.18171820467707847    0.14595086878737926    0.11969122128686618    0.103867696160815    
  0.09865290186407717    0.09312950418125432    0.09814513047382505    0.11375033671077343    0.1412794000169984    
  0.1827644401894891    0.23956926043501758    0.30831169495891797    0.3780139717052824    0.4290778798900067    
  0.44444176459484297    0.4370572772595474    0.4370879222573915    0.4440187750166967    0.4275811319219843    
  0.3766654532766307    0.3106995690306716    0.24956594510435387    0.20224276459142554    0.1697573173479221    
  0.1489779891267342    0.137305811268494    0.13357171299110396    0.13730576358345656    0.1489779948478633    
  0.16975733829558262    0.2022427871422986    0.24956596898864347    0.3106995672188671    0.37666539835660556    
  0.42758109873970773    0.44401875666286833    0.43708798040156355    0.43705720192397296    0.4444417481197145    
  0.4290781666431664    0.3780139868070881    0.30831169922180407    0.2395692592237933    0.182764485190049    
  0.14127942186376166    0.11375032297325698    0.09814515962127675    0.09312950418125432    0.08467120121212701    
  0.08931589286577032    0.10395180299074279    0.13119422668245492    0.17587632731024452    0.24330055156204944    
  0.3336369014589546    0.4290779770360839    0.47739637039420074    0.4376970305805534    0.37391712776210123    
  0.3748463882166178    0.44014309355164166    0.4793755256569132    0.42884388401890894    0.33279456450896505    
  0.24457480884834693    0.18092350953979805    0.14023230015400406    0.11618522656884978    0.10352275876886052    
  0.09954325954082589    0.10352272231009284    0.1161852292535952    0.1402322822957135    0.18092345560740142    
  0.24457474084041858    0.332794462662445    0.42884386732360946    0.47937551306768594    0.44014315906760143    
  0.37484636838400315    0.3739171248970144    0.4376970573032398    0.47739644902334444    0.4290780384237418    
  0.333636964065072    0.2433005431648561    0.17587638269690836    0.13119423044548698    0.10395176393718551    
  0.08931590672317725    0.08467120121212701    0.07672522612263939    0.08089596321206476    0.09424619565662941    
  0.12039223113527629    0.1660356175782347    0.23958616445762126    0.34364899743396227    0.4444416884468129    
  0.4376971102454108    0.2939588351588197    0.17893016883070323    0.17976359507361184    0.2970717677852235    
  0.4424139559562252    0.4475620976554099    0.3443107503035068    0.23949181347417617    0.16685026666591926    
  0.12275889619938746    0.09804241797270584    0.08566222003782888    0.08182144155564747    0.08566220922983148    
  0.0980424659122232    0.12275889891668722    0.16685022372513797    0.23949175415933946    0.34431065453138326    
  0.44756196262932363    0.44241391808867336    0.29707183957065775    0.17976361625570286    0.17893017759000387    
  0.2939588591054677    0.4376970534365355    0.4444416788100718    0.3436490751351468    0.23958623654880098    
  0.1660356732277869    0.12039224930089786    0.09424620941488548    0.08089593287484202    0.07672522612263939    
  0.0719830528018044    0.07576796509449656    0.08816429163733353    0.11340199536744672    0.15896046614748513    
  0.23479383474936955    0.34414056912118285    0.4370571839286368    0.3739170776586415    0.17893022494002753    
  0.0726002363630761    0.07299565181709981    0.18102307126209677    0.37872471906852334    0.4420592164760839    
  0.346998817887526    0.23603377942492546    0.15983059482268522    0.11459184386339649    0.08987751879958751    
  0.07789670737088629    0.07426417737878718    0.07789671499163316    0.08987752955517324    0.11459181097395373    
  0.15983058035661832    0.23603377542123874    0.34699874831097727    0.44205916476714385    0.378724715904607    
  0.18102320281386797    0.07299567020789241    0.07260020727133391    0.17893013677342903    0.3739171421068574    
  0.43705713398806045    0.34414068506503626    0.23479391018019943    0.1589604860010966    0.11340195437799075    
  0.08816433231203108    0.07576797637778278    0.0719830528018044    0.0724235575284679    0.07612173591367306    
  0.08827452055555596    0.11311854828328834    0.15822014084091807    0.23374231707002832    0.3432918583610104    
  0.43708797409405986    0.374846387848987    0.1797636519643574    0.07299568559185331    0.07319482028487323    
  0.18099815896342894    0.3782173589663621    0.4412655747977635    0.34642935308970824    0.23584114847351426    
  0.15982962695053324    0.11465837365015566    0.08993655719198962    0.07791581560841533    0.07426336982004578    
  0.07791579258044824    0.0899365714715797    0.11465836994197272    0.1598296370084723    0.2358410937903735    
  0.34642925650479267    0.44126554822538    0.3782173568049605    0.18099827566938798    0.07319485122825742    
  0.07299565506107976    0.17976354688408336    0.3748463449653012    0.4370879109890399    0.34329198765020486    
  0.2337423468528302    0.1582201366794437    0.11311849712019925    0.08827452894511646    0.07612176786083577    
  0.0724235575284679    0.08009074709158906    0.08400309718663374    0.09654638822610219    0.1213683242471405    
  0.1653366181515735    0.23741659880858387    0.34125781775407016    0.44401875439337685    0.4401431292238692    
  0.29707187905510374    0.18102319546488885    0.1809982764890453    0.2971826004229304    0.44091330173605625    
  0.44541398663948556    0.3428379952194139    0.2389768859881576    0.1668884729949289    0.12297206171597    
  0.09821592197403829    0.08570744729698904    0.08180751444633767    0.0857074261456318    0.09821592792876407    
  0.12297199518059172    0.16688846312364972    0.23897683964573282    0.3428379695475697    0.4454138357162813    
  0.4409132847822986    0.2971827150634878    0.18099824810085124    0.18102322812246302    0.29707181085512807    
  0.4401431932528938    0.4440187733304905    0.3412579473105041    0.237416648974006    0.1653365654266952    
  0.1213683110977711    0.09654637512533176    0.08400308795763049    0.08009074709158906    0.09830315950998417    
  0.10239244458704154    0.11530334954806398    0.13958128707049347    0.18032273180829564    0.24368088123493087    
  0.33147190332982623    0.4275810786540695    0.4793755686748416    0.44241386415632417    0.3787248454773811    
  0.37821732341407305    0.44091336726587654    0.47738891974332043    0.4261060852034495    0.33094227909867363    
  0.24393947889598724    0.18109231568488282    0.14063032130714484    0.11645448566372592    0.10356761888269465    
  0.09947579935742167    0.10356765101752709    0.1164545157628439    0.140630285958649    0.1810922831598083    
  0.2439394833368837    0.3309422140962069    0.426106019847949    0.47738883421035255    0.4409132291738678    
  0.378217409460549    0.3787247827364641    0.4424139007290032    0.47937555726259484    0.4275811650759716    
  0.3314719906853531    0.2436809170972316    0.1803227169554535    0.1395813011647538    0.11530336786781943    
  0.10239247045489479    0.09830315950998417    0.13321984295399325    0.13710893528928203    0.14911476066976184    
  0.1702173771500279    0.2027868924885819    0.24984724141382997    0.3106336502167232    0.3766653788366736    
  0.4288436927933452    0.44756190615647284    0.44205925115751427    0.44126557885240764    0.4454138387377847    
  0.4261059938061704    0.3742252442631909    0.30899602545832916    0.24906790772120074    0.2026390532099977    
  0.17036432424399944    0.1493316507760613    0.13730336586780378    0.1333995347526279    0.13730337967955678    
  0.1493316714212843    0.17036432474778979    0.20263912281403365    0.24906791380633722    0.30899594820176157    
  0.3742251705916899    0.4261058850892463    0.44541388792515185    0.4412656908233699    0.4420591504250183    
  0.4475619483066139    0.42884392439140057    0.37666533838409805    0.3106337133377851    0.249847228000706    
  0.20278688062526512    0.17021734947591272    0.14911475768585092    0.13710898268122906    0.13321984295399325    
  0.193790712214968    0.19658958005292385    0.2047332794326641    0.21715097895268168    0.2337109508238639    
  0.2558655910983814    0.2829560908156807    0.3106994717952346    0.3327945013557403    0.34431073405412477    
  0.34699885487411214    0.3464292651387757    0.34283797627637935    0.33094220639562577    0.3089960230260327    
  0.2817185252475057    0.25512919813769064    0.2332368859327539    0.21665952327774576    0.20405381244682042    
  0.19571550076334182    0.19283270442943934    0.19571550412526328    0.20405383503933452    0.21665949810289123    
  0.23323682907190726    0.25512918316696426    0.28171848737545174    0.30899600955073514    0.3309421640721844    
  0.3428379091020572    0.3464293153568307    0.34699885297581623    0.344310734700676    0.33279449111726145    
  0.3106995077718648    0.28295617785075233    0.25586565536142386    0.23371096533924088    0.2171509033133271    
  0.2047332405287985    0.19658962117234258    0.193790712214968    0.2890255797472986    0.2892410761983906    
  0.28817603434675365    0.28297575675476466    0.27371813456291577    0.2635552296213108    0.25532668673933545    
  0.24956598818742257    0.24457478763152293    0.23949174004881785    0.23603372759599292    0.23584116566953522    
  0.23897685042007433    0.24393952958504747    0.2490679123625342    0.25512920019421875    0.2635722591345553    
  0.27368571114372253    0.28259137374584337    0.28727265958485537    0.28788069089282403    0.2874890530136955    
  0.28788070220305084    0.287272698326548    0.28259130828014356    0.27368567074254463    0.2635722794270816    
  0.25512914518275204    0.2490679347517736    0.24393948566756626    0.23897690080011633    0.23584108220919694    
  0.23603373486342458    0.23949182350729667    0.244574826525281    0.24956596860179764    0.2553267314846363    
  0.26355523013785087    0.2737181586650907    0.28297586192919694    0.288176052667853    0.28924106921003334    
  0.2890255797472986    0.4039316227308849    0.40336180299229396    0.3932607254540699    0.3636369696472899    
  0.31953023733526303    0.272930773099089    0.23260572872180563    0.20224280192394478    0.18092345478096708    
  0.16685024000603466    0.15983055259369724    0.15982966349310887    0.1668884616010317    0.18109234127199741    
  0.2026391298144758    0.2332368509590521    0.2736857128985839    0.32016080715302253    0.3638385744242219    
  0.3928234705466742    0.40235742820623016    0.40270000574672177    0.40235731677615466    0.3928234989062924    
  0.3638384949566614    0.3201607224966452    0.273685746542674    0.23323682197164639    0.2026390948960024    
  0.18109233348243223    0.16688847408198204    0.15982967689959435    0.15983059951121595    0.1668502018021511    
  0.18092346493474115    0.20224279673188555    0.23260577254812395    0.2729308223201479    0.31953029198525246    
  0.36363704998854374    0.39326080911368677    0.40336189831384606    0.4039316227308849    0.43077253200676    
  0.4495246959222094    0.4698939489838993    0.4384546422673564    0.3628530874368467    0.28161594528830014    
  0.2158390333738453    0.16975736531815958    0.14023228121260234    0.12275895570225197    0.114591845345661    
  0.11465838972932306    0.12297194819237496    0.14063029583022507    0.17036433315415675    0.21665953899582424    
  0.28259129826945484    0.3638385287630804    0.4392127017824675    0.4702149951000169    0.4494193834972298    
  0.4305069945555457    0.4494193935410409    0.47021500801525845    0.439212617584509    0.3638385059301939    
  0.28259129273891354    0.21665955860739777    0.17036432702115956    0.1406303138406305    0.12297197701434733    
  0.1146583676429833    0.11459183674564871    0.12275886402990588    0.1402323272555558    0.16975731206481368    
  0.21583906755030963    0.28161601646499657    0.36285311271642495    0.4384547054733818    0.4698938986412788    
  0.44952477013858544    0.43077253200676    0.2647816195214178    0.3195880713330198    0.4337018351406566    
  0.469542944824993    0.3922234860633555    0.2867664154142186    0.2036270600028631    0.14897795771000222    
  0.11618516084169823    0.09804243506848237    0.08987754807005598    0.08993657569186952    0.0982159155569847    
  0.11645450826083707    0.14933169473940197    0.2040538366653848    0.28727279132939015    0.39282357868735907    
  0.47021507949990515    0.4342850109214962    0.31997046887806346    0.26506643591465645    0.31997042061201464    
  0.4342852289511875    0.4702151581067866    0.39282348696475217    0.2872727504863282    0.20405378410892733    
  0.14933165909533325    0.11645450666711232    0.09821591999760795    0.08993661114165899    0.08987755973201929    
  0.09804246226933769    0.1161852054460888    0.14897798171206736    0.20362704224638045    0.28676647520372833    
  0.39222353311436653    0.469543044945726    0.4337016429635425    0.3195880681588712    0.2647816195214178    
  0.09689102513015144    0.15192618948255818    0.3196180899188744    0.44923765983841485    0.4024409061625041    
  0.28803789621808    0.1958020360731852    0.13730578481479835    0.10352274486507737    0.08566225555894984    
  0.07789673325170243    0.07791581189402678    0.08570743324563965    0.1035676277103072    0.13730335659164608    
  0.19571558886264198    0.28788069654021714    0.40235741854254814    0.4494194091166212    0.31997036764380854    
  0.1521819473506423    0.09708108597834522    0.15218199150911474    0.31997045436419164    0.44941940621374216    
  0.40235736956021595    0.2878807028448286    0.1957155461326277    0.13730333425864308    0.10356759580139453    
  0.085707462118749    0.0779158046913224    0.07789669327135706    0.0856622068055927    0.10352277915638586    
  0.13730574610456805    0.19580207358554513    0.28803798645471346    0.4024409859132197    0.449237627678487    
  0.31961788493059956    0.15192617351487692    0.09689102513015144    0.051804926324435625    0.09689225192857667    
  0.2648013636252935    0.4304985432494439    0.4030665615398877    0.28793462720190177    0.19315780392630172    
  0.133571745685778    0.09954323081369643    0.08182145765665538    0.07426421235591667    0.07426336418194972    
  0.08180749192141    0.09947581342096168    0.13339949882748417    0.19283271118513284    0.2874890129353562    
  0.40270001513680626    0.43050702947510394    0.26506627625216295    0.09708105984175966    0.05192954685068882    
  0.09708108060416523    0.26506638637103624    0.43050704304170867    0.40269997631334653    0.2874889967118576    
  0.1928327108146015    0.1333994886900006    0.09947577266744005    0.08180754111341094    0.0742634073292896    
  0.0742641924472139    0.08182141832900998    0.09954323075413646    0.13357174382265258    0.19315785956076065    
  0.2879346673130707    0.4030666492195747    0.4304986003566428    0.26480124856406606    0.09689221452480688    
  0.051804926324435625    0.09689100198134228    0.15192618169845318    0.31961806266821235    0.4492376399601245    
  0.4024409830685037    0.288037932083566    0.19580201929722757    0.13730576026944996    0.10352274946268361    
  0.08566222395765674    0.0778967215372491    0.0779158013392475    0.08570741051938949    0.10356763188227625    
  0.13730338354445473    0.19571551622197356    0.2878807259038782    0.40235739540975834    0.4494194445544599    
  0.3199703042659245    0.15218196477549284    0.09708105594423354    0.15218198763517085    0.319970465647158    
  0.4494193433521037    0.4023574112943746    0.2878807730149543    0.19571550128339302    0.13730335399523283    
  0.10356758755471847    0.08570746229539151    0.07791580269188109    0.07789671966749569    0.08566221842567225    
  0.10352272887057008    0.13730578007920963    0.1958020563947336    0.2880379856358249    0.4024409868517588    
  0.4492376083987948    0.3196179371883813    0.15192616258541833    0.09689100198134228    0.2647816017321167    
  0.31958799154418516    0.4337017708303305    0.4695429250547071    0.3922234914704669    0.2867664589352299    
  0.20362706932394886    0.148977982142801    0.11618517676825242    0.09804244781208617    0.08987757022458588    
  0.08993662419290889    0.09821592439982874    0.11645453828036106    0.14933170218067096    0.20405386694827024    
  0.2872727031351859    0.39282358675989015    0.4702151685949232    0.4342850358106128    0.31997036047284094    
  0.26506643319838247    0.31997037632526315    0.4342853019089085    0.4702150688467133    0.39282352886028726    
  0.287272750970082    0.20405384007122376    0.14933165030550863    0.11645454596905645    0.09821595255201646    
  0.08993660933262422    0.08987757050109452    0.09804245746862124    0.11618520347909223    0.1489779544557117    
  0.2036270923011314    0.28676643300890714    0.3922235859350402    0.4695429984491204    0.43370166827220274    
  0.319587982535967    0.2647816017321167    0.4307725677791823    0.449524699172646    0.46989396609129863    
  0.4384546691774927    0.3628531231985184    0.28161601735000585    0.21583905056583813    0.16975735821746918    
  0.1402323017956167    0.12275892005355302    0.11459183607630101    0.1146583905417393    0.12297197595987391    
  0.14063031596348266    0.17036437203476376    0.21665949853083655    0.2825913559539357    0.3638385671000243    
  0.439212686219618    0.47021505505295214    0.4494194704691691    0.4305069881122497    0.44941935896637086    
  0.4702150439984231    0.4392126006210324    0.36383848382181055    0.28259137506593923    0.21665950621236485    
  0.17036428379107957    0.14063030240499313    0.1229719670158355    0.11465838778974521    0.11459181807595595    