#     DFTpy    
  CRYSTAL 
    
  PRIMVEC    
  5.014472025219255    2.097869274622138e-05    -5.259744827586207e-13    
  -2.507217844527715    4.3426707753311735    -1.0290948275862069e-11    
  -8.649006896551725e-13    -2.0038007586206895e-11    8.244571148931747    
  PRIMCOORD    
  4    1    
  Si    1.2482948705523534e-05    2.8951206380088244    4.636531055080591    
  Si    2.507241697736959    1.4475711159795723    0.5142454197348818    
  Si    1.2482950589428841e-05    2.8951206380076298    7.73032566831299    
  Si    2.507241697745096    1.4475711160117344    3.6080401547133962    
  BEGIN_BLOCK_DATAGRID_3D    
  3d_datagrid_density    
  BEGIN_DATAGRID_3D#0    
  23    23    37    
  0.0    0.0    0.0    
  5.014472025219255    2.097869274622138e-05    -5.259744827586207e-13    
  -2.507217844527715    4.3426707753311735    -1.0290948275862069e-11    
  -8.649006896551725e-13    -2.0038007586206895e-11    8.244571148931747    
  0.009681916976953421    0.009946151133888647    0.010852447493812478    0.012827262224719681    0.01667559682551368    
  0.023659620015201305    0.03560924941407198    0.05446681889891797    0.08056278478531881    0.11021252821282515    
  0.13483712861024452    0.14453159153332207    0.13483710865670995    0.11021250462033085    0.0805628297970821    
  0.05446682383656774    0.03560923281188928    0.02365963134506972    0.016675602134042934    0.012827255022005614    
  0.010852444643331708    0.009946152820821534    0.009681916976953421    0.009946167843209711    0.009945668101616534    
  0.010534288400699135    0.011998306022316248    0.014998632473962471    0.020680989065438145    0.030874158074538385    
  0.04794512638929462    0.07358924912983159    0.10629966298745869    0.1388796454444184    0.15974132724258175    
  0.1597438367228728    0.13887851065419013    0.10629238892747483    0.07359766273651511    0.04794875816205244    
  0.030870922200688152    0.020682210659438052    0.014998294414782103    0.01199887011446222    0.010533758301833316    
  0.009946167843209711    0.010852445835799937    0.010534277935470916    0.010852423122678425    0.01199854395939754    
  0.014553470940060811    0.019669331326279273    0.029434362115120145    0.04706809462209319    0.07606840653415384    
  0.1173994006955217    0.1651501984268815    0.2048806075381504    0.22043354838967766    0.20488232407952567    
  0.16516740992872272    0.1173999975839709    0.07606038252375387    0.047071582815237024    0.029437116731983487    
  0.01966939945621531    0.014553449719854698    0.011998868938275066    0.010852445835799937    0.012827282674253577    
  0.011998305162312244    0.011998549747984404    0.012827085659457038    0.014998565321255047    0.01966823734735874    
  0.02919106233739732    0.04770908610839661    0.08102958687510099    0.13396839786824183    0.20323955077672212    
  0.2712881309190741    0.31324452027474886    0.3132402368020879    0.27127663522336043    0.2032466534187431    
  0.1339782871454805    0.08103462738219298    0.04771034651608905    0.02918940373646136    0.019669418597504228    
  0.014998305515825022    0.012827282674253577    0.016675604901925416    0.014998621045861709    0.014553478907485934    
  0.01499857671797392    0.016675435593128347    0.020682282742388154    0.0294348260582654    0.047708957225971675    
  0.0833760625416017    0.14583470736157522    0.23667541247317567    0.3348138467534341    0.4042070349945465    
  0.4272031114832801    0.40423251001672744    0.3348134191624737    0.23666971922607272    0.14584626771552847    
  0.08337317931917805    0.04771031532238225    0.029437123501187486    0.020682213587265987    0.016675604901925416    
  0.023659636767110324    0.020680989477748917    0.019669338490036072    0.019668222755858358    0.02068229353160342    
  0.023658170292497456    0.030874774416676614    0.0470683949489513    0.08103131124572048    0.14584041331727327    
  0.24991818956236064    0.37093293738409444    0.4526459703527487    0.47600521203075635    0.4759929246353159    
  0.45265803237338104    0.3709675267975079    0.24990940168791578    0.14584623011176165    0.08103459937845049    
  0.04707161782752326    0.030870920252806917    0.023659636767110324    0.035609255928493906    0.030874159103783654    
  0.02943436739940178    0.029191071996073105    0.029434801181557533    0.030874775874726416    0.035606339501926876    
  0.047950190428343566    0.07606407596246517    0.13397649748099258    0.23666428551932178    0.3709621916695412    
  0.463058083828681    0.4647989791200451    0.446445641962119    0.4647930336997182    0.46306207867435323    
  0.3709675572283366    0.23666975711019425    0.13397830049951248    0.07606041420604184    0.047948754697648026    
  0.035609255928493906    0.05446681136222426    0.047945121119387056    0.04706808192332985    0.0477090564623379    
  0.04770892998449293    0.047068376648047604    0.047950169046155726    0.05446744511680297    0.07359319260358779    
  0.1174041110983977    0.20324367852839972    0.33481156930956396    0.4526610120544637    0.4647899444851762    
  0.4145087870677458    0.41452454722526577    0.4647927156783386    0.4526577940514866    0.33481329157217743    
  0.20324647979164878    0.11739999168497495    0.07359767265360963    0.05446681136222426    0.08056284181020183    
  0.07358921974147102    0.07606846133049004    0.08102958261513543    0.08337602393150981    0.08103132039056231    
  0.07606407708995197    0.0735932038274837    0.08056992290331015    0.10629379678363737    0.16516918403254313    
  0.2712818510184484    0.40423582420807413    0.4759621146283457    0.4464796132644823    0.41450879814498254    
  0.44644569186780325    0.4759929892746932    0.4042325402607254    0.2712765924623501    0.16516751406932068    
  0.10629235902019035    0.08056284181020183    0.1102125476695483    0.10629962219061062    0.11739942594033191    
  0.1339682835202936    0.14583459584890188    0.14584031987419863    0.13397644491277164    0.11740407450357822    
  0.10629377170501109    0.1102230875928322    0.13887967434491855    0.20489226841460517    0.3132441111543626    
  0.42722579619284345    0.47596218158065307    0.4647899740123459    0.4647988817469457    0.4760052353050002    
  0.4272033163591792    0.31324025465892036    0.20488241264044993    0.13887850094650236    0.1102125476695483    
  0.13483717144262963    0.13887969286091534    0.16515016914468753    0.20323953343054182    0.2366753994357822    
  0.24991820827634603    0.23666430091685312    0.20324373577625485    0.16516917288693847    0.13887977172514251    
  0.13484423637271034    0.15974981275751202    0.22043977298239192    0.31324414931612804    0.40423577569581937    
  0.4526611342221844    0.46305819574914064    0.45264598845473614    0.40420710898806245    0.313244565198655    
  0.22043362632183555    0.15974394869677075    0.13483717144262963    0.14453163322540669    0.15974130248893523    
  0.20488054453655408    0.2712880827465033    0.33481373108729084    0.37093266409103837    0.370962006884886    
  0.33481155503590443    0.2712817145165598    0.2048923407690292    0.15974977406773866    0.14453748821371581    
  0.1597497405778448    0.20489225659866672    0.2712817178010205    0.334811590342646    0.37096196553010635    
  0.3709327709992515    0.33481377576148    0.27128801544013326    0.2048805589907633    0.15974129563822478    
  0.14453163322540669    0.13483718297747224    0.15974393231654196    0.22043359091387812    0.3132445743944964    
  0.4042070502967934    0.45264594356439314    0.4630581667238597    0.452661128267096    0.4042357579092871    
  0.31324426047055487    0.22043977262824743    0.15974980595184368    0.13484421247754275    0.13887967181377114    
  0.16516916359244713    0.203243803962132    0.23666435093608745    0.2499183088529962    0.23667539554988648    
  0.2032395354007775    0.16515020050480467    0.13887971313709824    0.13483718297747224    0.11021254039957024    
  0.13887847302308992    0.20488233907460346    0.31324028583376096    0.4272031574369806    0.4760051880290681    
  0.46479885255445885    0.464789916512779    0.4759620948108423    0.4272259626032584    0.3132441987608107    
  0.20489238852857145    0.13887965040848804    0.11022305849059363    0.10629374364010342    0.11740409924596742    
  0.13397645752670934    0.14584037956587734    0.14583466650199065    0.13396832114087576    0.11739940787605162    
  0.10629968193453493    0.11021254039957024    0.08056284897247518    0.10629238503346224    0.165167512835599    
  0.2712766044108821    0.40423250248533116    0.4759930600452134    0.4464457700131482    0.4145088838120804    
  0.4464796394422137    0.47596219586921706    0.4042357721362434    0.27128180136934343    0.16516917817414584    
  0.1062937327654612    0.08056993862240058    0.07359319912605024    0.07606408652568111    0.08103132008485454    
  0.08337606514490499    0.08102957569341579    0.07606844563804625    0.07358924247851734    0.08056284897247518    
  0.05446682108140355    0.07359767510768338    0.11739998085254291    0.20324655920831683    0.33481334534991264    
  0.45265789284304125    0.46479285518660096    0.41452451697135667    0.4145088655740119    0.46478995410506485    
  0.4526611500681577    0.3348116093535188    0.20324368251034278    0.11740406788732828    0.07359320279246663    
  0.05446746405153749    0.04795015809657115    0.04706838679429373    0.04770893391134425    0.04770905851447014    
  0.04706810939852699    0.047945135603231784    0.05446682108140355    0.0356092563648762    0.04794876187899735    
  0.07606038534161634    0.13397835612171702    0.23666973379246128    0.37096752994340954    0.4630620916916791    
  0.4647927756082815    0.44644566032349375    0.4647989081391862    0.4630580867886565    0.3709620764138623    
  0.23666422280723073    0.1339764432590882    0.07606404120673753    0.0479501971341059    0.03560632115156401    
  0.03087478725945518    0.029434801182272697    0.029191054172423927    0.02943437724401068    0.030874161534724172    
  0.0356092563648762    0.02365964460959669    0.030870912109626322    0.04707160393167877    0.08103464271561307    
  0.14584625516903948    0.2499093840675892    0.3709675651013793    0.45265788115403327    0.475992929706123    
  0.4760052117908574    0.4526459115840364    0.370932861854714    0.24991815224016395    0.14584034572830445    
  0.08103131062368912    0.04706840353315411    0.030874772223754777    0.02365817981213193    0.020682292671479943    
  0.01966822460852995    0.01966935870472484    0.02068098587100312    0.02365964460959669    0.016675605046798707    
  0.020682210218741878    0.029437120593846317    0.04771034281640935    0.08337316189543983    0.14584625551961353    
  0.2366696805971792    0.3348133482867534    0.40423248990584604    0.4272030726774864    0.4042070087847861    
  0.334813730833317    0.23667537503345656    0.1458345631156887    0.08337605551280548    0.04770895469401866    
  0.029434800351044253    0.020682303566746    0.016675444339789545    0.014998569588598722    0.014553489070041187    
  0.014998623076482281    0.016675605046798707    0.012827278144276496    0.014998303521057589    0.01966941323062841    
  0.02918942168374117    0.04771032048667171    0.08103461991466242    0.13397825291548934    0.20324661218586298    
  0.27127655181355537    0.31324029419343263    0.3132445087319397    0.271288207846975    0.20323946940919974    
  0.13396830414858166    0.08102959760126141    0.04770906588103424    0.029191066455452917    0.019668230625351907    
  0.014998585272492993    0.012827076210953801    0.011998563188582329    0.011998309971319489    0.012827278144276496    
  0.010852447002223733    0.011998861993023514    0.014553442685442265    0.019669405888728834    0.0294371139457111    
  0.04707158166868309    0.07606038019192246    0.11739996455364832    0.16516744578110482    0.20488234047702308    
  0.22043353750666833    0.20488054240662315    0.1651501108177696    0.11739939169145824    0.07606843710279725    
  0.047068076494955875    0.029434358066262094    0.01966934290699953    0.014553481437740353    0.01199853654661156    
  0.010852426842267249    0.010534281200119868    0.010852447002223733    0.009946166837371841    0.01053375386314215    
  0.011998871840446946    0.014998294179796605    0.020682210565722663    0.030870917025915108    0.047948753887684964    
  0.07359765876599378    0.10629234938432454    0.13887852611082185    0.1597438399476096    0.15974129255966202    
  0.13887960090101506    0.10629962591605228    0.07358924666290348    0.047945138712139096    0.030874147362522808    
  0.02068099115499381    0.014998635728102403    0.011998303797971894    0.010534293950995635    0.00994567545039206    
  0.009946166837371841    0.009681916976953421    0.009946151133888647    0.010852447493812478    0.012827262224719681    
  0.01667559682551368    0.023659620015201305    0.03560924941407198    0.05446681889891797    0.08056278478531881    
  0.11021252821282515    0.13483712861024452    0.14453159153332207    0.13483710865670995    0.11021250462033085    
  0.0805628297970821    0.05446682383656774    0.03560923281188928    0.02365963134506972    0.016675602134042934    
  0.012827255022005614    0.010852444643331708    0.009946152820821534    0.009681916976953421    0.009653287775825619    
  0.009908032576736125    0.01078822402285437    0.012709814965299885    0.016448615842910852    0.02321392376876416    
  0.034755814361405714    0.05289022690159825    0.0778951659209626    0.10624164179033718    0.12973502305209758    
  0.13897005521712744    0.129727249093167    0.1062399442137631    0.07791282903652977    0.05288801896587835    
  0.03474745663690605    0.023216258298711368    0.01644922354362072    0.012710042876096004    0.010788083288955117    
  0.009908098398743955    0.009653287775825619    0.009908111932667007    0.009907860148491368    0.010543278819393917    
  0.012130397597596796    0.015373952904508208    0.021537061608305343    0.03267617722616462    0.05148245083130108    
  0.07990440441551389    0.11628072474908278    0.15257319989217014    0.17584085802824817    0.17584897014472542    
  0.1525798292496149    0.11625865600454414    0.07991089832328414    0.05149495868885515    0.03267421620378949    
  0.021537069293393815    0.015373698120666806    0.012130956067737834    0.010543042948917164    0.009908111932667007    
  0.010788083660971075    0.010413531156248634    0.010788090366429305    0.012130648673905748    0.015109670558902267    
  0.02109881065821365    0.03267501773905802    0.05387796420049364    0.08923592785622603    0.14011467103433795    
  0.19891288246574684    0.2474614558194612    0.26630805346132974    0.24745900928093734    0.19895056688107432    
  0.14011410669802124    0.08922225387584531    0.053884004717689574    0.03267628647736784    0.02109978823712268    
  0.015109653528428234    0.012130960127529736    0.010788083660971075    0.012710064309690211    0.01167671146895879    
  0.011676977923721174    0.012709676847583708    0.01537402358832682    0.0210987280545265    0.032905605955827026    
  0.05627164388725311    0.09905895427295631    0.16772284219634848    0.2566341170998743    0.3402764759915822    
  0.3885918317988417    0.38858413661271896    0.34023366301905594    0.25664808230824393    0.16775165797242042    
  0.09905651705391821    0.05627269319201972    0.032906520591898566    0.021099799979136604    0.015373710702470626    
  0.012710064309690211    0.016449230761212394    0.014277614527172484    0.013684646087085216    0.014277509170416956    
  0.016449169766405265    0.02153626801628835    0.03267710039443087    0.05626969484643432    0.1032322397449569    
  0.1862643733270108    0.30368445524197213    0.4161171620478348    0.475446668771172    0.4880447747662484    
  0.4755147308587847    0.41611815778227784    0.3036501476730181    0.186284073531528    0.10323582421342672    
  0.05627265100455664    0.03267629637158991    0.021537069391915374    0.016449230761212394    0.023216273961403813    
  0.019168700237679765    0.01769637296223178    0.017694161190241867    0.019171162887888903    0.023213691651125558    
  0.03267697569465392    0.05387790128470816    0.09906205577136214    0.18627068820314707    0.3214629001641131    
  0.450029530789108    0.48037785156299645    0.4430201550289997    0.44298447667399043    0.4803821465718072    
  0.4501128698575254    0.3214379183012238    0.18628404039543375    0.09905651458648511    0.05388403875637524    
  0.03267420730397797    0.023216273961403813    0.034747462962657585    0.027817066113612624    0.025209787810094753    
  0.02459039153596549    0.025209896201286264    0.027817231554883002    0.03474735331091235    0.05149551142358426    
  0.0892209731801083    0.16775002148654442    0.30364391805744384    0.4500940190437868    0.4646608252751263    
  0.35121847290149283    0.2897918694222068    0.35121533799883736    0.4646419147052225    0.4501129688083685    
  0.3036501514611017    0.16775162990442866    0.08922229699057915    0.05149498160256437    0.034747462962657585    
  0.05288800327669372    0.04206056040132437    0.038476622700293506    0.03766955657142224    0.03766792187292813    
  0.03847874625808648    0.04206020762437396    0.0528904925272202    0.0799095389166732    0.14011758993037404    
  0.2566380564349412    0.41612381949071914    0.48039867735169245    0.35118863688535323    0.22064621362440176    
  0.22066868172157436    0.35121520175795157    0.48038207171662817    0.4161179626076064    0.2566479837353323    
  0.14011412886250832    0.07991089356852753    0.05288800327669372    0.07791285886712807    0.06315602220479552    
  0.05980679801556563    0.06057677817296119    0.06135661510270693    0.0605780734712471    0.059806534242567974    
  0.0631587850613025    0.07791350863210932    0.11626348342067325    0.19895209426045485    0.3402444744353611    
  0.4754996213362012    0.44293893017405306    0.2898564821979077    0.22064625987534273    0.2897919828348338    
  0.44298454590753183    0.4755146225092703    0.34023368101706164    0.19895065544357685    0.11625866205760876    
  0.07791285886712807    0.10624001923813767    0.0898137062807176    0.08960809088866893    0.09620338313557465    
  0.10189718019951431    0.10190568133940471    0.09619874264241658    0.08961759400131239    0.08980919158746876    
  0.10625218194331552    0.15257311364156004    0.24747622141575631    0.38859452494150776    0.48808391262183504    
  0.44293893255319583    0.35118861698733317    0.3512183924860795    0.4430201756604797    0.48804494877490684    
  0.388584166503868    0.2474591085104406    0.15257981596183368    0.10624001923813767    0.1297273102047846    
  0.11615770342183657    0.12368731838279155    0.1424886396226902    0.16108036582763505    0.1688052035297297    
  0.1610814481741884    0.14249146101950014    0.12369367015709136    0.1161610540709588    0.1297346682883083    
  0.1758576274762858    0.2663030991006078    0.38859455683626415    0.47549976450262177    0.48039872349154317    
  0.464660804658537    0.4803780570636644    0.47544678386109696    0.3885918227109036    0.2663081652507352    
  0.1758491136765579    0.1297273102047846    0.13897002862979577    0.13294068868974768    0.15197318668249776    
  0.18870990534438264    0.22894954701776285    0.25496492599832193    0.2549730358556938    0.22894745438815164    
  0.18871502313132352    0.15197843646556375    0.13294623619343668    0.13897420904406368    0.17585758937777865    
  0.24747624149312164    0.3402443693452467    0.416123812925259    0.45009382292700967    0.450029386167886    
  0.41611712716616756    0.34027636395601885    0.24746156376795733    0.17584087315586303    0.13897002862979577    
  0.1297350496354106    0.1329384487751393    0.16306264550672195    0.218104254665664    0.2835823906740279    
  0.3342975131160802    0.35263877594342224    0.33430602537513965    0.2835894324154148    0.21811000135910785    
  0.16306758983552105    0.13294631953058697    0.12973458810398605    0.15257312266415393    0.19895204840922848    
  0.2566382019505702    0.3036439743275896    0.3214630894674341    0.3036845185113299    0.25663403920018163    
  0.19891297029826233    0.15257324633263825    0.1297350496354106    0.10624166689678613    0.11615264733694759    
  0.1519742690430589    0.21810610509334583    0.3043048630026499    0.3787463483179244    0.4157523927947581    
  0.4157542588616566    0.3787408937445508    0.30430888057212946    0.2181099719934568    0.15197847971196546    
  0.116161051423267    0.10625214890594985    0.1162634577667088    0.1401176033728195    0.1677499646703665    
  0.18627072852184645    0.1862642943583149    0.1677227916657527    0.14011469985718375    0.1162807145481677    
  0.10624166689678613    0.07789519186546168    0.08981048771806431    0.12369567058074551    0.1887126930323847    
  0.28358188827245145    0.3787491487088774    0.43437338218893823    0.4484769793830096    0.4343722307745828    
  0.3787408638383085    0.2835894254556898    0.1887150607418435    0.12369361052530399    0.0898091647128613    
  0.07791353072906428    0.0799095846685767    0.0892209788051133    0.09906208162486249    0.10323227643146426    
  0.09905892217613035    0.08923595942069068    0.07990439958832071    0.07789519186546168    0.052890242620187    
  0.06317227861909709    0.08961197736473941    0.14248669877981232    0.22895113892951588    0.3343077418593132    
  0.41575162693033985    0.4484718811877862    0.44847697385986035    0.41575445287257784    0.33430593536416997    
  0.22894750523674579    0.14249144000940372    0.08961758866392669    0.06315877443180681    0.05289050081636406    
  0.05149549794506709    0.05387788296123186    0.05626967686958198    0.05627159442209019    0.05387797620258077    
  0.05148245622500909    0.052890242620187    0.03475582522381968    0.04205860563348029    0.0597931921485813    
  0.0962028570520706    0.16108826956029332    0.2549737789473213    0.3526456722117039    0.4157516511418481    
  0.43437334366470776    0.4157523233815354    0.3526387513480204    0.2549730873313546    0.16108134899481955    
  0.09619877370095291    0.059806503874157244    0.04206022649161128    0.034747361698548564    0.032676973959563003    
  0.03267708919576959    0.03290560124002378    0.03267504762929343    0.03267617587692641    0.03475582522381968    
  0.02321393864504534    0.027809825434574494    0.038479373573945506    0.06059202153415078    0.1019050190043288    
  0.1688005462201281    0.25497379990182856    0.3343076606511752    0.3787491627299533    0.3787463662273889    
  0.33429748178815405    0.25496497594614337    0.1688051423329654    0.10190569175890085    0.060578063738544664    
  0.03847876563580197    0.027817219724220476    0.023213699172605063    0.021536283531629303    0.021098711655184642    
  0.021098826990419386    0.0215370538303907    0.02321393864504534    0.016448625116544165    0.01917049163231745    
  0.025216735712234577    0.037669467632260874    0.06134351605150691    0.10190502711355437    0.16108824028774024    
  0.2289510784340868    0.2835819133423715    0.3043049588562922    0.28358239421839854    0.22894954478871157    
  0.16108043022388535    0.10189717167867676    0.061356604645236554    0.03766795870527292    0.025209903189224152    
  0.019171163817699306    0.01644918002580683    0.015374028201545428    0.015109686316836872    0.015373944340703646    
  0.016448625116544165    0.01270982676344257    0.01427788243874771    0.01769550523800594    0.024584000657853614    
  0.03766945860607023    0.06059199504378343    0.09620280598691454    0.14248671253559658    0.18871265763224435    
  0.21810612058099815    0.21810422736544594    0.1887099659444795    0.14248855687370673    0.09620340721315683    
  0.06057676665180559    0.03766959383335709    0.024590376795672397    0.017694165238459833    0.014277527121639585    
  0.012709662418629863    0.012130662792758963    0.012130398063163647    0.01270982676344257    0.010788224088549549    
  0.011677000883154204    0.01368421169577062    0.017695501250231442    0.02521672210112389    0.03847935311053221    
  0.05979315757123386    0.08961199163018613    0.12369556596422088    0.1519743091502383    0.16306260507113918    
  0.15197308369255524    0.12368724076012248    0.08960805902322325    0.059806793466852505    0.03847663723406459    
  0.025209774442729156    0.017696368037069497    0.013684653321640605    0.011676969270724903    0.010788096643525338    
  0.010543274357862164    0.010788224088549549    0.009908046115717523    0.010413205583474253    0.011677010615278947    
  0.014277867294352375    0.019170491520948702    0.02780982821411701    0.042058582256845264    0.06317226260971504    
  0.08981047084957595    0.11615268698049862    0.1329384034135213    0.13294070137782069    0.11615763804617787    
  0.0898137016825358    0.06315603651617892    0.04206057517638946    0.02781703802675835    0.01916871751268703    
  0.014277632374028413    0.01167670554922848    0.010413548392622714    0.009907866184389054    0.009908046115717523    
  0.009653287775825619    0.009908032576736125    0.01078822402285437    0.012709814965299885    0.016448615842910852    
  0.02321392376876416    0.034755814361405714    0.05289022690159825    0.0778951659209626    0.10624164179033718    
  0.12973502305209758    0.13897005521712744    0.129727249093167    0.1062399442137631    0.07791282903652977    
  0.05288801896587835    0.03474745663690605    0.023216258298711368    0.01644922354362072    0.012710042876096004    
  0.010788083288955117    0.009908098398743955    0.009653287775825619    0.00955998096831647    0.009791460658929557    
  0.010599825452981009    0.012366037945256696    0.0157826747830364    0.02192358778905201    0.03230803551701582    
  0.04845097698093241    0.07048857995084806    0.09526243372443846    0.1156705568830056    0.1236680206666865    
  0.11565954884452415    0.09525899646200703    0.07050977800128903    0.04845038414597628    0.03229702815661079    
  0.02192655261968805    0.01578367188479815    0.012366388095887651    0.010599778029569285    0.00979151453740116    
  0.00955998096831647    0.009791526591480817    0.009791454697543832    0.010434091343070126    0.01203605552159991    
  0.015287894617382992    0.021450408386709727    0.03258389472413419    0.051361765893372706    0.07970601067874071    
  0.11589883195856909    0.1518915760817331    0.17490899636699136    0.17492233622633052    0.15190354018358884    
  0.11587353766664045    0.0797100061008747    0.051378865212959916    0.03258142282459474    0.02144998889517467    
  0.015287986659507707    0.01203637954792966    0.010434084453359097    0.009791526591480817    0.010599777117348066    
  0.010194768032776911    0.010599714785232276    0.012036158855464078    0.015198278013130414    0.02155346889144638    
  0.033880648965573114    0.056540487454493096    0.09446534332672127    0.14909202031399535    0.21193138835422085    
  0.2633698311518485    0.2831819062344814    0.26335901763421754    0.21197434371493432    0.14909687289486187    
  0.09444596289881335    0.056547690421921995    0.033883098526175916    0.021554269351926076    0.015198437871702527    
  0.012036378651249728    0.010599777117348066    0.01236640801075951    0.011218521854755708    0.0112187791970012    
  0.012366007999764941    0.015288027971389952    0.02155341052695314    0.034543062288479934    0.06042498248529354    
  0.1081026762280335    0.184663725496468    0.2824616820320562    0.3711388532022307    0.4196214217775521    
  0.4196200148034823    0.37109094774118795    0.28246885088664925    0.18470253923913074    0.10810049490690306    
  0.06042452581127236    0.034544546347788176    0.02155428016372624    0.01528799495155025    0.01236640801075951    
  0.015783681422525186    0.01334452698449177    0.012669889422176983    0.013344341495981947    0.015783898628680237    
  0.021448844491043024    0.03388388937975417    0.06042092896620811    0.11371063140221067    0.20796193149548012    
  0.33787070927773266    0.45042696665562393    0.49325347491022153    0.4952046640557629    0.49331912097600805    
  0.45044105908703247    0.33782373734767907    0.20798383123408334    0.11371643980621544    0.06042447265825428    
  0.033883107543142395    0.02144999785008148    0.015783681422525186    0.021926560812307185    0.01731560091303894    
  0.015597127592135747    0.01559467145336747    0.017318239349897534    0.021923265486872484    0.03258510906238607    
  0.05654023764674769    0.10810760032396662    0.20796904471690886    0.358194183439806    0.47873887713307023    
  0.46245572071450497    0.3861321078099048    0.38610332060678804    0.4624544295112901    0.47883946064475247    
  0.3581628749235944    0.20798380085649634    0.10810047876719465    0.056547750431705006    0.03258140046720815    
  0.021926560812307185    0.0322970550180045    0.024216816293832606    0.02098029744034372    0.0201505520229876    
  0.020980293599180775    0.024217008501551222    0.03229704881292049    0.05137818821847982    0.09444541743584461    
  0.18469735513219196    0.33781827907324585    0.47881164884617006    0.42933345504369397    0.2605564140667703    
  0.18974056866043507    0.2605614112241078    0.42930095169426796    0.4788395497182011    0.3378237114106007    
  0.18470259917182164    0.0944460087592363    0.0513788800000852    0.0322970550180045    0.04845037014430698    
  0.03532588483498348    0.030230072884126265    0.028573878366029076    0.028573117918242436    0.030231154479061998    
  0.035325658329965454    0.04845196012068525    0.07971014143013606    0.14909847371930557    0.28246010572686686    