#     DFTpy    
  CRYSTAL 
    
  PRIMVEC    
  2.7326143374818592    -1.5013516e-10    2.8457036275862065e-10    
  -1.5013516e-10    2.7326143373230742    1.371197606896552e-10    
  5.200164586206896e-10    2.506107172413793e-10    5.006202426058765    
  PRIMCOORD    
  4    1    
  Si    1.3663071686888677    1.3663071694134594    1.5383772175177517    
  Si    5.066619509395508e-10    -4.68908882435961e-10    0.9647239938287883    
  Si    7.771003440685789e-11    3.5413818408954935e-10    4.04147842939042    
  Si    1.3663071690985173    1.366307168375472    3.4678252118022592    
  BEGIN_BLOCK_DATAGRID_3D    
  3d_datagrid_density    
  BEGIN_DATAGRID_3D#0    
  13    13    23    
  0.0    0.0    0.0    
  2.7326143374818592    -1.5013516e-10    2.8457036275862065e-10    
  -1.5013516e-10    2.7326143373230742    1.371197606896552e-10    
  5.200164586206896e-10    2.506107172413793e-10    5.006202426058765    
  0.9164628226067718    0.8505016429669202    0.6778166006069993    0.4764653712062945    0.3191318363441709    
  0.22890776810927535    0.20067157042338027    0.22890777382805536    0.31913181273366714    0.476465426156371    
  0.6778165194711969    0.8505016636188756    0.9164628226067718    0.8505016664103122    0.7903173708553188    
  0.6349145713274217    0.4543248246425204    0.311256072487758    0.22778934365405223    0.20139315757728038    
  0.2277893338937537    0.31125605727898614    0.4543248329768217    0.6349145572317396    0.7903174103933167    
  0.8505016664103122    0.6778165687173167    0.6349145725015191    0.5254156429602094    0.39650433342825336    
  0.28983848812419233    0.22453720019115278    0.20326764586623627    0.2245371933535815    0.28983847256260764    
  0.3965043140149364    0.5254156228936785    0.6349145850019472    0.6778165687173167    0.4764653907790019    
  0.45432485300720005    0.39650435023037317    0.3246344612292174    0.2605605732935306    0.21834864143438285    
  0.20394095139838508    0.21834868935670562    0.2605605931976044    0.3246344847246632    0.39650434005254526    
  0.4543248206685086    0.4764653907790019    0.31913185102024205    0.31125603805753904    0.28983847526801076    
  0.26056057341752853    0.23107943449452914    0.2094632494114617    0.20161677898154484    0.20946325247460967    
  0.23107940247542333    0.2605605976843766    0.2898384706636988    0.31125605635587605    0.31913185102024205    
  0.2289077852546026    0.22778933044618602    0.22453717071415283    0.21834865170288886    0.20946325631471158    
  0.20163705674817192    0.19863779619754787    0.2016370349954354    0.2094632406899767    0.21834867926301355    
  0.22453719519373386    0.22778937010699044    0.2289077852546026    0.2006715782005625    0.20139314077130938    
  0.20326767087009742    0.20394093854833356    0.2016167659015406    0.1986377938640384    0.19751943773646566    
  0.19863780518949967    0.20161675583311928    0.20394093612435507    0.20326763747714152    0.20139315684820602    
  0.2006715782005625    0.22890777957092734    0.22778934368707074    0.22453717172344992    0.2183486566067305    
  0.20946325703154062    0.2016370287941675    0.19863781028377808    0.20163703938687427    0.20946322293708305    
  0.21834869927747097    0.22453718398511216    0.22778935756447305    0.22890777957092734    0.31913185103789504    
  0.3112560578603651    0.28983846880101277    0.26056058564693124    0.23107941140873983    0.2094632329634629    
  0.20161676481996843    0.20946323536231576    0.23107941542997962    0.26056053931228745    0.28983848299875026    
  0.3112560758686076    0.31913185103789504    0.47646539646867964    0.4543248529724191    0.3965043554425336    
  0.3246344963415725    0.26056058329501897    0.2183486626357992    0.20394097079662574    0.21834865973653392    
  0.2605606081435002    0.32463445840498095    0.39650434068619483    0.4543248228068595    0.47646539646867964    
  0.6778165754655275    0.6349145791361065    0.5254156418588097    0.39650433847458183    0.2898385012787354    
  0.2245371823402869    0.20326765225006316    0.22453716344762611    0.2898384716121818    0.39650434990602124    
  0.5254156364696485    0.6349145599387285    0.6778165754655275    0.8505017087472878    0.7903173514425156    
  0.6349145838693443    0.4543247805481209    0.3112560641147564    0.2277893492205948    0.20139315068538421    
  0.2277893347544402    0.3112560503248915    0.45432481814914744    0.6349145614617755    0.7903174294640081    
  0.8505017087472878    0.9164628226067718    0.8505016429669202    0.6778166006069993    0.4764653712062945    
  0.3191318363441709    0.22890776810927535    0.20067157042338027    0.22890777382805536    0.31913181273366714    
  0.476465426156371    0.6778165194711969    0.8505016636188756    0.9164628226067718    0.775147699684048    
  0.7442289835781961    0.6385385883870044    0.4790228703730787    0.33372266643915255    0.24495178577412408    
  0.21661728375746025    0.2449517983006992    0.33372266102731085    0.47902293231835763    0.6385385375188922    
  0.7442290615284627    0.775147699684048    0.7442290364212281    0.7120986884893158    0.6098108886823508    
  0.4620133651579218    0.3281064871142131    0.24538734222140862    0.2187479810345847    0.2453873436223504    
  0.3281064702728387    0.46201337042399665    0.6098108726939735    0.7120986979011501    0.7442290364212281    
  0.6385385548899065    0.6098109028743217    0.5266870686836927    0.4137674623650244    0.3111377858784712    
  0.24547873820846494    0.22374976128540497    0.24547872327862813    0.3111377547897591    0.4137674695351924    
  0.5266870889602578    0.609810903671926    0.6385385548899065    0.4790228912433225    0.46201339698863103    
  0.41376746720429614    0.3479112003047635    0.28529845304178    0.2425864264981244    0.22776640795848058    
  0.2425864296474801    0.28529845654983804    0.3479112003888553    0.4137674727467556    0.46201336124422054    
  0.4790228912433225    0.3337226934675485    0.3281064693985086    0.3111377828061107    0.28529847199265307    
  0.25744842051831585    0.23611569545911526    0.22815117961046313    0.23611568512814304    0.25744838822419985    
  0.28529848125606416    0.31113776853970737    0.3281064972987113    0.3337226934675485    0.24495179667508504    
  0.24538732611544473    0.24547873721454513    0.24258641364255024    0.2361156897814082    0.22931643921600442    
  0.22645905396863245    0.22931642139194144    0.23611569239947464    0.24258642963158938    0.24547873140811094    
  0.24538738009865008    0.24495179667508504    0.21661730535001436    0.21874796020633056    0.22374977276694463    
  0.2277663881972374    0.22815116070950883    0.22645905353412873    0.2255273729163239    0.22645905484831916    
  0.22815116016890105    0.22776639927451997    0.2237497530955557    0.21874796562937612    0.21661730535001436    
  0.24495179839790213    0.24538735267336967    0.24547872487205932    0.24258642261447616    0.2361157019343355    
  0.22931643683142997    0.22645906072122743    0.22931641445381604    0.23611567434098976    0.24258645344577157    
  0.24547872140468915    0.24538737053063087    0.24495179839790213    0.33372268482314454    0.32810648325456426    
  0.3111377559217846    0.2852984543813719    0.25744841340558405    0.2361156944562891    0.22815116581583805    
  0.23611567690982568    0.2574483826786186    0.28529844366728446    0.3111377731378456    0.32810649263746283    
  0.33372268482314454    0.47902290443396556    0.4620133900550324    0.413767471424284    0.34791119786283736    
  0.2852984698864167    0.24258643322185758    0.2277664210942864    0.24258642664225627    0.28529849209517716    
  0.34791116818248413    0.4137674783280577    0.46201338255905616    0.47902290443396556    0.6385385940499998    
  0.6098109113017436    0.5266870986992384    0.41376748127762053    0.3111377935270096    0.24547871448115652    
  0.22374977157024653    0.2454787129811857    0.3111377680373571    0.41376750091998526    0.5266870968623716    
  0.6098108981588894    0.6385385940499998    0.7442290559191065    0.7120986054003494    0.6098109139412886    
  0.46201336579433494    0.32810649167863715    0.24538736346661008    0.21874798560811556    0.24538735456752586    
  0.32810647095163054    0.4620133535674444    0.6098108550922898    0.7120986881598451    0.7442290559191065    
  0.775147699684048    0.7442289835781961    0.6385385883870044    0.4790228703730787    0.33372266643915255    
  0.24495178577412408    0.21661728375746025    0.2449517983006992    0.33372266102731085    0.47902293231835763    
  0.6385385375188922    0.7442290615284627    0.775147699684048    0.4149277678579883    0.4536307743207439    
  0.5099305029846626    0.4783771282398428    0.3769887288220433    0.2941226207177376    0.26551308742462637    
  0.2941225940803626    0.37698873106087083    0.47837715635156036    0.5099304885173042    0.45363077949865593    
  0.4149277678579883    0.4536307673798414    0.48386223597743727    0.5200599761404366    0.47673999612617685    
  0.3775349427247279    0.29881014189578553    0.27158711188727275    0.29881014039345366    0.3775349445160853    
  0.4767399805545797    0.5200599639741945    0.48386221243998956    0.4536307673798414    0.5099305151992831    
  0.5200599938849383    0.5167186034332344    0.459505629855948    0.3740363887619527    0.30901901921975194    
  0.2862144563025614    0.3090189824572176    0.37403636345859487    0.45950561341197244    0.5167186165109819    
  0.5200600139677755    0.5099305151992831    0.4783771234251148    0.47673998732909423    0.4595056079164184    
  0.415682718915322    0.3602332868100531    0.31710360190040865    0.30128233050649456    0.3171036068967737    
  0.36023329695976203    0.41568273257083826    0.459505605151192    0.47673998814613244    0.4783771234251148    
  0.37698875581868907    0.3775349394550182    0.37403638894186064    0.3602332703837176    0.3386017803350434    
  0.31835521471510037    0.3099845261427233    0.31835521597582916    0.33860176490057986    0.36023329184798747    
  0.374036387487051    0.37753496833813976    0.37698875581868907    0.2941226035932343    0.2988101319317323    
  0.30901900689410994    0.31710358289005164    0.31835522478293277    0.31409809184437554    0.3111885425475615    
  0.3140980624527833    0.31835520459703004    0.31710362134365183    0.3090189904539554    0.29881018078253246    
  0.2941226035932343    0.2655131119431217    0.2715870776124155    0.28621445739799284    0.30128232789568715    
  0.30998450912153414    0.3111885218068902    0.3102091343542959    0.31118852555909127    0.3099845176766922    
  0.30128231801170013    0.28621444332943274    0.27158710049323687    0.2655131119431217    0.2941226126616773    
  0.2988101598451015    0.3090189872354582    0.31710359587810805    0.318355191805652    0.31409806129616075    
  0.3111885531424952    0.31409805335485774    0.31835518365409937    0.317103632029061    0.3090190062951935    
  0.2988101663496203    0.2941226126616773    0.3769887441225521    0.3775349690192508    0.3740363848462688    
  0.360233270810674    0.3386017878689117    0.3183551958678988    0.3099845160976047    0.3183552150419132    
  0.3386017438151021    0.3602332575993366    0.37403638838707093    0.3775349531337    0.3769887441225521    
  0.4783771239432646    0.4767400100852863    0.45950563809288897    0.4156827090561455    0.3602332862470505    
  0.3171036052362053    0.3012823378039432    0.31710360266186044    0.3602333029436898    0.41568269346300685    
  0.4595056121504714    0.4767400074936305    0.4783771239432646    0.5099305412847953    0.5200600055060088    
  0.5167185979702081    0.45950563065629624    0.3740363981737507    0.30901900776146796    0.28621445506115983    
  0.3090189777025007    0.3740363630936909    0.4595056575525389    0.5167186125858907    0.5200600094856146    
  0.5099305412847953    0.453630808254416    0.4838621562190243    0.5200600002693994    0.4767399923965317    
  0.3775349486004077    0.298810161403774    0.27158710175062994    0.2988101491376425    0.37753492980466946    
  0.4767399888272788    0.5200599647429681    0.483862215453092    0.453630808254416    0.4149277678579883    
  0.4536307743207439    0.5099305029846626    0.4783771282398428    0.3769887288220433    0.2941226207177376    
  0.26551308742462637    0.2941225940803626    0.37698873106087083    0.47837715635156036    0.5099304885173042    
  0.45363077949865593    0.4149277678579883    0.13502510463223974    0.1915913089171515    0.3507677549558768    
  0.47136197101096083    0.4438223219541068    0.3728041756596796    0.34367357148471905    0.3728041568036581    
  0.44382231186975923    0.4713619887323664    0.3507677355200733    0.19159129738650404    0.13502510463223974    
  0.19159128897910038    0.2507248864799149    0.3990392488510523    0.4924269889062812    0.4540375581669764    
  0.3840384680435128    0.3558837059213612    0.3840384726133858    0.45403752739570563    0.49242693212833805    
  0.3990392826114505    0.2507248983598595    0.19159128897910038    0.35076777768479506    0.39903930194728593    
  0.494273932222799    0.5255953435496016    0.47348098776180425    0.41117407801607553    0.3867048826113878    
  0.41117405044535493    0.4734809400480988    0.5255953506765845    0.49427394759680493    0.3990393267550765    
  0.35076777768479506    0.4713619478069869    0.4924269561259184    0.5255953649140891    0.5222386247970947    
  0.4811429944741235    0.4371758178099206    0.41917858627959986    0.43717582586958764    0.4811429974879394    
  0.5222386052359039    0.5255953624557399    0.4924269367117374    0.4713619478069869    0.4438223740618387    
  0.4540375189513589    0.47348101751102095    0.4811429438226312    0.46789274691279403    0.4445189726959626    
  0.4328728927792671    0.44451896660928725    0.46789272412866983    0.4811430162163096    0.47348094206121766    
  0.45403755868998263    0.4438223740618387    0.37280417649671765    0.38403842654456777    0.4111740733116309    
  0.43717581582397097    0.4445189940731099    0.43308991628388127    0.4244725683923892    0.4330898752043414    
  0.4445189512526259    0.4371758429131392    0.4111740534042606    0.38403848915586525    0.37280417649671765    
  0.3436735671450375    0.35588368905086154    0.3867048801029959    0.4191785642515544    0.4328728747518683    
  0.42447255817265706    0.416360425863612    0.42447255942500123    0.43287287035144467    0.4191785631310308    
  0.3867048535622349    0.35588371307254235    0.3436735671450375    0.37280418349109223    0.38403846850694895    
  0.41117403985054923    0.4371758120054485    0.4445189591066159    0.4330899068430034    0.42447258381861186    
  0.433089885117944    0.44451893628259037    0.437175837251036    0.4111740583613586    0.3840384790728552    
  0.37280418349109223    0.4438223439881199    0.4540375395179978    0.47348095544935065    0.4811429837522074    
  0.4678927428960479    0.44451895728999047    0.4328728779636436    0.44451893510794777    0.4678927098445003    
  0.4811429122233299    0.473480975374128    0.45403755515750943    0.4438223439881199    0.4713619616353135    
  0.49242696423841276    0.5255953555779046    0.5222386298829418    0.48114297584057614    0.43717582303010105    
  0.4191785846224886    0.43717581150420276    0.48114298099559366    0.5222386029074884    0.5255953569037332    
  0.49242697782532224    0.4713619616353135    0.3507677591499216    0.39903929771071983    0.4942739430781266    
  0.5255953908351313    0.4734809878923126    0.41117406817755286    0.3867049050182815    0.4111740642525557    
  0.4734809747789764    0.525595377874394    0.4942739651826603    0.3990392930943197    0.3507677591499216    
  0.19159131454230652    0.25072488381606395    0.39903928655744453    0.4924269301148926    0.454037559278592    
  0.3840384879755422    0.3558837106461248    0.3840384718555589    0.4540375350047067    0.49242693734784776    
  0.3990392768422404    0.2507249013989829    0.19159131454230652    0.13502510463223974    0.1915913089171515    
  0.3507677549558768    0.47136197101096083    0.4438223219541068    0.3728041756596796    0.34367357148471905    
  0.3728041568036581    0.44382231186975923    0.4713619887323664    0.3507677355200733    0.19159129738650404    
  0.13502510463223974    0.05401394629939477    0.09951040626622083    0.2762879250852311    0.48622454978615476    
  0.5208153299677807    0.4614931998770763    0.43174257044933667    0.4614931893396775    0.5208153307422537    
  0.4862245903210613    0.2762879114915915    0.09951042040333744    0.05401394629939477    0.09951040738159829    
  0.156756997231299    0.34295001402550107    0.5269809590536841    0.5421043527872695    0.48078436800307933    
  0.4515120861429094    0.4807843727543196    0.5421043415658211    0.526980910996298    0.34295003403071644    
  0.1567570215917157    0.09951040738159829    0.27628793032605126    0.34295002999563834    0.502178546942868    
  0.6078622843499324    0.5879923225107384    0.5275927655299895    0.5006348340616897    0.5275927007075197    
  0.5879923129684055    0.6078622768898518    0.5021785175934154    0.34295006374750076    0.27628793032605126    
  0.4862245347768641    0.5269809381319133    0.6078623366443585    0.6457145300651446    0.6160668313348477    
  0.5639320798164761    0.5397862709621384    0.5639320721148843    0.6160668106765638    0.6457145276575647    
  0.6078622859150271    0.526980944421386    0.4862245347768641    0.5208153818286325    0.5421043082546513    
  0.587992292940232    0.6160668325513103    0.5945635273655812    0.541892566813859    0.5144077975823126    
  0.5418925766350667    0.5945634478314231    0.6160668029347116    0.587992330674713    0.5421043447279582    
  0.5208153818286325    0.4614932069051896    0.4807843484414277    0.5275927259299212    0.5639320706189723    
  0.5418925670644447    0.47479166994730276    0.43911037956318183    0.47479165794767175    0.54189254554322    
  0.5639321353930263    0.5275927236259634    0.4807844091866244    0.4614932069051896    0.4317425727962645    
  0.45151209025777644    0.5006347715365924    0.5397862137544437    0.5144077714238401    0.4391103591820435    
  0.3997310044848292    0.43911035247924735    0.5144078010113646    0.5397861989723445    0.5006347666927093    
  0.4515121167123224    0.4317425727962645    0.461493174402141    0.4807843724690147    0.5275927179505796    
  0.5639321098846145    0.5418925865833332    0.4747916415941659    0.4391103851038351    0.4747916385829745    
  0.5418925311707286    0.5639321037913957    0.5275927224626407    0.4807843865888758    0.461493174402141    
  0.5208153234250952    0.5421043605581105    0.5879922733763185    0.6160668007738693    0.5945634911964843    
  0.5418925644539886    0.5144078013488631    0.5418925571861605    0.5945634528697346    0.6160667806316086    
  0.5879923337086317    0.5421043574379899    0.5208153234250952    0.48622456315928425    0.5269809427221531    
  0.6078622943657148    0.6457145180476105    0.6160668307922821    0.5639321254078011    0.5397862715348222    
  0.5639320931091615    0.6160668550817846    0.6457145025786201    0.6078622722767915    0.526980975259672    
  0.48622456315928425    0.2762878981718678    0.3429500472497102    0.5021785353925671    0.607862344089079    
  0.5879923266288593    0.527592738553059    0.5006348185810473    0.5275926981707232    0.5879922639102113    
  0.6078623134385945    0.5021785323305421    0.34295008714348735    0.2762878981718678    0.0995104223823638    
  0.15675699420835934    0.3429500184987393    0.5269809150016231    0.5421043529524516    0.48078438893788383    
  0.45151210465110314    0.48078439273785084    0.5421043564731625    0.5269809123419958    0.3429500208963233    
  0.1567570142288066    0.0995104223823638    0.05401394629939477    0.09951040626622083    0.2762879250852311    
  0.48622454978615476    0.5208153299677807    0.4614931998770763    0.43174257044933667    0.4614931893396775    
  0.5208153307422537    0.4862245903210613    0.2762879114915915    0.09951042040333744    0.05401394629939477    
  0.07569846143922629    0.12964782846495904    0.3238145040297335    0.5416620346974523    0.5797531423486665    
  0.5228793800798993    0.49357537940938434    0.5228793148818436    0.5797531554836322    0.5416621091495434    
  0.32381447679685477    0.1296478405467722    0.07569846143922629    0.1296478307736972    0.19469756436293606    
  0.3957449339799918    0.5879194508696498    0.6079099290950122    0.5488340888155189    0.5197160984526832    
  0.5488340710315149    0.607909866705322    0.587919373418225    0.39574492117408716    0.19469756165253518    
  0.1296478307736972    0.3238145218216789    0.39574492999020644    0.5662629773459932    0.6830056888990761    
  0.6688935266519811    0.6070277754075976    0.5780337429997198    0.6070277337268598    0.668893474847075    
  0.6830056848777938    0.5662629977326575    0.39574494514591396    0.3238145218216789    0.5416620569050287    
  0.5879194583570071    0.6830057039677809    0.7332010450551439    0.6969758170023288    0.6223071969720813    
  0.5858909633195247    0.6223071640553515    0.6969758639713445    0.7332009874419366    0.6830056805109815    
  0.5879194205625035    0.5416620569050287    0.579753224771282    0.6079098737540818    0.6688934856431619    
  0.6969758260015332    0.6295313340863703    0.5091969961546325    0.45236242147279004    0.509196942929695    
  0.6295313056116433    0.6969758412783785    0.6688935035561818    0.6079098702557737    0.579753224771282    
  0.5228793231240367    0.548834053155703    0.6070277819860612    0.6223071802473739    0.5091969985072177    
  0.3451880431805647    0.2774184444102257    0.3451880269548391    0.5091969728959103    0.6223071957845143    
  0.6070277964879891    0.5488341245062739    0.5228793231240367    0.4935753510281844    0.5197160834025222    
  0.5780337184438556    0.5858909082697235    0.45236238864623407    0.277418423481513    0.21042222498069943    
  0.2774184125120885    0.45236240292765256    0.5858909210836313    0.5780336583068095    0.5197160746398471    
  0.4935753510281844    0.522879354845485    0.5488340657256605    0.6070277535271995    0.6223071730440384    
  0.5091970015782369    0.34518804357694516    0.2774184565387276    0.34518802174875374    0.5091969290826976    
  0.6223071945094655    0.607027770387875    0.5488341352604811    0.522879354845485    0.5797531567521194    
  0.6079099008505406    0.6688934765248651    0.6969758142020316    0.6295313279448722    0.5091969489341549    
  0.452362404333481    0.5091969563151707    0.6295312659032166    0.6969758218942865    0.6688934775038785    
  0.6079098723160289    0.5797531567521194    0.541662076602987    0.5879194814475537    0.6830057216824811    
  0.7332009751370769    0.6969758715365935    0.6223071958690284    0.5858909513782713    0.6223072115942154    
  0.69697581636769    0.733201035420527    0.683005661440216    0.5879194505426917    0.541662076602987    
  0.3238144987212648    0.39574492720463267    0.5662629561558832    0.6830057472199522    0.6688935018346818    
  0.6070277890338618    0.5780337095949106    0.6070277873400518    0.6688934713636455    0.6830057331807909    
  0.5662630084908228    0.3957449435925929    0.3238144987212648    0.12964785165037032    0.19469753960856873    
  0.39574491478786494    0.5879194612683192    0.6079099142108708    0.5488341178940895    0.5197160950645173    
  0.5488340804879419    0.6079098915120614    0.5879194526069267    0.39574489529717544    0.19469757677837762    
  0.12964785165037032    0.07569846143922629    0.12964782846495904    0.3238145040297335    0.5416620346974523    
  0.5797531423486665    0.5228793800798993    0.49357537940938434    0.5228793148818436    0.5797531554836322    
  0.5416621091495434    0.32381447679685477    0.1296478405467722    0.07569846143922629    0.21042056698669478    
  0.2774202390354819    0.4523601760705068    0.5858933416599169    0.5780312098704629    0.5197185093863299    
  0.4935730224194504    0.5197184544181819    0.57803122284563    0.5858934328115218    0.4523601312410148    
  0.27742025277949656    0.21042056698669478    0.2774202604001764    0.3451860552398914    0.5091992740084047    
  0.6223046805868228    0.6070303367892246    0.548831644021188    0.5228817676388953    0.5488316399352476    
  0.6070302979600218    0.6223046369175642    0.5091992919499145    0.3451860435052223    0.2774202604001764    
  0.45236021838830515    0.509199306144695    0.6295287647703769    0.6969784274106755    0.668890919117738    
  0.6079124321809064    0.579750678215185    0.6079123747960372    0.6688908804461896    0.6969784142701163    
  0.6295287927565004    0.5091993175336808    0.45236021838830515    0.5858933828111458    0.6223046822709691    
  0.6969784294352578    0.7331983348279851    0.6830083437543634    0.5879169438942973    0.5416645098427583    
  0.5879169506498838    0.6830083468077335    0.7331983056204695    0.6969784506682626    0.6223046712265558    
  0.5858933828111458    0.5780312848460375    0.6070303033760429    0.6688909145667741    0.6830083104169206    
  0.5662606387275618    0.3957470529673665    0.32381256930906954    0.395747026733585    0.5662605766565669    
  0.6830083554210418    0.6688908792246898    0.6070303101934784    0.5780312848460375    0.5197184922696675    
  0.5488316427945054    0.6079123890356329    0.5879169321156884    0.3957470648211824    0.1946959431039825    
  0.12964921801354531    0.1946959288516896    0.39574703716197224    0.5879169637726389    0.6079123954383159    
  0.5488317001005829    0.5197184922696675    0.49357300231172435    0.5228817302266265    0.5797506856297131    
  0.5416644038699905    0.3238125496155154    0.12964921850576513    0.07569734822852615    0.12964920777227634    
  0.3238125737079156    0.5416644611817821    0.5797506638201887    0.5228817387853542    0.49357300231172435    
  0.5197184830857852    0.5488316438681817    0.6079124055603273    0.587916951660217    0.3957470451358193    
  0.19469594184010458    0.12964923300438863    0.19469593687218903    0.3957470141404613    0.5879169650265719    
  0.6079124278484754    0.5488316848637016    0.5197184830857852    0.5780312235393317    0.6070303147969327    
  0.6688908389499819    0.6830082962372338    0.5662606585320259    0.3957470210034305    0.3238125657774851    
  0.3957470340887862    0.5662605649461162    0.6830083292485953    0.6688908753628795    0.607030299643769    
  0.5780312235393317    0.5858933894529738    0.622304711846436    0.6969784714586675    0.7331983030252174    
  0.6830083731194362    0.5879169614573284    0.5416644834846899    0.5879169721544601    0.6830083019026317    
  0.733198344627909    0.6969784383379388    0.6223047036248099    0.5858933894529738    0.4523601774798909    
  0.5091992798789331    0.6295287650146428    0.6969784355089113    0.6688909119539018    0.6079123879828998    
  0.579750674347562    0.607912425103461    0.668890860251099    0.6969784723215674    0.6295288200162688    
  0.5091993156533035    0.4523601774798909    0.27742027141347425    0.3451860369563234    0.5091992649891453    
  0.6223047015592134    0.6070303022833862    0.5488316729257665    0.5228817320322615    0.5488316721579553    
  0.6070303051260402    0.6223047214278897    0.5091992428406814    0.3451860811724836    0.27742027141347425    
  0.21042056698669478    0.2774202390354819    0.4523601760705068    0.5858933416599169    0.5780312098704629    
  0.5197185093863299    0.4935730224194504    0.5197184544181819    0.57803122284563    0.5858934328115218    
  0.4523601312410148    0.27742025277949656    0.21042056698669478    0.399733129837834    0.4391081487074747    
  0.5144101223773206    0.5397838552317672    0.5006371054706629    0.4515098537736407    0.43174476539366485    
  0.4515098414792342    0.5006371363619885    0.5397839103685242    0.5144100900067216    0.43910815581477985    
  0.399733129837834    0.4391081511680357    0.47479393411543014    0.5418901454446317    0.5639345261867785    
  0.5275903808875988    0.4807866702022867    0.46149091571962186    0.48078667050650004    0.5275903282864738    
  0.5639344839613402    0.541890191016219    0.4747939519595304    0.4391081511680357    0.5144101171897628    
  0.5418902118010452    0.5945659248838446    0.6160643207929889    0.587994787653139    0.542101944569084    
  0.5208177297834856    0.5421019051269423    0.5879947822865454    0.616064326597378    0.5945658848533225    
  0.5418901949279953    0.5144101171897628    0.5397838508385195    0.5639345253455752    0.6160643458785141    
  0.6457170609877851    0.6078598078997226    0.5269832833817062    0.48622226833211923    0.5269832359952497    
  0.6078597916523163    0.6457170406167461    0.6160643155749411    0.5639345193657945    0.5397838508385195    
  0.5006371608241051    0.5275903540965239    0.587994763164994    0.6078598329346923    0.5021808957848216    
  0.34294804957872327    0.2762897790573224    0.34294804926632727    0.5021808530310663    0.6078597973160056    
  0.5879947908271324    0.5275903689208539    0.5006371608241051    0.4515098483958083    0.4807866306387644    
  0.5421019262879133    0.5269832615341026    0.3429480506437644    0.1567584769382354    0.09950919115178394    
  0.15675847207662724    0.3429480567005137    0.5269833346288619    0.5421019504631039    0.4807867233095442    
  0.4515098483958083    0.43174477909490505    0.46149089410471994    0.5208176655831916    0.48622222916805974    
  0.2762897535173341    0.09950917852574302    0.05401492667872871    0.09950917241879714    0.2762897680282757    