#     DFTpy    
  CRYSTAL 
    
  PRIMVEC    
  3.2837298341168557    -1.8041452e-10    3.419627048275862e-10    
  -1.8041452e-10    3.283729833926047    1.6477416620689654e-10    
  6.248937275862068e-10    3.011540551724138e-10    6.015856696860532    
  PRIMCOORD    
  4    1    
  Si    1.6418649169958661    1.6418649178665938    1.8486381689499027    
  Si    6.088458738181156e-10    -5.634787410785077e-10    1.1592901774581237    
  Si    9.33826463880729e-11    4.2556101113281985e-10    4.856566515990168    
  Si    1.6418649174881341    1.6418649166192645    4.167218531829605    
  BEGIN_BLOCK_DATAGRID_3D    
  3d_datagrid_density    
  BEGIN_DATAGRID_3D#0    
  15    15    27    
  0.0    0.0    0.0    
  3.2837298341168557    -1.8041452e-10    3.419627048275862e-10    
  -1.8041452e-10    3.283729833926047    1.6477416620689654e-10    
  6.248937275862068e-10    3.011540551724138e-10    6.015856696860532    
  0.5472016493394084    0.5047540807367762    0.3990797561169184    0.27940606027798603    0.1833899301536411    
  0.12200853241828771    0.09028989290310738    0.08070648148368512    0.09028988381264161    0.12200854605073257    
  0.18338990857167295    0.2794060437002634    0.3990797320320397    0.5047541035229072    0.5472016493394084    
  0.5047541362419117    0.4667144285535672    0.3718326684568935    0.26369997886703683    0.1760265606260147    
  0.1191689541898567    0.08945844252949012    0.08044109065032877    0.08945842973909085    0.11916893889246609    
  0.1760265729705427    0.2636999523351038    0.3718326648449808    0.46671441073562764    0.5047541362419117    
  0.3990797021751678    0.3718326433595649    0.30331813710516453    0.22355187632186788    0.1566476186678377    
  0.11156515354390031    0.08734589933993583    0.07991795357295886    0.08734588531750391    0.11156512860634346    
  0.15664765149324086    0.2235518444363127    0.30331814847267957    0.37183269152940335    0.3990797021751678    
  0.27940605087162657    0.2636999658863763    0.223551848491961    0.17499557408437616    0.13212288971283956    
  0.10173220261435768    0.08479569813951472    0.07952011330188387    0.08479569840567067    0.10173220429614999    
  0.13212292379084578    0.17499553325100842    0.22355183521115235    0.26369996691206077    0.27940605087162657    
  0.18338992441067017    0.17602653691527378    0.15664762236840085    0.13212293002557213    0.10942029475439626    
  0.09251516492529074    0.0826424084322627    0.07947334962527225    0.08264241790263367    0.09251515343645116    
  0.10942031073391394    0.13212290955275835    0.15664759851762664    0.17602656628404245    0.18338992441067017    
  0.12200854493815579    0.11916894094098682    0.11156514496000937    0.10173220433870464    0.09251514743522915    
  0.08547913507105967    0.08118203211407601    0.07975620555776437    0.08118200416286728    0.08547912763159701    
  0.09251517058145033    0.10173219371289267    0.11156515218094398    0.11916893671147122    0.12200854493815579    
  0.0902898819961956    0.08945842232203455    0.08734590787394779    0.0847957027958956    0.08264242442348739    
  0.08118202633264177    0.08039913158149976    0.08019592126590983    0.08039913163532851    0.08118201561065312    
  0.08264243986214384    0.08479568701030235    0.08734590395824311    0.0894584316371884    0.0902898819961956    
  0.0807064729027477    0.08044108721091896    0.07991794090875447    0.07952013983960513    0.07947334050313015    
  0.07975622678167309    0.08019589995110171    0.08044882295963933    0.08019592401564993    0.07975619238530497    
  0.07947334676303819    0.07952011316901882    0.07991792589728375    0.08044109074707347    0.0807064729027477    
  0.09028989252813463    0.08945843249579682    0.08734590376071631    0.08479570483596163    0.08264241416344101    
  0.0811820225602869    0.08039914425038887    0.08019590149887904    0.0803991433275316    0.08118200575620783    
  0.08264243104416467    0.08479569444302613    0.08734590342441408    0.0894584268345341    0.09028989252813463    
  0.12200853722095813    0.1191689549913314    0.11156515757222148    0.10173219995089514    0.09251516466273092    
  0.08547915637381681    0.0811819973816411    0.07975621732106712    0.08118201503919276    0.08547913817907304    
  0.09251518458835017    0.10173219304725635    0.11156516042707544    0.11916895156560109    0.12200853722095813    
  0.18338990133305996    0.1760265781587845    0.15664761384097908    0.13212294243254027    0.109420284192213    
  0.09251516738008735    0.08264240738909989    0.07947335101758786    0.08264240656097074    0.09251515151326373    
  0.1094203105598303    0.13212291461208378    0.1566475918288977    0.17602657086118517    0.18338990133305996    
  0.2794060377887923    0.2636999483195371    0.22355184722474153    0.17499555287026752    0.13212289495926002    
  0.10173220584943325    0.08479568578562235    0.07952012416597681    0.08479570249264837    0.10173219263674256    
  0.13212293633872446    0.17499554154774    0.2235518326795209    0.2636999585857789    0.2794060377887923    
  0.3990796963658928    0.3718326959858681    0.30331810897550543    0.22355188542028892    0.15664761539852048    
  0.11156513229695464    0.08734590069935792    0.07991794958957525    0.08734587704003316    0.11156514414797623    
  0.1566476178909676    0.22355182927437628    0.30331811463201075    0.37183269629461146    0.3990796963658928    
  0.5047541411227494    0.46671434560057273    0.37183268490740595    0.26369996044332894    0.17602657158471127    
  0.11916896873317655    0.08945841015807639    0.08044110167546122    0.08945843732309706    0.11916895198611832    
  0.17602655291138208    0.26369996225188297    0.3718326944304959    0.466714337382888    0.5047541411227494    
  0.5472016493394084    0.5047540807367762    0.3990797561169184    0.27940606027798603    0.1833899301536411    
  0.12200853241828771    0.09028989290310738    0.08070648148368512    0.09028988381264161    0.12200854605073257    
  0.18338990857167295    0.2794060437002634    0.3990797320320397    0.5047541035229072    0.5472016493394084    
  0.5501900964986963    0.5123047404260641    0.4132189156077816    0.29382316410808074    0.19411371531647117    
  0.1293021309100874    0.09556994047603362    0.08533466221181987    0.09556994363807018    0.12930214432532988    
  0.1941136931537233    0.29382313880838246    0.41321888011585334    0.5123047275978664    0.5501900964986963    
  0.5123047620912078    0.4775568475774983    0.38698695627933805    0.27805870233480906    0.18667419183833248    
  0.1266065445222716    0.09497199611443954    0.08531018815276019    0.09497199661287374    0.1266065233217913    
  0.18667420488059558    0.27805869578016096    0.38698694851542875    0.47755685465233433    0.5123047620912078    
  0.4132188578690179    0.38698692097159676    0.31905305925475846    0.2371422361373891    0.1670379025903071    
  0.11942153177908298    0.09356926967565656    0.08554173912480888    0.09356927263552607    0.1194214931477197    
  0.16703793004710565    0.23714221268169755    0.3190530720057024    0.3869869542610276    0.4132188578690179    
  0.2938231679370259    0.2780586900500057    0.23714222608101068    0.18684672996006818    0.1420789043661704    
  0.1101665555217007    0.09211813097508163    0.08638776214662194    0.09211813124112776    0.11016655914337779    
  0.14207894362574586    0.18684670809035794    0.23714221522062945    0.2780587156975557    0.2938231679370259    
  0.1941136970130472    0.18667417950162912    0.1670379039332432    0.14207892872514008    0.1188728394481251    
  0.10149811010381016    0.09122738957285642    0.08788631369020082    0.0912273924831482    0.10149807245564774    
  0.11887285595004608    0.1420789289510668    0.16703787963353783    0.18667417755344987    0.1941136970130472    
  0.12930214142541488    0.12660649971959756    0.11942152732036056    0.11016657355807638    0.10149807342621507    
  0.09494601297247478    0.09099978630133063    0.08969914977867481    0.09099976901695896    0.09494601649078384    
  0.10149810325410438    0.11016655478532725    0.11942155739581131    0.12660650514192062    0.12930214142541488    
  0.09556995018099813    0.09497199286028774    0.09356928633790884    0.0921181347488529    0.09122741487446608    
  0.09099979356192757    0.09108519582497271    0.09115697937639296    0.09108521771774813    0.09099977439045955    
  0.09122741610852204    0.09211812852747928    0.09356929311922126    0.09497199724797104    0.09556995018099813    
  0.08533465807249246    0.08531019545429293    0.08554171881918113    0.08638776737974818    0.08788629247879541    
  0.08969916600841041    0.0911569639589693    0.09171918964979689    0.09115696600706638    0.0896991499425404    
  0.0878863025082871    0.08638775511259454    0.0855417017328866    0.08531020324984974    0.08533465807249246    
  0.09556995098528089    0.09497200091469003    0.09356926442485873    0.09211817192631006    0.0912274069878209    
  0.09099977924052996    0.0910852070956489    0.09115697345617874    0.09108521000677318    0.09099978272519342    
  0.09122742118206376    0.09211812953660048    0.09356928362647345    0.09497200058916805    0.09556995098528089    
  0.12930212054524193    0.1266065101497786    0.119421538282468    0.11016656246075093    0.10149808652458214    
  0.09494604518673086    0.09099976294019634    0.08969917535045081    0.09099976234812432    0.09494601803565536    
  0.10149811148950282    0.11016655816722212    0.11942153326898025    0.12660653568735827    0.12930212054524193    
  0.19411366873365038    0.18667418643986633    0.1670378949812191    0.14207895779370008    0.11887281899329902    
  0.10149809211748535    0.09122741118021314    0.08788632352725029    0.09122740118295843    0.10149810343060463    
  0.11887284185588869    0.14207891476904125    0.16703787900238537    0.18667420282654232    0.19411366873365038    
  0.2938231572859919    0.27805869732243876    0.23714223252806774    0.1868467015237942    0.14207890872783488    
  0.11016655585791212    0.09211811248770682    0.08638775281445774    0.09211813891943163    0.11016655108290406    
  0.14207894560620815    0.18684668800412224    0.23714221557847637    0.278058700960921    0.2938231572859919    
  0.41321885843675144    0.3869869411507719    0.31905303758239445    0.23714224758259597    0.1670379093229778    
  0.11942153311962898    0.09356928351656028    0.0855417310888227    0.0935692547507911    0.11942152563769168    
  0.1670379156948284    0.23714219598417258    0.31905301996220636    0.38698694667382594    0.41321885843675144    
  0.512304807428334    0.47755683574152163    0.3869869616036353    0.278058704639043    0.18667417715678053    
  0.12660654422282686    0.0949719734334973    0.08531019589514328    0.09497200385753192    0.1266065296022209    
  0.18667419964735063    0.2780587095307716    0.38698694766537295    0.47755683983193803    0.512304807428334    
  0.5501900964986963    0.5123047404260641    0.4132189156077816    0.29382316410808074    0.19411371531647117    
  0.1293021309100874    0.09556994047603362    0.08533466221181987    0.09556994363807018    0.12930214432532988    
  0.1941136931537233    0.29382313880838246    0.41321888011585334    0.5123047275978664    0.5501900964986963    
  0.4821234604355737    0.473988837023607    0.42647435987482524    0.32886408794048927    0.22468277390316074    
  0.15074787779569507    0.11113332387561692    0.09900404457224228    0.11113333259059131    0.15074788001145079    
  0.22468279559419957    0.3288640704893123    0.4264743199722545    0.4739888554083994    0.4821234604355737    
  0.4739889011374792    0.4619423538307229    0.4095484468731655    0.3147798996623297    0.21755565404961552    
  0.14873866981918468    0.11148301049038555    0.0999763005671088    0.11148298700752826    0.1487386455212625    
  0.21755566995278117    0.31477984744128046    0.40954840139766235    0.46194237227362234    0.4739889011374792    
  0.42647428083372985    0.4095484042650614    0.35558433809027984    0.27544311950386713    0.198375422888648    
  0.14348050881335697    0.11285368567158853    0.10315920117157258    0.11285367058110178    0.14348049181067388    
  0.19837545778325594    0.2754431107778576    0.35558433424691743    0.40954844073115376    0.42647428083372985    
  0.3288641013041848    0.31477983996904085    0.27544309793683996    0.2228704243459615    0.17334894212796625    
  0.13686541591425025    0.115553070687799    0.10859650063137054    0.1155530659419701    0.13686542899884688    
  0.1733489856738183    0.22287039481653015    0.2754430633820062    0.3147798927072257    0.3288641013041848    
  0.2246827678359529    0.21755563494687497    0.19837539620817102    0.1733489858467871    0.14929527017269975    
  0.13069394585109892    0.119373167831462    0.11559865330728791    0.11937317923927392    0.1306939352581388    
  0.14929530794847304    0.17334896636571334    0.19837539570945878    0.21755565528355666    0.2246827678359529    
  0.15074788088013275    0.14873863849235486    0.14348051119126096    0.13686541731762836    0.1306939332443326    
  0.1261466714780323    0.12359444651191578    0.12279950363986485    0.12359439819756735    0.12614665216652385    
  0.13069395207078877    0.1368653900780205    0.14348052064796332    0.148738644573308    0.15074788088013275    
  0.11113334460418614    0.11148298423784078    0.11285369470654183    0.11555307936105888    0.11937317652083437    
  0.12359443632511612    0.12685260539482354    0.12802344003010516    0.12685262008874565    0.12359442722125562    
  0.11937319310338497    0.11555307431364034    0.11285369242757957    0.11148299008737161    0.11113334460418614    
  0.09900403054513793    0.09997631532933106    0.10315920380771744    0.10859652681189809    0.11559863925153725    
  0.12279953027939465    0.12802343027391372    0.12983410802875606    0.12802341661114944    0.12279950256039629    
  0.11559863954387278    0.10859650669629514    0.10315918806553864    0.0999763051770511    0.09900403054513793    
  0.11113334499871998    0.11148299482973899    0.11285367929220005    0.1155530883000168    0.119373172854667    
  0.12359442648982036    0.12685263201145364    0.12802341906273149    0.12685262301248132    0.12359443469795846    
  0.11937318233376043    0.11555306452278324    0.11285369415445969    0.11148299502630812    0.11113334499871998    
  0.15074785627725704    0.14873865186090876    0.14348050992761377    0.13686541215705444    0.13069394140105706    
  0.12614668033756235    0.12359441658951899    0.12279951285254449    0.12359442325128629    0.1261466618601718    
  0.13069396697963961    0.13686539473530074    0.14348051101287912    0.14873865950345277    0.15074785627725704    
  0.22468275692526585    0.2175556700541665    0.19837540379418572    0.17334902060424218    0.14929524868732008    
  0.1306939505185846    0.11937315850433093    0.11559865970437236    0.11937317998517206    0.13069395036055304    
  0.1492953050396313    0.17334896918681544    0.19837539464106538    0.2175556525967984    0.22468275692526585    
  0.32886406706011473    0.3147798570761479    0.27544309415065094    0.22287041671901026    0.17334894339037257    
  0.13686541892126142    0.11555306458682983    0.10859651200152746    0.11555306416437769    0.13686539526835848    
  0.1733489901633378    0.22287040876292538    0.27544309096839    0.31477987056941337    0.32886406706011473    
  0.4264743235633197    0.409548410547643    0.35558431859007394    0.2754431486892815    0.1983754103638539    
  0.14348049627297596    0.11285368970079677    0.10315921315672845    0.11285367883201633    0.1434805125914958    
  0.19837543992441095    0.2754430770432678    0.3555843106074055    0.4095484187838926    0.4264743235633197    
  0.4739888801139677    0.46194232352154885    0.4095484470258629    0.314779857066802    0.21755565783195424    
  0.14873868663795844    0.11148297794950209    0.0999763050457412    0.11148298800508283    0.14873865535494207    
  0.21755565122842999    0.3147798710806346    0.4095484370621473    0.4619423237947805    0.4739888801139677    
  0.4821234604355737    0.473988837023607    0.42647435987482524    0.32886408794048927    0.22468277390316074    
  0.15074787779569507    0.11113332387561692    0.09900404457224228    0.11113333259059131    0.15074788001145079    
  0.22468279559419957    0.3288640704893123    0.4264743199722545    0.4739888554083994    0.4821234604355737    
  0.2704309833067386    0.31122127350706796    0.3786059965770068    0.3610338487578507    0.2686553036365719    
  0.18397788359417278    0.13584697868113613    0.12102993430595965    0.13584696469907853    0.18397789864644215    
  0.2686553218529509    0.3610338149528428    0.3786059969717634    0.3112212611278807    0.2704309833067386    
  0.3112212696390312    0.34362822061328285    0.38809324528123645    0.35479494863512046    0.26355961620895474    
  0.18383180599457208    0.13836844314612437    0.1242244191208526    0.13836842945395592    0.18383178096400407    
  0.26355960902410547    0.3547949403949232    0.3880932390710534    0.3436282475715758    0.3112212696390312    
  0.37860596067349317    0.3880932164560417    0.38398836416311277    0.32873069397033694    0.24852329456560485    
  0.18358269038195826    0.14590432206906753    0.1338482945575811    0.145904335284661    0.18358268345433035    
  0.24852334063651174    0.32873066961854347    0.3839883990336584    0.38809324382460747    0.37860596067349317    
  0.36103383333336325    0.35479492805787505    0.328730693722023    0.28060040011035975    0.22675289843660412    
  0.18391425508239778    0.15799574024305596    0.1493631263225843    0.15799570884644332    0.18391424790739896    
  0.22675292062505073    0.28060037562318557    0.3287306534718045    0.35479497957549927    0.36103383333336325    
  0.2686553071992635    0.2635595713280102    0.2485233091455151    0.226752910955057    0.20385483203335633    
  0.18489703885008332    0.1728114384372522    0.16865740400851878    0.1728114375453015    0.18489703393258114    
  0.20385489545626195    0.2267528991611906    0.24852330797135602    0.26355960504872794    0.2686553071992635    
  0.18397790933034866    0.1838317848105767    0.18358270246512887    0.18391426673630942    0.18489702329458135    
  0.18613679410760142    0.18726104594862214    0.18769489356438504    0.1872610089990023    0.18613679366566005    
  0.18489705844375762    0.1839142515892901    0.18358271327495587    0.1838317675573765    0.18397790933034866    
  0.13584697075095364    0.13836843431445675    0.14590433594012958    0.15799573396122632    0.17281144080940697    
  0.18726103603675906    0.19752235432624918    0.2010666361595932    0.19752235032866267    0.1872610375279574    
  0.17281144137113696    0.1579957271969828    0.145904366268798    0.13836843987016903    0.13584697075095364    
  0.12102991099817925    0.12422443177659387    0.13384830173499093    0.1493631374530921    0.16865740660237488    
  0.18769492568528878    0.20106662624899432    0.2055636198834838    0.2010666289905022    0.1876948812337545    
  0.1686574218252212    0.1493631016100765    0.13384827816227238    0.1242244301386771    0.12102991099817925    
  0.13584697834660892    0.13836843373987712    0.14590436166017992    0.15799575914630276    0.17281144320928207    
  0.1872610254904185    0.1975224097663565    0.20106662529704808    0.1975223710995926    0.18726103464611016    
  0.17281146841048617    0.15799571757984718    0.14590437380953247    0.1383684307735522    0.13584697834660892    
  0.18397790792723634    0.1838317658140274    0.1835827055130053    0.18391428154436457    0.1848970505620168    
  0.1861368245068149    0.1872610154241086    0.18769492431614584    0.18726102426824914    0.18613680190786466    
  0.18489707050885057    0.18391425223223598    0.1835827069498144    0.18383177672193307    0.18397790792723634    
  0.26865526788546495    0.2635596138861215    0.24852330689819366    0.2267529599712095    0.2038548086240686    
  0.18489704873273696    0.1728114254651118    0.16865742061532296    0.17281142633526872    0.18489704165724577    
  0.2038548813939822    0.22675289064805434    0.2485232897574916    0.2635596235494311    0.26865526788546495    
  0.36103382719256677    0.3547949803157519    0.3287306762807016    0.280600403765833    0.22675287953381382    
  0.1839142789281782    0.15799571253599748    0.1493631372513335    0.157995726966724    0.18391425781631507    
  0.226752919202319    0.2806003861919949    0.3287306389799787    0.3547949475010057    0.36103382719256677    
  0.3786059656291699    0.38809324126970374    0.38398838624329135    0.3287306933627093    0.24852331586521137    
  0.18358268934398497    0.14590435191702134    0.13384828588284936    0.14590431638000398    0.18358270577977578    
  0.2485233209603607    0.3287306612198607    0.38398837236193323    0.38809323339469165    0.3786059656291699    
  0.31122128359694684    0.3436282120958564    0.3880932691897341    0.3547949418073371    0.26355958831102766    
  0.1838318099227507    0.13836841523393426    0.12422444181388853    0.13836841733784397    0.18383179680807982    
  0.26355960064152606    0.3547949504688991    0.3880932524046746    0.3436282121367687    0.31122128359694684    
  0.2704309833067386    0.31122127350706796    0.3786059965770068    0.3610338487578507    0.2686553036365719    
  0.18397788359417278    0.13584697868113613    0.12102993430595965    0.13584696469907853    0.18397789864644215    
  0.2686553218529509    0.3610338149528428    0.3786059969717634    0.3112212611278807    0.2704309833067386    
  0.09732142498751897    0.14751467652735037    0.28872417092019775    0.37421030466167193    0.31436833968063665    
  0.2227164886728117    0.16613179338640785    0.14853821207406145    0.1661317943928495    0.2227165139647839    
  0.31436833575374934    0.37421029783095744    0.2887241474779966    0.14751469042705975    0.09732142498751897    
  0.14751470182888515    0.19989124606944567    0.326286676112686    0.3819638533414649    0.31418033618517716    
  0.22632042598246083    0.17240922149778698    0.15547424385179423    0.17240921020732194    0.22632042183147444    
  0.3141803255394028    0.38196381522446515    0.3262866825844367    0.19989126254304737    0.14751470182888515    
  0.2887241246245594    0.32628664584599143    0.3896262996771939    0.38297551537723773    0.3095389774144146    
  0.23590505232916945    0.19079971135447832    0.17615916908456666    0.19079971591583242    0.23590500465237962    
  0.30953902323184423    0.38297548714874297    0.38962633254769097    0.32628667293473274    0.2887241246245594    
  0.3742102899211312    0.3819638299904245    0.38297548689139216    0.3504625809106576    0.29736043777740523    
  0.24997765305201797    0.21983595856341748    0.20949391718422747    0.21983595350355423    0.24997765635602204    
  0.2973605075358197    0.3504625476753981    0.3829754643872657    0.38196388115825763    0.3742102899211312    
  0.31436832334739667    0.31418029042327683    0.30953898499929977    0.29736050276912634    0.28116178188232294    
  0.2658239185949618    0.2546290129069789    0.2502957464150761    0.2546290221747237    0.26582388400910445    
  0.2811618269707952    0.2973604709824034    0.3095389709239607    0.31418030067849656    0.31436832334739667    
  0.22271648370394306    0.22632041118787125    0.23590504682842123    0.24997764743039536    0.2658239002042182    
  0.27869053234862645    0.28549072888836247    0.28717999796084936    0.2854907103459967    0.2786905361287239    
  0.2658239435684962    0.24997763858433902    0.2359050510364493    0.2263204240747344    0.22271648370394306    
  0.16613181628998047    0.17240920542194982    0.19079971490029096    0.2198359615099632    0.25462900787979503    
  0.2854907486416411    0.3035370241950308    0.30853995570493636    0.3035370358033924    0.28549073525392876    
  0.25462903440815216    0.21983596594193822    0.19079972345888813    0.17240923180866038    0.16613181628998047    
  0.14853819390801815    0.1554742508205945    0.17615918140116266    0.20949393843179762    0.25029571729686034    
  0.28718005416935743    0.30853990412195265    0.31422615938637594    0.30853990151088057    0.2871800033015906    
  0.2502957317496509    0.20949392256198848    0.1761591574237573    0.15547423754376097    0.14853819390801815    
  0.16613179858223842    0.17240921843238563    0.19079971950340716    0.21983597381350192    0.25462901945966643    
  0.2854907310941941    0.30353704872946224    0.3085399314806754    0.30353704474562965    0.28549073919355294    
  0.2546290599847391    0.21983595062948344    0.19079973320884933    0.17240921531161363    0.16613179858223842    
  0.2227164983050385    0.22632041590880492    0.23590505092003494    0.24997765440867614    0.2658239092136432    
  0.27869053574855335    0.285490689228831    0.287180062346079    0.28549069320702786    0.278690520447949    
  0.26582395451623086    0.24997762377973096    0.23590506233110045    0.22632041289251695    0.2227164983050385    
  0.3143683329230598    0.3141803185163202    0.3095389792905833    0.2973605141282552    0.28116176368641904    
  0.2658239201579235    0.25462902747686694    0.25029575026350326    0.25462901162463225    0.26582393883729016    
  0.2811618428050621    0.2973604623323494    0.3095389603123538    0.31418031733124624    0.3143683329230598    
  0.37421028345043716    0.38196385026020657    0.38297551433287036    0.35046258084125065    0.2973604431182374    
  0.24997766790443424    0.21983593447601826    0.20949394708696026    0.21983594024252362    0.24997766637511612    
  0.29736049069003073    0.3504625351333574    0.3829755008282483    0.38196382417591684    0.37421028345043716    
  0.28872412904657285    0.32628668277456224    0.38962630837423345    0.38297550457247753    0.30953900133122053    
  0.23590504572713414    0.19079972549163324    0.1761591788750935    0.1907996796915902    0.23590506256217456    
  0.3095390215084788    0.38297549306285916    0.3896262951977678    0.32628669357330947    0.28872412904657285    
  0.14751469899879252    0.19989123968955916    0.3262867114432392    0.3819638242313995    0.3141803021084725    
  0.2263204397101602    0.17240918567364275    0.155474234464804    0.1724092125441274    0.22632041492878657    
  0.31418030525606705    0.38196384365247094    0.3262866725117512    0.19989125092094684    0.14751469899879252    
  0.09732142498751897    0.14751467652735037    0.28872417092019775    0.37421030466167193    0.31436833968063665    
  0.2227164886728117    0.16613179338640785    0.14853821207406145    0.1661317943928495    0.2227165139647839    
  0.31436833575374934    0.37421029783095744    0.2887241474779966    0.14751469042705975    0.09732142498751897    
  0.05245744871983561    0.0962027498970844    0.2513318034689229    0.3872994608032505    0.35055637217365004    
  0.2563666949120866    0.1945606427271226    0.17504903614956266    0.1945606497433491    0.2563666905705329    
  0.35055638458326877    0.3872994412266064    0.2513317481107375    0.09620273318260526    0.05245744871983561    
  0.09620276835098314    0.14851802170536205    0.30101356737772617    0.4056151682786955    0.3563552526519515    
  0.2650493095370574    0.2057787171221949    0.18685755394566259    0.2057787007881889    0.26504931137386356    
  0.356355224955898    0.4056151275405219    0.30101358483533225    0.14851802909871734    0.09620276835098314    
  0.2513317497173537    0.30101354713971556    0.4014895493370102    0.42994614362346784    0.3659862895307109    
  0.28881972414823304    0.23908758800287616    0.22259428913638424    0.23908756617736218    0.28881967944713    
  0.3659863182403879    0.4299461399655756    0.40148954794696057    0.30101357369267856    0.2513317497173537    
  0.38729943386995386    0.4056151543811257    0.42994613758312966    0.41588210550270177    0.37013283262262864    
  0.323670848024604    0.29190094160406244    0.28039789707789947    0.2919009383997718    0.3236708204982312    
  0.3701329379221149    0.41588205818388924    0.42994610883335904    0.4056151818695573    0.38729943386995386    
  0.3505563756494829    0.35635521713847873    0.3659862965554965    0.37013290286966516    0.36808775446482195    
  0.3609990001242743    0.35091383677910704    0.34553587228139027    0.35091382349717404    0.3609989998595503    
  0.3680878016854396    0.3701328919300966    0.36598624989510736    0.35635525305594057    0.3505563756494829    
  0.25636667005712915    0.2650493002401248    0.28881970642995275    0.3236708388336566    0.36099897400926456    
  0.38447044716255707    0.386790620921043    0.3832358662520357    0.3867905826863072    0.3844704562561083    
  0.3609989908973826    0.3236708282419191    0.2888197303324921    0.26504929616720124    0.25636667005712915    
  0.1945606564704038    0.2057787119822006    0.23908758489045923    0.29190096522200726    0.3509138404821067    
  0.3867906263656277    0.3853684734441824    0.3767466308646324    0.3853684757218165    0.3867906115409191    
  0.3509138679440691    0.2919009431722806    0.23908759998853507    0.2057787061952322    0.1945606564704038    
  0.1750489885275633    0.18685754431110563    0.22259429313499013    0.28039789230096357    0.3455358662698177    
  0.3832358915810089    0.37674661032992685    0.3644608895969837    0.37674661556441635    0.3832358787500873    
  0.345535863436774    0.28039784301461734    0.22259426646268382    0.1868575541413314    0.1750489885275633    
  0.19456066621176235    0.2057787327586122    0.23908758726773524    0.2919009731147708    0.3509138542503309    