#     DFTpy    
  CRYSTAL 
    
  PRIMVEC    
  3.639827586206896    0.0    0.0    
  0.0    3.639827586206896    0.0    
  0.0    0.0    3.639827586206896    
  PRIMCOORD    
  4    1    
  Si    0.0    0.0    0.0    
  Si    0.0    1.819913793103448    1.819913793103448    
  Si    1.819913793103448    0.0    1.819913793103448    
  Si    1.819913793103448    1.819913793103448    0.0    
  BEGIN_BLOCK_DATAGRID_3D    
  3d_datagrid_density    
  BEGIN_DATAGRID_3D#0    
  17    17    17    
  0.0    0.0    0.0    
  3.639827586206896    0.0    0.0    
  0.0    3.639827586206896    0.0    
  0.0    0.0    3.639827586206896    
  0.0545164728710772    0.09660836116859421    0.24769061232771789    0.3975795850311086    0.3819332713898737    
  0.2927731839885082    0.22535778904638348    0.19021113614016147    0.1793701907937892    0.19021116477533884    
  0.22535775786211687    0.2927731952406891    0.3819332904995853    0.3975795091544268    0.24769057836377803    
  0.09660838606207714    0.0545164728710772    0.09660839185730226    0.1462116633160028    0.2940192467628426    
  0.4104905379560675    0.37936738223974414    0.29459634942799695    0.2326024802853985    0.20023596287260623    
  0.19021117730218234    0.2002359567216926    0.2326025513145697    0.2945963455107963    0.37936741484631054    
  0.41049054340947844    0.2940192804633248    0.14621163530953057    0.09660839185730226    0.2476906171319081    
  0.29401923202597186    0.39007620019095196    0.42393013798348794    0.3707857136575987    0.3022776535711049    
  0.2562041824299434    0.2326025132415079    0.2253578157779708    0.23260254523269983    0.2562040961402522    
  0.3022776885945307    0.37078572392797404    0.42393015214284296    0.3900761650031878    0.2940192687271331    
  0.2476906171319081    0.3975795394198505    0.4104904774624292    0.4239301542941208    0.4026580040952294    
  0.358439928772839    0.3218424023481572    0.3022776818760414    0.29459638616650796    0.2927732056991516    
  0.29459628501112967    0.3022776507517894    0.32184241596450114    0.358440022707284    0.40265799527742946    
  0.42393014299724663    0.4104905117571196    0.3975795394198505    0.38193332043719086    0.37936739660824154    
  0.37078575443664574    0.3584400094748941    0.35211359375294166    0.35843999510018903    0.3707857677533737    
  0.3793674285819062    0.3819332969890866    0.3793673926954306    0.3707857707434467    0.35843997771968533    
  0.35211359234998396    0.3584400195654594    0.3707857411717297    0.3793674213563215    0.38193332043719086    
  0.2927731618134493    0.29459631656291263    0.30227767923846927    0.32184242627707355    0.3584399557862828    
  0.4026579805971362    0.4239300866333494    0.41049049538832844    0.39757959032688384    0.4104904297342132    
  0.42393011504699957    0.40265803385188    0.3584399722677508    0.3218423582816587    0.3022776958412577    
  0.294596324416784    0.2927731618134493    0.22535781252478768    0.2326024683088399    0.25620415091019255    
  0.30227769267160914    0.37078575434924316    0.42393017340578804    0.39007610108104573    0.294019244606433    
  0.24769062019169913    0.29401927779628323    0.3900761397774093    0.42393020333241666    0.3707857969824702    
  0.3022776106581201    0.25620415708925    0.23260252995533479    0.22535781252478768    0.19021119023833    
  0.20023597852595407    0.23260249125306026    0.29459627981502967    0.37936738477659593    0.41049049206617955    
  0.2940192262649212    0.146211667700689    0.09660837386701032    0.14621165381102658    0.2940192250411301    
  0.4104905518307087    0.37936738152818117    0.29459630383336194    0.23260254943361205    0.2002359540494877    
  0.19021119023833    0.17937015408047555    0.19021110573846822    0.22535782332135443    0.29277322181392695    
  0.38193329603862247    0.39757955827722563    0.24769059464970328    0.09660836482643334    0.05451648317537236    
  0.09660838852376974    0.2476905954375548    0.39757958685922956    0.38193331989436696    0.2927731652865261    
  0.2253578045759225    0.19021117527748213    0.17937015408047555    0.19021116240193733    0.20023598847959434    
  0.23260247926619854    0.29459638820101625    0.37936742628197234    0.41049053729203605    0.29401923848333483    
  0.1462116571869117    0.09660838799263731    0.14621162555515632    0.29401930267328813    0.4104906149643029    
  0.37936747482315963    0.2945963191737899    0.2326025075027218    0.20023592840726448    0.19021116240193733    
  0.22535782041929953    0.23260249670527855    0.25620416004891167    0.3022776922642156    0.3707857822246602    
  0.42393013569000926    0.3900761378898328    0.29401922570277317    0.24769062438531578    0.2940192684600045    
  0.39007611400655884    0.4239301461445246    0.37078573738347465    0.30227765341503354    0.2562041072661205    
  0.23260250990098813    0.22535782041929953    0.29277320993795797    0.2945963239816509    0.3022776693732808    
  0.3218423915129148    0.3584399388618203    0.4026580154204085    0.42393016768987196    0.4104905385179465    
  0.3975795740959892    0.4104904398726197    0.4239301258605249    0.40265804767702207    0.35843997109550163    
  0.3218423868794144    0.30227768443096825    0.2945963863495171    0.29277320993795797    0.38193331522918633    
  0.3793673872004659    0.3707857944946685    0.35844000351773503    0.35211360443277795    0.3584399786076293    
  0.3707857487889045    0.379367415581129    0.38193328791715125    0.37936740553741344    0.37078571481566774    
  0.3584399706239516    0.3521135987036466    0.3584399890066399    0.37078574301654377    0.37936739127030383    
  0.38193331522918633    0.39757958910772895    0.41049049745389926    0.4239301171313357    0.4026580007953974    
  0.3584399435494574    0.3218424079529332    0.30227762164102095    0.2945963449664815    0.2927731794625981    
  0.29459631461597247    0.30227766267516254    0.32184247098527435    0.35843996079565144    0.40265795569282814    
  0.4239301039059277    0.41049049090864304    0.39757958910772895    0.2476905733469652    0.2940192117401567    
  0.39007611294326155    0.42393018205119404    0.37078575686046766    0.3022776641811618    0.25620416339966945    
  0.23260252851045166    0.22535781754699347    0.23260253143506476    0.25620411563763484    0.3022776917553136    
  0.37078573531795617    0.42393009224038114    0.3900761855567664    0.29401928727649723    0.2476905733469652    
  0.09660839221073046    0.14621166238344174    0.29401929173136127    0.4104905590677643    0.37936742575293547    
  0.2945963499338453    0.232602490945074    0.20023601502991925    0.19021112177476304    0.20023592544190838    
  0.23260250792739962    0.2945963628746927    0.37936738793985775    0.4104905028370491    0.2940192763637091    
  0.1462116181491548    0.09660839221073046    0.0545164728710772    0.09660836116859421    0.24769061232771789    
  0.3975795850311086    0.3819332713898737    0.2927731839885082    0.22535778904638348    0.19021113614016147    
  0.1793701907937892    0.19021116477533884    0.22535775786211687    0.2927731952406891    0.3819332904995853    
  0.3975795091544268    0.24769057836377803    0.09660838606207714    0.0545164728710772    0.09660837136609886    
  0.14621161865390989    0.2940193094984825    0.41049059219880907    0.37936741958601866    0.2945963526579113    
  0.23260250319712206    0.2002359748701237    0.1902112017674427    0.2002359786756036    0.23260249313074183    
  0.2945963397893323    0.3793674289383338    0.4104905439651805    0.29401928681586365    0.1462116709838524    
  0.09660837136609886    0.14621165363764266    0.19860942662718234    0.3336095212036796    0.4178889162320675    
  0.3753036141387885    0.29531223977636584    0.2386402281684537    0.2092835552153775    0.2002360042235113    
  0.20928351258798653    0.23864028931254022    0.29531229153695054    0.3753036825855173    0.4178888399367864    
  0.3336095157369334    0.19860942625955005    0.14621165363764266    0.2940192653281911    0.3336094877986147    
  0.40727584525584043    0.42001186751459585    0.3637894171562024    0.3003620659462223    0.25905627278011045    
  0.23864025552228865    0.23260249318515702    0.23864026154144066    0.25905622518448845    0.30036211542816016    
  0.3637894395649343    0.4200118293652512    0.4072757684112783    0.33360955155843447    0.2940192653281911    
  0.4104905749212629    0.41788889624165326    0.4200118304163275    0.3924797102026254    0.34952065036179286    
  0.3165918314077966    0.30036205612568523    0.2953122777142036    0.294596349628483    0.2953122189077786    
  0.3003620812704421    0.31659182014977144    0.34952070640458816    0.3924796992924668    0.42001185199703145    
  0.41788884189675124    0.4104905749212629    0.3793674301501637    0.37530356446862095    0.36378945941214597    
  0.34952070616345615    0.3427283305423368    0.3495206573019438    0.3637894336918725    0.37530362668612943    
  0.3793674143403326    0.37530358222393556    0.36378942322740765    0.34952070316028677    0.34272824457424567    
  0.34952067371765977    0.3637894453940997    0.3753036183601494    0.3793674301501637    0.2945962966048349    
  0.2953122491919875    0.3003620802808512    0.316591863154838    0.3495206569505085    0.3924797412151736    
  0.42001176423159536    0.4178888755510102    0.4104905465248798    0.41788885601354425    0.4200118660700954    
  0.3924797734334301    0.3495206856765604    0.316591791774864    0.30036207695758316    0.29531225814298756    
  0.2945962966048349    0.232602515102822    0.23864022970662993    0.2590562744938674    0.30036213249508886    
  0.36378939782812814    0.4200118358397212    0.407275793850497    0.33360952603857014    0.2940192773883882    
  0.33360951246304216    0.40727588456630615    0.42001187999210143    0.3637894600895659    0.30036201654063444    
  0.2590562877824999    0.23864030139167883    0.232602515102822    0.2002360337916793    0.20928357360748745    
  0.23864025210997902    0.295312245017536    0.3753036277740123    0.4178889035055665    0.3336095116975681    
  0.1986094707960725    0.14621167400811427    0.1986094369470121    0.33360950307069454    0.417888906888561    
  0.37530357682432486    0.29531224319971655    0.23864027679676325    0.20928355713542732    0.2002360337916793    
  0.19021114710213888    0.20023592288650416    0.23260250383904293    0.2945963559793908    0.3793674139751104    
  0.4104905149579373    0.29401924420709685    0.14621164651665647    0.09660837767003586    0.14621165588718396    
  0.2940192453935166    0.41049056128231276    0.37936740117451223    0.29459632367053074    0.23260249862931728    
  0.20023600734517474    0.19021114710213888    0.20023597424723277    0.20928353718622342    0.23864021869253585    
  0.29531230207577214    0.37530361983197374    0.41788887843229605    0.33360949012749747    0.19860946602359483    
  0.14621167903048904    0.19860943572914064    0.3336094967747292    0.41788893646551833    0.3753036293633417    
  0.2953121984981981    0.23864023252908081    0.209283575008717    0.20023597424723277    0.2326025192341522    
  0.2386402125681737    0.25905626905668416    0.3003621015858669    0.3637894240367139    0.4200118210109476    
  0.4072758047808313    0.3336095253945245    0.29401927882779993    0.3336095114515164    0.4072757937423324    
  0.42001184262752705    0.3637894552095969    0.30036207821243677    0.259056247579438    0.2386402168758711    
  0.2326025192341522    0.29459636133052    0.2953122295520578    0.30036206899328816    0.31659181185588    
  0.34952064134330635    0.3924797263607062    0.42001179919034365    0.4178889169598871    0.41049056495261815    
  0.4178888046460736    0.42001182149956034    0.3924797873292675    0.3495206936524865    0.31659182632894733    
  0.3003620817089636    0.29531224223680647    0.29459636133052    0.3793674644552381    0.37530356286345185    
  0.3637894431149327    0.34952071705917864    0.34272830169331775    0.3495207027117925    0.3637894601312181    
  0.3753036045820322    0.37936743022250086    0.37530355843933166    0.36378945640149907    0.3495207024326631    
  0.3427282925376882    0.3495206618844029    0.36378942115033036    0.3753035623674497    0.3793674644552381    
  0.41049055761468045    0.417888856319232    0.42001182400005055    0.39247974882306275    0.3495206702903212    
  0.3165918080592174    0.3003620588918459    0.29531226609015393    0.29459634003051777    0.2953122103811865    
  0.30036209714469253    0.31659185515823146    0.34952066308686064    0.3924797173538907    0.420011815474064    
  0.41788882671688105    0.41049055761468045    0.2940192472831061    0.3336094945738418    0.4072758058669111    
  0.42001192735267734    0.363789445694317    0.3003620970737591    0.2590562674133703    0.2386402525612627    
  0.23260254567423191    0.23864028381888394    0.25905627203623477    0.30036210283594433    0.3637894672062449    
  0.42001177615045004    0.4072758967878739    0.33360952624234963    0.2940192472831061    0.14621168837997459    
  0.19860940399834254    0.33360950023174457    0.41788886933396685    0.37530359750330694    0.29531226197657584    
  0.23864026726349533    0.2092835695669039    0.20023597304742305    0.2092835084964162    0.23864023167524429    
  0.29531229429690287    0.3753036059920127    0.41788887335009134    0.33360955052970165    0.19860943720449065    
  0.14621168837997459    0.09660837136609886    0.14621161865390989    0.2940193094984825    0.41049059219880907    
  0.37936741958601866    0.2945963526579113    0.23260250319712206    0.2002359748701237    0.1902112017674427    
  0.2002359786756036    0.23260249313074183    0.2945963397893323    0.3793674289383338    0.4104905439651805    
  0.29401928681586365    0.1462116709838524    0.09660837136609886    0.24769059850520675    0.2940192509906651    
  0.39007616101670933    0.42393020925919894    0.3707857914756216    0.30227770008596827    0.25620414740887165    
  0.23260250993722037    0.22535782142429925    0.23260254180284326    0.25620410045799646    0.3022777031159441    
  0.3707857700557873    0.4239301496151357    0.3900761274315893    0.29401929551067785    0.24769059850520675    
  0.2940192491271141    0.3336095137373184    0.40727579234997674    0.4200118704355739    0.36378939590613724    
  0.30036208579619367    0.25905622803920725    0.23864024136341386    0.23260257124113642    0.2386402368842603    
  0.2590562701193463    0.3003621067755358    0.36378947503015163    0.4200117899904001    0.4072758199137759    
  0.33360948671870566    0.2940192491271141    0.39007617429555347    0.40727581360811727    0.4261862749373038    
  0.4012507334480801    0.3466672163766008    0.2989290162203954    0.27091544764789455    0.25905624180565207    
  0.2562041653897689    0.2590562930344466    0.2709154103525568    0.29892901499058566    0.3466672108042199    
  0.4012506587047856    0.42618620736199436    0.40727585528686217    0.39007617429555347    0.4239301898768863    
  0.420011816476827    0.40125067280584314    0.36544057273812164    0.32891075403205544    0.30634288599646714    
  0.29892901328067095    0.3003621208330044    0.302277654996844    0.30036206081040473    0.2989289869632613    
  0.30634289599929737    0.3289107744363729    0.36544057013052256    0.4012506949795115    0.42001177808814105    
  0.4239301898768863    0.3707857929674563    0.3637894023392478    0.3466672201530612    0.3289108133182646    
  0.321303833488218    0.3289107904384486    0.3466672368996245    0.36378946024287856    0.3707857464992726    
  0.36378942282050925    0.3466672871643074    0.3289107763343007    0.321303867146293    0.3289107641023217    
  0.34666721705402354    0.36378945021730813    0.3707857929674563    0.30227766800474276    0.3003620591777219    
  0.2989290003189889    0.30634287354595297    0.328910737412641    0.36544055557973354    0.40125064590063075    
  0.42001180646330444    0.4239301871799051    0.4200117675181178    0.40125069630982774    0.3654406229604408    
  0.3289107799027476    0.3063428392860355    0.29892900466315536    0.3003620871483446    0.30227766800474276    
  0.25620412410014815    0.25905624178399383    0.27091540601269254    0.29892909356160186    0.34666725928763875    
  0.401250720142839    0.42618621566433784    0.4072758105488562    0.3900761130933028    0.4072758334123885    
  0.4261862114390145    0.4012507797648887    0.34666724186912384    0.29892899635448683    0.2709154529309266    
  0.25905628922291185    0.25620412410014815    0.23260256768360005    0.23864021510038919    0.25905627326611236    
  0.3003620469275486    0.3637894287137172    0.42001183855666196    0.4072757602019805    0.33360957180589695    
  0.29401925337403717    0.33360951255920024    0.4072757763888791    0.4200118823112447    0.3637894518393839    
  0.300362065249271    0.2590562828338027    0.23864021102791932    0.23260256768360005    0.22535777466371587    
  0.23260245833681276    0.25620415058527246    0.3022777370781495    0.3707857754043137    0.42393012529318747    
  0.3900761665230876    0.2940192324419308    0.2476906383703014    0.2940192816287368    0.39007613885331494    
  0.42393016481219437    0.37078580046827214    0.3022776484375999    0.2562041327322584    0.2326025496484397    
  0.22535777466371587    0.23260248185858334    0.23864026195115878    0.25905625286439377    0.3003621013899449    
  0.36378942298903655    0.4200118782707715    0.40727579187090535    0.3336095350678596    0.29401932012351134    
  0.33360948694771525    0.4072758318132781    0.42001189763195446    0.3637894776271362    0.30036206521675085    
  0.2590562698630866    0.23864024764669578    0.23260248185858334    0.2562041714593519    0.2590562443924419    
  0.27091544821083785    0.29892901374891895    0.34666728085717397    0.40125066240007723    0.4261862151397265    
  0.4072757907370766    0.39007620219511985    0.4072758451333034    0.42618618027453525    0.40125070563573845    
  0.34666720540820095    0.2989290262141427    0.27091540837771216    0.2590562766764915    0.2562041714593519    
  0.30227768927887744    0.3003620365801084    0.29892901302822705    0.30634283078586516    0.32891073082148214    
  0.365440622354741    0.40125067479793936    0.4200117961733622    0.4239301802632592    0.42001177813426527    
  0.4012507062827732    0.36544059240697874    0.3289107534591822    0.3063428232530462    0.29892905441954143    
  0.3003620994183318    0.30227768927887744    0.37078576315874073    0.36378942665798775    0.3466672593832883    
  0.3289108368073405    0.32130387077309475    0.32891073103695906    0.34666721934906425    0.3637894314245948    
  0.3707857942721461    0.36378945790041595    0.34666723678965633    0.32891076290808335    0.32130380720661955    
  0.3289107942679529    0.34666722428445257    0.36378942802095177    0.37078576315874073    0.4239301651219027    
  0.42001179590462834    0.40125067348815857    0.36544057716192574    0.3289107349217737    0.3063428862920595    
  0.29892896079999837    0.30036206158376233    0.30227769670740706    0.30036203159198227    0.29892903608130356    
  0.30634294647686666    0.32891076837498723    0.3654405550086115    0.40125066830378203    0.42001183104268414    
  0.4239301651219027    0.390076150143194    0.4072757777578458    0.4261861840936525    0.40125073594918953    
  0.3466672038674758    0.29892903204455856    0.2709154205029096    0.2590562868795326    0.2562041462144536    
  0.2590562700296207    0.27091539746530374    0.29892902846552155    0.3466672315305378    0.40125063751618895    
  0.42618628750594323    0.40727586648943165    0.390076150143194    0.29401929307944985    0.3336094974784782    
  0.40727585176414455    0.4200118746989386    0.363789418591818    0.3003620920687155    0.25905624509759495    
  0.23864025999522537    0.23260245977794486    0.23864021702863394    0.2590562499027894    0.3003621129635436    
  0.3637894308581747    0.42001178930523075    0.40727584404314027    0.3336094972939744    0.29401929307944985    
  0.24769059850520675    0.2940192509906651    0.39007616101670933    0.42393020925919894    0.3707857914756216    
  0.30227770008596827    0.25620414740887165    0.23260250993722037    0.22535782142429925    0.23260254180284326    
  0.25620410045799646    0.3022777031159441    0.3707857700557873    0.4239301496151357    0.3900761274315893    
  0.29401929551067785    0.24769059850520675    0.3975794974954143    0.41049046368332415    0.4239301971580621    
  0.4026580743170866    0.35843996446056897    0.321842436895349    0.3022776802635188    0.29459633450128325    
  0.29277325548227234    0.29459631630045263    0.30227767560903435    0.3218424068256883    0.3584399905857504    
  0.4026580345727098    0.4239301694867174    0.41049062935214886    0.3975794974954143    0.41049055150072317    
  0.41788890208206525    0.4200118293800618    0.39247977025077596    0.3495206967508183    0.3165918001301077    
  0.30036204536397565    0.29531225303042175    0.2945963628790972    0.29531219409711873    0.30036209310611284    
  0.3165918417947571    0.3495207347289789    0.3924797356278644    0.42001182571673235    0.4178888670295513    
  0.41049055150072317    0.4239301481384191    0.4200117658702284    0.4012507158788876    0.36544059576147064    
  0.3289107653945953    0.30634286795406823    0.2989290271555014    0.3003620788835555    0.3022776841440097    
  0.300362129392153    0.29892899018267327    0.30634291264994523    0.328910749547665    0.36544059054054245    
  0.4012506966910387    0.4200118683479114    0.4239301481384191    0.40265805234672436    0.3924797328537002    
  0.36544056360695826    0.3329155802403973    0.30918655155629604    0.30122341873262326    0.3063428184229407    
  0.31659185274951795    0.32184242494436627    0.3165917403741201    0.3063428528648839    0.30122338271466326    
  0.309186615152566    0.3329155294684754    0.36544059420659464    0.39247970446589153    0.40265805234672436    
  0.35844000095965156    0.34952061744291224    0.32891082857577214    0.3091865986650122    0.30117319610948073    
  0.3091865763084708    0.3289107665629539    0.34952069392603685    0.3584399750078374    0.3495206488642393    
  0.32891076549184367    0.3091866132891316    0.3011731571004607    0.3091865794750233    0.3289107681735951    
  0.3495206920751869    0.35844000095965156    0.32184240733819014    0.3165917820165414    0.3063428522814093    
  0.30122341337285596    0.3091865656499535    0.33291558166897683    0.36544051323063653    0.3924796892676668    
  0.4026580235102537    0.39247965022601267    0.3654406230103514    0.332915602328919    0.3091866229206233    
  0.301223365054186    0.306342848295673    0.3165917964689497    0.32184240733819014    0.30227764336038276    
  0.30036205497769936    0.2989290190985508    0.30634289416844873    0.32891077498060334    0.36544060947459417    
  0.40125068570334793    0.42001183985841956    0.4239301544488577    0.42001184540617015    0.40125074921730547    
  0.36544062063002886    0.3289107717972731    0.30634280404817804    0.29892905061990915    0.30036209841553674    
  0.30227764336038276    0.2945963748658607    0.2953122176297817    0.3003620973470906    0.31659181372574124    
  0.3495206856657063    0.39247977125247074    0.42001181834173207    0.41788888996492596    0.4104905712542114    
  0.41788879752861646    0.4200117700838211    0.392479785571565    0.34952067783796176    0.3165917829041863    
  0.30036211898888504    0.29531223221221264    0.2945963748658607    0.29277316629248945    0.29459628389985654    
  0.3022776590568732    0.3218424251594095    0.35844000561518397    0.40265797234696626    0.42393016205289674    
  0.4104905051708673    0.397579575537762    0.41049053735085866    0.42393015618438246    0.4026580284064831    
  0.35843996846246334    0.3218423681596391    0.30227768633504687    0.29459639738121135    0.29277316629248945    
  0.2945963279054745    0.29531222308078553    0.30036202906241016    0.31659183716225026    0.34952066879284127    
  0.3924797582448025    0.42001176694193154    0.4178888960929063    0.4104905883588261    0.4178888683425926    
  0.42001178262848715    0.39247979317402826    0.34952070664820156    0.3165917634627492    0.30036206633667134    
  0.2953122592503048    0.2945963279054745    0.30227768093888663    0.3003620501222886    0.29892906537525477    
  0.3063428847638154    0.32891077259573254    0.36544058052002626    0.40125073042637466    0.4200117886822252    
  0.42393014614011026    0.4200117962970021    0.40125064995917675    0.3654406282496537    0.3289107703491875    
  0.3063428474182405    0.29892902930699994    0.3003620837518274    0.30227768093888663    0.3218424556433749    
  0.316591766090805    0.3063428428880086    0.30122336065780814    0.30918658232247187    0.3329155331636279    
  0.365440571859502    0.3924797411005702    0.40265798399312813    0.392479705764864    0.36544053830064155    
  0.33291560116328633    0.30918661553003207    0.30122338758924666    0.3063428809232411    0.3165917778943947    
  0.3218424556433749    0.3584400162510354    0.34952066359107553    0.32891079923184713    0.3091866290223398    
  0.3011732040675443    0.30918661854506563    0.32891079926873507    0.34952065501946283    0.35844003487437404    
  0.3495206481423524    0.3289107924751736    0.30918660024914635    0.3011731754915058    0.3091866083351262    
  0.3289107936107803    0.3495206878937415    0.3584400162510354    0.40265802897568703    0.39247968443645437    
  0.36544056613104364    0.3329156028035055    0.30918657928479243    0.3012233651971963    0.3063428153974157    
  0.31659182046654943    0.3218423590477451    0.31659177263610366    0.30634287125070464    0.30122341569371763    
  0.30918657965072865    0.3329155591767939    0.365440576979196    0.39247963885068277    0.40265802897568703    
  0.42393012042728917    0.42001177335310164    0.4012506842348687    0.3654406662871128    0.3289107791224862    
  0.30634288735371007    0.2989290524080071    0.30036208978488    0.30227768696957696    0.30036210403950747    
  0.2989290370756672    0.3063428967531008    0.3289108091964323    0.3654405932223882    0.40125077303699924    
  0.42001188729781147    0.42393012042728917    0.4104905888391306    0.41788877851373135    0.4200118298450602    
  0.39247970118104175    0.34952068826928856    0.31659176657752447    0.3003621132163522    0.29531226750719236    
  0.29459630118957775    0.2953121785721863    0.30036208605009224    0.31659187771459496    0.34952067747551613    
  0.392479686215866    0.42001185531527296    0.4178888321040401    0.4104905888391306    0.3975794974954143    
  0.41049046368332415    0.4239301971580621    0.4026580743170866    0.35843996446056897    0.321842436895349    
  0.3022776802635188    0.29459633450128325    0.29277325548227234    0.29459631630045263    0.30227767560903435    
  0.3218424068256883    0.3584399905857504    0.4026580345727098    0.4239301694867174    0.41049062935214886    
  0.3975794974954143    0.3819332315968097    0.3793673715574803    0.3707857634150596    0.358440003834676    
  0.3521135559676513    0.35843996905374426    0.37078576060752855    0.3793674106487186    0.38193330303219214    
  0.379367467352579    0.37078569355961144    0.35844002382627405    0.3521135846380885    0.35843994138796426    
  0.3707857097419068    0.37936744921964355    0.3819332315968097    0.37936739915906004    0.37530361835527554    
  0.36378940623575484    0.3495206897637666    0.34272823295323773    0.3495207220897972    0.3637894005271052    
  0.37530358805304154    0.3793674823244769    0.3753035776233119    0.3637894915261936    0.3495206832943927    
  0.3427282877160392    0.349520662853447    0.363789456094467    0.3753035827348432    0.37936739915906004    
  0.37078577686776243    0.3637894112218481    0.34666724707628005    0.32891079266727297    0.3213038210001785    
  0.32891071359978674    0.3466672587043026    0.36378944347721337    0.3707857376419102    0.36378946545347884    
  0.3466671933937322    0.32891076640781786    0.32130380623063554    0.3289107643758082    0.34666721489880153    
  0.36378949077603995    0.37078577686776243    0.35843998326156434    0.34952065639201824    0.3289107793527918    
  0.3091865735819324    0.30117314235840936    0.30918661409717624    0.3289107682269377    0.3495207267223012    
  0.35843998920379916    0.34952065431941054    0.3289107268924145    0.3091866016991465    0.3011732182457448    
  0.30918659641884627    0.32891076077552023    0.3495206650896883    0.35843998326156434    0.35211362287648973    
  0.34272819922804154    0.32130386907219943    0.301173193568642    0.29308137486324126    0.3011731775533053    
  0.3213038437632208    0.3427282550147358    0.3521136248486456    0.34272822562657645    0.32130386354130197    
  0.30117315469256667    0.29308135439612226    0.3011731795476094    0.32130383644665006    0.342728273052137    
  0.35211362287648973    0.35843993693614756    0.34952065788969444    0.32891074125703135    0.3091866141842369    
  0.30117314386216865    0.3091866050475621    0.3289107338977031    0.34952069851230094    0.3584400107434545    
  0.3495205733419574    0.3289107544735476    0.30918662783902684    0.30117314148046803    0.30918658541892713    
  0.32891077294036963    0.349520668253006    0.35843993693614756    0.37078572303451734    0.3637893941995783    
  0.3466672428919121    0.32891080027934416    0.3213038574412284    0.32891080653663757    0.34666721284695784    
  0.36378944516080547    0.3707857670718024    0.363789493160725    0.3466672012968928    0.32891080487577623    