#     DFTpy    
  CRYSTAL 
    
  PRIMVEC    
  3.675529233145004    1.537705227471724e-05    -3.8553103448275867e-13    
  -1.8377512996538228    3.1831094688291324    -7.543103448275862e-12    
  -6.339586206896552e-13    -1.4687544827586206e-11    6.043141156285051    
  PRIMCOORD    
  4    1    
  Si    9.14980533373493e-06    2.1220779545614428    3.398504438278968    
  Si    1.8377687836815404    1.0610468912939277    0.3769338155124789    
  Si    9.149806714607928e-06    2.1220779545605666    5.666207296145649    
  Si    1.837768783687505    1.0610468913175017    2.644636762617149    
  BEGIN_BLOCK_DATAGRID_3D    
  3d_datagrid_density    
  BEGIN_DATAGRID_3D#0    
  17    17    27    
  0.0    0.0    0.0    
  3.675529233145004    1.537705227471724e-05    -3.8553103448275867e-13    
  -1.8377512996538228    3.1831094688291324    -7.543103448275862e-12    
  -6.339586206896552e-13    -1.4687544827586206e-11    6.043141156285051    
  0.06514855456921236    0.07062513094320604    0.08943892419405941    0.12801017830307215    0.19542888609657014    
  0.2988700909502016    0.42856815392424713    0.544779948993216    0.5926478750979499    0.5447799661945727    
  0.4285681451661697    0.2988700950278739    0.19542885402737248    0.12801020307280261    0.08943889890936728    
  0.07062513247341823    0.06514855456921236    0.07062510625783897    0.07062428045908198    0.08277519559912878    
  0.11157222492682171    0.1651533090542058    0.25221111229454973    0.3713855852704566    0.49535103444465756    
  0.5758951962279202    0.5758712536593766    0.4953005286406593    0.3714144758758906    0.25224064118587003    
  0.16513288092476155    0.11157501062878572    0.08277522388142455    0.07062510625783897    0.08943890668545773    
  0.08277519438891241    0.0894393282798956    0.11157658914643984    0.15567704059605478    0.23018780641870457    
  0.334906565091832    0.44379617390406173    0.5154665390068707    0.5372025091621411    0.5155296675688309    
  0.4438023919893606    0.33485003446959755    0.2301910853805491    0.1556949965265805    0.11157501673892715    
  0.08943890668545773    0.12801019432171734    0.11157221770563909    0.11157659079023458    0.1280029889598117    
  0.16515526057847305    0.2301830431166287    0.32186563513330163    0.40683355910525537    0.43219178284721027    
  0.4126805238498184    0.412656888656286    0.43217478320397307    0.40688024047543997    0.3218708348354068    
  0.23019110700320136    0.16513286136215513    0.12801019432171734    0.19542884607251995    0.16515329721250527    
  0.15567702059169597    0.16515521390837629    0.19541166199505214    0.2522405376864109    0.33487297441117647    
  0.40686365566366295    0.39303264558847967    0.307605557162519    0.26315133215404923    0.30760345164798647    
  0.3930151389363752    0.40688021223276855    0.3348500404545646    0.25224062229387617    0.19542884607251995    
  0.29887006565232793    0.25221114418807233    0.23018783077068852    0.23018300792616467    0.2522405339039004    
  0.29887392184175116    0.3713915716839136    0.4438273431170516    0.4321985750135505    0.3075821889435122    
  0.20331260778595506    0.20332357845943244    0.30760347907510777    0.4321746928526509    0.44380233712252437    
  0.37141443544903446    0.29887006565232793    0.4285681485009655    0.37138555453546496    0.3349065506014364    
  0.32186559661822317    0.33487292275607605    0.3713915306095709    0.4286015569127681    0.4953136048278346    
  0.5155143188491669    0.41263817496856453    0.2631984024855508    0.2033126226113059    0.26315134668450807    
  0.4126568791484442    0.5155297256372444    0.4953005882427395    0.4285681485009655    0.5447800068935139    
  0.49535108168097153    0.4437960741666276    0.40683356675065    0.40686368253496974    0.4438274182367018    
  0.49531375033087766    0.5448048750804579    0.57590967348008    0.5372257457239824    0.41263815252752095    
  0.30758214703911396    0.30760554727672124    0.4126805147677616    0.5372023728707457    0.5758712463205085    
  0.5447800068935139    0.5926479271543504    0.5758951529939457    0.5154665923108469    0.4321918282749248    
  0.3930326777961241    0.43219869676300326    0.5155143064025596    0.5759096307521064    0.5926464327642743    
  0.5759097024546144    0.515514445095373    0.43219861897206924    0.3930326734588111    0.432191880371779    
  0.5154665995379493    0.5758952084166079    0.5926479271543504    0.5447800856048661    0.5758712328678787    
  0.537202493455064    0.4126805694493322    0.30760552781221    0.3075821777769367    0.4126382527936013    
  0.53722573186007    0.5759095142091445    0.5448048478406062    0.495313745625276    0.44382739426036955    
  0.4068636574342023    0.4068335450903985    0.4437961847687564    0.4953509687366537    0.5447800856048661    
  0.4285681754436849    0.4953006437576727    0.5155296372861644    0.4126569354069741    0.2631514034366242    
  0.20331268348730772    0.26319846004943953    0.4126382240097747    0.5155143798924927    0.4953137620391478    
  0.42860157980694896    0.37139154939192803    0.3348729085204042    0.321865588127503    0.3349065255289327    
  0.3713855586689421    0.4285681754436849    0.2988700454259016    0.3714144243200145    0.44380231709826395    
  0.43217474188915145    0.3076035246532214    0.2033236152014076    0.20331261395809197    0.3075821994489989    
  0.4321986279489658    0.44382733342226327    0.37139149061181465    0.29887396334364086    0.2522405847967408    
  0.23018303405716764    0.2301878290805627    0.2522111338515065    0.2988700454259016    0.19542882564836894    
  0.25224061396299213    0.3348501482744371    0.4068801573892626    0.3930151608160868    0.30760348635992196    
  0.2631513891694773    0.30760558004948163    0.39303259348231245    0.40686364733731334    0.3348729603729782    
  0.2522405338057462    0.1954116472347509    0.16515526696950383    0.1556769739178651    0.16515331999885163    
  0.19542882564836894    0.12801018062830338    0.16513286894164472    0.23019108844152167    0.3218708826315999    
  0.4068801137131282    0.4321747710419047    0.4126569226962623    0.41268056017545945    0.43219184886755435    
  0.40683357225809264    0.32186556936015653    0.2301830218583045    0.16515527457595292    0.12800295914170035    
  0.11157661717706832    0.1115722009813313    0.12801018062830338    0.08943889212755551    0.11157501879780975    
  0.1556950200233838    0.23019104748691413    0.33485009049482595    0.4438023107602621    0.5155296221189251    
  0.5372023622703238    0.5154665444033212    0.44379619746146626    0.3349065567185725    0.23018782623714043    
  0.15567699766968346    0.11157657656706688    0.08943931812824985    0.08277518877428    0.08943889212755551    
  0.07062510668735364    0.08277523291874055    0.11157502190946986    0.16513287231813928    0.252240600558982    
  0.37141444843251264    0.4953005894820412    0.5758711787800613    0.5758951063142216    0.4953509789844282    
  0.37138553596556345    0.2522111127653799    0.16515331364637553    0.11157222754606394    0.0827752010637835    
  0.07062425538605122    0.07062510668735364    0.06514855456921236    0.07062513094320604    0.08943892419405941    
  0.12801017830307215    0.19542888609657014    0.2988700909502016    0.42856815392424713    0.544779948993216    
  0.5926478750979499    0.5447799661945727    0.4285681451661697    0.2988700950278739    0.19542885402737248    
  0.12801020307280261    0.08943889890936728    0.07062513247341823    0.06514855456921236    0.06427335886674156    
  0.06946520582471068    0.08723037288447806    0.12348931342268925    0.18656540212401793    0.2825004029571956    
  0.4014382572597185    0.5070748924441638    0.55040064705625    0.5070545122783632    0.4014722144076734    
  0.282512452682305    0.18653864603464232    0.12349360587783169    0.08723264224836844    0.0694654053891052    
  0.06427335886674156    0.0694654057906879    0.0694643838583172    0.0816388791162924    0.1103875719996116    
  0.16381884778357708    0.25018649960225636    0.36583933066395674    0.48087581501810917    0.5518065585687167    
  0.5518053013327778    0.4808283067984971    0.36583522966571264    0.2502290556844976    0.1638118843284669    
  0.1103869004471938    0.08163861788937254    0.0694654057906879    0.08723265375760639    0.080258875328903    
  0.08723295469577505    0.11038569120336963    0.15670367361942472    0.23459717643888178    0.33965999895259447    
  0.43507087471937317    0.47991665859947547    0.48709366925643754    0.47996372642301965    0.4350842156602264    
  0.33960652463893254    0.23460433432957176    0.156711579570105    0.11038691332496743    0.08723265375760639    
  0.12349359719664647    0.10575917816968561    0.10576582723037846    0.12348489204967342    0.16382475062239182    
  0.23459418162329024    0.32941650813330137    0.3945306356895084    0.36959591171477935    0.3113800810200256    
  0.31136566637561364    0.36958053056937806    0.3946054003752163    0.32939421434406096    0.23460436455985434    
  0.16381185930667538    0.12349359719664647    0.186538668371794    0.1528514668145443    0.14234790307447104    
  0.15285117137468268    0.18653782082115541    0.2502237857204405    0.3396111018085591    0.3945811835113395    
  0.3194853343016232    0.18811127524141844    0.13697125899774995    0.1881168053812383    0.3194469801129185    
  0.39460541531570703    0.33960649938442045    0.25022902804347913    0.186538668371794    0.2825124798771953    
  0.22873364231888535    0.20384194449216755    0.2038347252863171    0.22874658242541016    0.282509989844339    
  0.36583636530051417    0.4351068315917243    0.36960542764179366    0.18808078187324465    0.08430909489394245    
  0.08430203801636826    0.1881168027533747    0.3695804953210467    0.43508426224652424    0.36583518260365283    
  0.2825124798771953    0.40147220798139677    0.33269401088396283    0.2922058672073354    0.2786792103920173    
  0.29219876558309477    0.3327049277864932    0.4014775986502948    0.48084127485332145    0.47994718559999233    
  0.3113513702685065    0.13700068236615084    0.08430909999215608    0.1369712871854127    0.3113657004574949    
  0.4799636207645212    0.48082830865129217    0.40147220798139677    0.5070545095137087    0.44297971325562563    
  0.39291869963696063    0.36433633498282647    0.3643341719139662    0.3929403796112014    0.44297083164918033    
  0.5070778777503241    0.5518466235005823    0.487097145875737    0.3113513534519547    0.18808077763636852    
  0.1881113030594178    0.31138009854670035    0.4870936220907981    0.551805365040029    0.5070545095137087    
  0.550400717977908    0.5170244415685451    0.4732147556341229    0.4290332687521864    0.4091109667623187    
  0.42903779781189494    0.47323627309563415    0.5170356257142946    0.5503935855752302    0.5518467027475606    
  0.47994709257816637    0.369605513354274    0.31948538310266306    0.36959603573986183    0.479916700919978    
  0.5518066189182662    0.550400717977908    0.5070749378632086    0.5169953798763705    0.503338758795682    
  0.45537469912239903    0.40754203134627837    0.40753377196655705    0.45536979744901435    0.5033495484804515    
  0.5170355758760917    0.5070778694001251    0.4808413924708511    0.4351068589518536    0.3945811970120297    
  0.3945306392821462    0.43507089406490457    0.4808758388272096    0.5070749378632086    0.40143827877365645    
  0.4429526038418521    0.4732495261529561    0.45537072104823695    0.39706290729002025    0.3656782330273565    
  0.3970803469257669    0.4553697903905545    0.4732362741381    0.44297080003088174    0.4014776198327698    
  0.36583629087691416    0.3396110154175843    0.3294164628935885    0.33965993366495556    0.36583928934586096    
  0.40143827877365645    0.28250038521309834    0.33273016188193555    0.3929282582455187    0.4290160715286187    
  0.40753803502357494    0.3656803271313343    0.3656782205222647    0.4075337835120156    0.4290377404112887    
  0.3929403411984465    0.3327049441029824    0.28251008709876263    0.25022385501754485    0.23459413512155475    
  0.23459717505419625    0.2501865072424768    0.28250038521309834    0.1865653620851341    0.22874684233069287    
  0.29216794017399855    0.36434035029254114    0.4091190669892769    0.407538047669484    0.3970628750560646    
  0.4075420358694427    0.4091108699792268    0.3643341726624846    0.2921987724192308    0.2287466054484805    
  0.18653776644362036    0.16382477859802946    0.15670365308452136    0.16381886861602926    0.1865653620851341    
  0.12348929573468788    0.15282407681623997    0.2038377914804251    0.2787060335641761    0.3643403523280938    
  0.42901603572532837    0.45537072282976376    0.4553746954405391    0.4290331977548063    0.36433630491996066    
  0.27867915901069434    0.20383469904098916    0.15285121413484032    0.12348485203791715    0.11038570615586407    
  0.11038753827293543    0.12348929573468788    0.08723034915733274    0.10576324203562582    0.14237238393004076    
  0.20383778602318947    0.29216794088131565    0.3929282158090716    0.47324958116483834    0.5033387207968933    
  0.4732147017409248    0.39291872869393457    0.2922058661202154    0.20384197372245688    0.142347885815492    
  0.10576581478722731    0.0872329458295534    0.08163885948643305    0.08723034915733274    0.06946519349020878    
  0.080260153161411    0.10576325388916605    0.15282407521172922    0.22874687628533966    0.3327301330354485    
  0.44295252662760476    0.5169952937620581    0.5170243940398646    0.4429795938497956    0.332694041073328    
  0.22873361480222237    0.15285148541610893    0.10575919664014836    0.08025888744716572    0.06946436341250033    
  0.06946519349020878    0.06427335886674156    0.06946520582471068    0.08723037288447806    0.12348931342268925    
  0.18656540212401793    0.2825004029571956    0.4014382572597185    0.5070748924441638    0.55040064705625    
  0.5070545122783632    0.4014722144076734    0.282512452682305    0.18653864603464232    0.12349360587783169    
  0.08723264224836844    0.0694654053891052    0.06427335886674156    0.06179413610296731    0.0662881408087003    
  0.08143359055823117    0.11178669233063349    0.16365125985207465    0.24088278178446693    0.33446100979702853    
  0.4160310826748235    0.4491383678496168    0.41601325659169336    0.3345034230471001    0.24089404514108592    
  0.1636219149269641    0.11179190987877655    0.08143637775069075    0.06628856013671944    0.06179413610296731    
  0.06628854919605191    0.06628715902098432    0.07734381069248966    0.10314362435052267    0.15038610472380742    
  0.2255156539058959    0.3239854927773214    0.4190556956224188    0.47588520673825485    0.475888980601701    
  0.4190107962635692    0.32397521376304234    0.22555800779072266    0.1503825283936038    0.10314298238719159    
  0.07734334201512345    0.06628854919605191    0.08143639258373117    0.07489898513722702    0.08143705886988564    
  0.10314071890730016    0.1463925999016409    0.21846033241954935    0.3139024632257919    0.39661406060112725    
  0.4305810777144853    0.43377055580915036    0.43062639278501513    0.39662759139594617    0.3138550478156915    
  0.21847005225935154    0.14639725386323224    0.10314298778200949    0.08143639258373117    0.11179190399310136    
  0.09492344079000105    0.0949288385216316    0.1117836177476634    0.15039117990337067    0.21846005280949438    
  0.3093869640020052    0.36879300084618005    0.33860234573372766    0.2791765035381558    0.2791626270669263    
  0.3385881367934196    0.36887100628406355    0.30936049936079074    0.21847005067217962    0.1503824946217    
  0.11179190399310136    0.1636219250405101    0.1312826075575174    0.12127696363129206    0.13128225609331517    
  0.16362498643037665    0.22555139410764233    0.31385355322577685    0.36884732404626214    0.29462425060609654    
  0.16734235017565946    0.11906474202749907    0.16734806816645031    0.2945862912129062    0.36887102624610146    
  0.3138550665396232    0.22555794958684106    0.1636219250405101    0.2408940139554128    0.18866081877176957    
  0.16493928268084684    0.16493509019140742    0.18866458044205278    0.24089173450009277    0.3239804490662441    
  0.3966453146331781    0.3386113914068174    0.16731171228516145    0.07152588262856391    0.07151893700942233    
  0.1673480180644413    0.33858810263105776    0.3966275919474319    0.3239752287766379    0.2408940139554128    
  0.3345033784586324    0.26565085098109736    0.22718022356107043    0.21482981357971326    0.22718082938221948    
  0.26566054584827653    0.3344984685944504    0.41902413996319393    0.43060628384100186    0.2791493127850498    
  0.11909182008475881    0.07152586284691169    0.11906472950648442    0.27916261106352463    0.4306263892176898    
  0.4190108002704271    0.3345033784586324    0.41601322827485837    0.3466100801396835    0.29974722910727525    
  0.2766992019596745    0.2766884463009415    0.29976248730917765    0.3466114506744619    0.4160292477912066    
  0.4759239586660224    0.4337715443356245    0.27914930702882584    0.16731168899540175    0.16734240743111586    
  0.27917654096121364    0.4337704898475032    0.47588900487802277    0.41601322827485837    0.44913839137489053    
  0.4011632617996273    0.3613531062761102    0.33498198546816993    0.32526396361949234    0.3349851355504064    
  0.36135744834628086    0.4011764210911413    0.44912737877473896    0.4759240485676055    0.43060629713075654    
  0.33861138181370687    0.294624232242183    0.3386024116858581    0.43058107615059454    0.4758852858645611    
  0.44913839137489053    0.41603109797812676    0.40114274121173693    0.38594098732011095    0.3696569484582906    
  0.35697685717021505    0.35697244658656285    0.3696715179122892    0.38594092827041926    0.4011763977705764    
  0.41602920440179364    0.4190241046968076    0.39664533685263825    0.3688473992921777    0.36879300285167876    
  0.3966140806317931    0.41905562246048994    0.41603109797812676    0.33446103390027804    0.3465970993342517    
  0.3613679657451749    0.36966276347724425    0.36692536989718627    0.3634690324304681    0.3669251802380983    
  0.3696714208597928    0.3613574678821389    0.34661150196107016    0.33449856021298463    0.323980417472532    
  0.31385356058782327    0.30938695570423136    0.31390244633403225    0.32398544460246514    0.33446103390027804    
  0.2408827336712405    0.2656832457771445    0.29975729217762975    0.33496565192015365    0.35697596159359235    
  0.3634617233874916    0.36346900554819894    0.3569724609318808    0.3349851151642794    0.2997624595285469    
  0.2656605508208564    0.240891812943266    0.225551433384791    0.21846004021675916    0.2184603523574121    
  0.22551568247900358    0.2408827336712405    0.16365124223783942    0.18866520290685745    0.2271505965591369    
  0.2766923330314051    0.32527395328683095    0.35697599446412337    0.3669253598762388    0.3569768570350131    
  0.3252639269667296    0.276688451443306    0.2271808672807376    0.18866459435569033    0.16362492711967805    
  0.15039119525050793    0.14639258465564672    0.1503861452725752    0.16365124223783942    0.11178668053445817    
  0.13125730636881022    0.1649355290740222    0.21485802734092382    0.2766922662288874    0.33496556467986205    
  0.36966272010652684    0.3696569469393271    0.3349819452178209    0.2766991876709505    0.21482981625661737    
  0.16493505012155488    0.1312823147653716    0.11178358460120164    0.10314072064637245    0.10314360017411983    
  0.11178668053445817    0.08143358064712239    0.09492668832434271    0.12129911072842657    0.16493549188120574    
  0.2271505576330095    0.2997572790096811    0.361367956318073    0.3859409828475039    0.36135310147605837    
  0.29974726772690913    0.227180254921513    0.16493926540863896    0.12127694084663945    0.09492882201070992    
  0.08143705501827811    0.07734379568791926    0.08143358064712239    0.0662881124769963    0.07490058371554836    
  0.09492669390501245    0.13125729908323894    0.18866519689123515    0.26568327433073335    0.3465970358795702    
  0.4011426055175586    0.4011633079971674    0.3466100400955659    0.265650846491165    0.18866080359734752    
  0.13128263629864817    0.09492344572060134    0.0748989959511148    0.0662871373948783    0.0662881124769963    
  0.06179413610296731    0.0662881408087003    0.08143359055823117    0.11178669233063349    0.16365125985207465    
  0.24088278178446693    0.33446100979702853    0.4160310826748235    0.4491383678496168    0.41601325659169336    
  0.3345034230471001    0.24089404514108592    0.1636219149269641    0.11179190987877655    0.08143637775069075    
  0.06628856013671944    0.06179413610296731    0.058434198999914075    0.06201218836873488    0.07387470011422032    
  0.09706488332931347    0.1356248765025866    0.1915060275409447    0.2577523669729061    0.31452801773062383    
  0.337281699995363    0.3145200913689373    0.2577891681873098    0.19150949343977913    0.13560648344999895    
  0.09707009259245548    0.07387597131042047    0.06201285740122713    0.058434198999914075    0.062012844576806905    
  0.06201185440984962    0.07126556246535906    0.0926403910653092    0.13089949752782154    0.19045179747220906    
  0.26792493807135653    0.3433861078714459    0.38923079644938124    0.389226131422065    0.3433464500537437    
  0.2679252960003871    0.1904827540161621    0.13089514097150648    0.09264181626705822    0.07126522713872076    
  0.062012844576806905    0.07387598895276835    0.06825154052839891    0.07387580823819583    0.09264084737878649    
  0.12977731967961498    0.19120757128811913    0.2744611888211579    0.35448721504496244    0.39940236379806227    
  0.41032340587417465    0.39946176242808684    0.35448719382253163    0.2744316779924318    0.1912149933816063    
  0.12978182608942995    0.09264183353565339    0.07387598895276835    0.09707010247065573    0.0823817551612368    
  0.08238661564032093    0.09706279484853633    0.13090173962539964    0.1912038406226529    0.27658779089978863    
  0.35160507607431296    0.3640949707346855    0.33694606273797995    0.3369161297845331    0.36408763086650725    
  0.35166690433071857    0.2765695396425918    0.19121501140017294    0.13089513128733207    0.09707010247065573    
  0.1356064763413928    0.10750895647978564    0.09890362197904387    0.1075086335519138    0.13560719668169263    
  0.1904806793476484    0.2744284744006577    0.35165374161718643    0.34076736396238844    0.25673746364734445    
  0.2139994562998985    0.256735856047612    0.3407458356990555    0.3516669087364502    0.27443166380971595    
  0.19048271172495576    0.1356064763413928    0.1915094663646781    0.14618390674089432    0.1260201899823422    
  0.12602147256435853    0.1461832957242914    0.19150991422273175    0.2679221283556477    0.3545009590519538    
  0.36409921912336435    0.25671484698265656    0.16302808415597062    0.16304637694567595    0.2567358320093634    
  0.3640875470650998    0.3544872051993123    0.26792526643776365    0.1915094663646781    0.25778919486997204    
  0.19663098180398486    0.16397708062621982    0.15373606039966348    0.16397653279774752    0.19663628865292596    
  0.2577892601415926    0.3433543628294206    0.39944938061297003    0.33689094695838073    0.21405011146464978    
  0.163028105360801    0.21399946312588836    0.3369161058047183    0.3994617548445609    0.343346415069865    
  0.25778919486997204    0.31452005712956826    0.24858469201669733    0.20769451142372033    0.18880675500396754    
  0.188796938306105    0.207708149309108    0.2485795947484165    0.3145357402114521    0.3892380692593348    
  0.4103474432561818    0.33689097423626435    0.2567148483392082    0.25673745752370586    0.3369460940867746    
  0.4103233337761289    0.3892260463858401    0.31452005712956826    0.3372817192936867    0.2830971596289959    
  0.24484553037473245    0.22347737271655188    0.21661999754702213    0.22347913962268262    0.24484996340381904    
  0.2831033315080624    0.33728188059200886    0.38923805003047185    0.39944938145251624    0.3640992367562933    
  0.34076737545050634    0.3640950195087804    0.3994023805305686    0.3892308843935155    0.3372817192936867    
  0.31452794921260996    0.28308507643045394    0.2597299090490445    0.2453997716023902    0.2388420652551267    
  0.23884045515695254    0.2454061393260922    0.2597315688398847    0.28310329688296837    0.31453575987682236    
  0.3433543673047484    0.3545008880817003    0.35165380052051426    0.3516050577144419    0.3544872274888431    
  0.3433860999304966    0.31452794921260996    0.25775234845292755    0.24857706026769613    0.24485324469480624    
  0.24540106022142846    0.2472750846922475    0.24830664925271662    0.2472780156790111    0.24540607516062643    
  0.24484998757181065    0.24857963192884874    0.25778929405451445    0.2679221085849315    0.2744284201926795    
  0.2765877963450012    0.27446119168299205    0.2679249123306594    0.25775234845292755    0.1915059887968015    
  0.1966584722970649    0.20769997857502528    0.22346940311844468    0.23884156192437683    0.2483059461350152    
  0.24830661282064623    0.23884049942808044    0.22347909163912022    0.20770813297883736    0.19663630165497284    
  0.1915099811242789    0.19048075365523992    0.19120382083909904    0.19120756564560085    0.19045184069436447    
  0.1915059887968015    0.1356248576010687    0.14618183621648487    0.16395266170482234    0.18880104195313968    
  0.2166236615189623    0.23884158541202777    0.24727511749055628    0.23884204625482167    0.21661995781264343    
  0.1887969766021695    0.16397655097597397    0.14618327180336502    0.1356071403120619    0.1309017729022483    
  0.12977731702005182    0.1308995014890338    0.1356248576010687    0.09706485122186291    0.10749308473932148    
  0.12601962632235195    0.15375828210486966    0.18880101627299137    0.22346935355460323    0.24540105301354784    
  0.2453997949838026    0.2234773875878591    0.1888067450226248    0.15373604398298757    0.12602143769110183    
  0.1075086663925254    0.09706276671289263    0.09264086586290035    0.09264036925525923    0.09706485122186291    
  0.07387468147483943    0.08238376663163234    0.09891799387750541    0.12601960842399612    0.16395262770240532    
  0.2076999578005086    0.24485321225065163    0.2597298832303513    0.24484550228554777    0.2076945543432625    
  0.16397711334988363    0.12602018165065432    0.09890360048151665    0.08238658834368912    0.0738757987518937    
  0.07126554896765566    0.07387468147483943    0.06201216549808876    0.06825236437667948    0.0823837558400675    
  0.10749309568295161    0.1461818280713583    0.19665847531486647    0.24857704145741102    0.28308504481805413    
  0.28309713624776117    0.24858471077714017    0.19663096900006122    0.14618388724547596    0.10750896213775854    
  0.08238176540295897    0.06825154178174202    0.06201182956460608    0.06201216549808876    0.058434198999914075    
  0.06201218836873488    0.07387470011422032    0.09706488332931347    0.1356248765025866    0.1915060275409447    
  0.2577523669729061    0.31452801773062383    0.337281699995363    0.3145200913689373    0.2577891681873098    
  0.19150949343977913    0.13560648344999895    0.09707009259245548    0.07387597131042047    0.06201285740122713    
  0.058434198999914075    0.05516544963413548    0.057800361378856455    0.06653048365759455    0.08338955053223727    
  0.11071418391365336    0.14915237996602718    0.19379541680943788    0.23158530547028433    0.24659859341222018    
  0.23158441502041202    0.19380839730276025    0.14915376050155554    0.11071013615439175    0.08339212098040434    
  0.06653098443511975    0.05780100076696077    0.05516544963413548    0.05780098666899067    0.05780096285758761    
  0.06510061049302289    0.08193862757364535    0.1116202849757052    0.15695079062502254    0.21572328096338342    
  0.27431787352351944    0.3112308620389311    0.3112266786136625    0.27430567298936237    0.2157262675546711    
  0.1569626358886927    0.11162028813239008    0.0819398018703954    0.06510120562290657    0.05780098666899067    
  0.06653099681183497    0.061923716781472474    0.06653054011755667    0.08193904191288055    0.11228058834362048    
  0.1624415416275315    0.23299404604589805    0.3100776462288212    0.3671500244386154    0.3871034231980483    
  0.36717997666489255    0.31007803176567106    0.23298931482790297    0.16244418623580104    0.11228372137950729    
  0.08193981551446784    0.06653099681183497    0.08339212404976226    0.07115909423642282    0.07116013233958045    
  0.0833892169096304    0.11162155980223616    0.16243810772490686    0.2395267806435555    0.3286134500607042    
  0.39340655009058884    0.4170984038179794    0.4170823968982562    0.39340794850641164    0.3286368504044815    
  0.2395243339985219    0.1624442147728087    0.11162029206985008    0.08339212404976226    0.11071013247657976    
  0.08736507982715766    0.08028618198621905    0.08736539317090931    0.11070922432636253    0.15696174292553694    
  0.23298603060695872    0.3286325646307807    0.397873338406105    0.4080026775905536    0.3994366895070494    
  0.4079990754907845    0.39787462631451403    0.3286368620760472    0.23298930915250474    0.1569626100799319    
  0.11071013247657976    0.1491537290846386    0.11180398639004477    0.09549227404338616    0.09549254694336749    
  0.11180344561567475    0.14915425462703227    0.21572362984848284    0.3100833259471176    0.39340768457955416    
  0.407998297120569    0.3784270388949595    0.3784459941680322    0.40799904815095916    0.393407909137914    