#     DFTpy    
  CRYSTAL 
    
  PRIMVEC    
  1.6910642584414877    -2.9290092144844424    0.0    
  1.6910642584414877    2.9290092144844424    0.0    
  0.0    0.0    5.590176662203067    
  PRIMCOORD    
  4    1    
  Si    1.6910642584414879    0.9763364048281473    0.35223423639708296    
  Si    1.6910642584414879    -0.9763364048281479    3.147322567498616    
  Si    1.6910642584414879    0.9763364048281477    2.44285409470445    
  Si    1.6910642584414879    -0.9763364048281477    5.237942425805983    
  BEGIN_BLOCK_DATAGRID_3D    
  3d_datagrid_density    
  BEGIN_DATAGRID_3D#0    
  15    15    25    
  0.0    0.0    0.0    
  1.6910642584414877    -2.9290092144844424    0.0    
  1.6910642584414877    2.9290092144844424    0.0    
  0.0    0.0    5.590176662203067    
  0.11270735325289757    0.12334470175623677    0.15914319521379594    0.23157419819822844    0.3523400177800317    
  0.5123248944739405    0.6597280037674911    0.7203626586112731    0.6597280551684551    0.5123249686095761    
  0.35234003703049804    0.23157415590980399    0.15914317269465764    0.12334472832762641    0.11270735325289757    
  0.12334469934612115    0.12334731188544808    0.14647738868338006    0.20022652861191675    0.2961680575307997    
  0.4336630669224145    0.5756921504155895    0.6622365408870027    0.6623485792996666    0.5755612987576093    
  0.43357753161669554    0.29625532686393014    0.2002313571137552    0.1464715369319207    0.12334469934612115    
  0.1591431172389792    0.1464773504803546    0.15913700859804716    0.20022130198587915    0.276943622393153    
  0.38522003672888194    0.482308201550689    0.5183887407367889    0.5179777966996738    0.5184393290216541    
  0.48249065728112617    0.3852159741805544    0.27685474678127553    0.20023135721387253    0.1591431172389792    
  0.23157410890975147    0.20022650449745474    0.20022129313787804    0.2315856998114098    0.2961694382023498    
  0.38522000940738144    0.4417319698544187    0.39852321664826185    0.32325460037929915    0.3232342903297637    
  0.3984032200191706    0.44173697717368804    0.3852159597342513    0.2962553588317303    0.23157410890975147    
  0.3523399468832542    0.2961680676139704    0.2769436165400139    0.296169415442277    0.3524254089983583    
  0.43355458098875593    0.4823984977342557    0.39850185915926783    0.2452975781805102    0.1823065863280743    
  0.2453887037483666    0.39840310119933925    0.4824906386322063    0.4335775367498768    0.3523399468832542    
  0.5123248483633122    0.4336630519870208    0.3852201481737608    0.3852199997486589    0.4335546427719358    
  0.5123560664714213    0.5756533856483631    0.5183774327603352    0.32325946348245505    0.18233884792595273    
  0.18230667113965676    0.32323421363927407    0.5184392411904143    0.5755612871228917    0.5123248483633122    
  0.6597279159979845    0.575692136942467    0.48230817046892893    0.44173206050810154    0.48239845482585203    
  0.5756534858348692    0.6596562109604119    0.6624118464459198    0.5179561477191863    0.32325941842189415    
  0.2452975778577117    0.3232545838214556    0.5179778267697774    0.6623484850332515    0.6597279159979845    
  0.7203627223931635    0.6622364154699648    0.5183889332561764    0.3985232911358796    0.3985019717450035    
  0.5183774597084961    0.6624119193425305    0.7201387009117345    0.6624118922640404    0.5183775292344475    
  0.3985020015626072    0.39852331115204875    0.5183887820261469    0.6622365117246196    0.7203627223931635    
  0.6597278948821897    0.6623485737257214    0.517977746051445    0.323254592406519    0.24529756747233747    
  0.3232594292786095    0.5179561129585194    0.6624118858816487    0.6596561568734981    0.5756534972577505    
  0.4823985644114531    0.4417319437614585    0.4823081553574238    0.5756921380236963    0.6597278948821897    
  0.5123248643904161    0.575561247943259    0.5184392804144299    0.3232342262439367    0.1823066031485186    
  0.18233879832484787    0.32325944723670913    0.5183774589931204    0.5756534292550217    0.5123561422650876    
  0.43355467139703907    0.3852199534055047    0.38522003822839235    0.43366313445386    0.5123248643904161    
  0.3523399451158668    0.43357755830657096    0.48249063873833026    0.398403141332477    0.2453886835786368    
  0.18230661507383145    0.24529758281031258    0.39850184456632665    0.4823985944423665    0.43355465702492435    
  0.3524254256590412    0.2961693847772143    0.2769436105710559    0.2961680521172658    0.3523399451158668    
  0.23157413855806203    0.2962553383538296    0.38521595570447703    0.4417369739981632    0.3984031456283687    
  0.323234180676706    0.3232545312768491    0.39852320528526586    0.441731972229529    0.38521993938932614    
  0.296169531765111    0.2315856750569109    0.20022128894951566    0.20022650355339705    0.23157413855806203    
  0.15914315097117931    0.20023132948854835    0.27685477483688853    0.38521600255629485    0.4824906924325098    
  0.5184392393761851    0.5179777000044574    0.5183887789268319    0.48230810875957836    0.38522013702788127    
  0.2769436712561387    0.20022128350838336    0.15913696522493082    0.14647740466906128    0.15914315097117931    
  0.12334470300242556    0.14647150526910319    0.20023139955840963    0.2962553542579548    0.4335775421498769    
  0.5755613518737349    0.662348555490259    0.6622364544089547    0.5756921268774025    0.43366312595069945    
  0.29616805738561575    0.20022648664361933    0.1464774040598722    0.12334733912150772    0.12334470300242556    
  0.11270735325289757    0.12334470175623677    0.15914319521379594    0.23157419819822844    0.3523400177800317    
  0.5123248944739405    0.6597280037674911    0.7203626586112731    0.6597280551684551    0.5123249686095761    
  0.35234003703049804    0.23157415590980399    0.15914317269465764    0.12334472832762641    0.11270735325289757    
  0.11093851563013578    0.12091579977727279    0.15441260182301825    0.22163615549030308    0.33246463426561995    
  0.4779938668184533    0.6112252266019219    0.6658115447580326    0.6113593736706059    0.47801804964951855    
  0.3323775467287187    0.22164440673162997    0.15443072893661253    0.1209149838442663    0.11093851563013578    
  0.12091496540919694    0.1209155218524684    0.14108351795278354    0.18790039834624486    0.2710799220088552    
  0.3926206474849834    0.5263082486653106    0.6154291500089148    0.6154522902158528    0.5261451220771012    
  0.39258613655068464    0.2711853082999564    0.1878933908602144    0.14106595115499476    0.12091496540919694    
  0.15443068261855622    0.1441141880494701    0.1544135278319203    0.18787781361231765    0.25086610223904293    
  0.34444374441829084    0.44815853567863934    0.5218861670012674    0.545508675888504    0.5219092041620406    
  0.4483079603592226    0.3444511936968904    0.25076295374633356    0.1878933904781849    0.15443068261855622    
  0.22164439235717195    0.19757390685662396    0.1975937980132348    0.22165388466657954    0.2710854080701565    
  0.34445317855937824    0.4175973067859277    0.448135071808655    0.43978142990477187    0.43979827731024834    
  0.44810595837804784    0.41751432479779144    0.3444511670847716    0.2711853420978061    0.22164439235717195    
  0.3323774224107222    0.29159816417675016    0.27701799805465566    0.29158656666693034    0.3324907278710571    
  0.39257420319971564    0.448174049695658    0.44817585534216536    0.389536047074573    0.3541541269859177    
  0.38954835263792226    0.448105832556785    0.44830793993913814    0.3925860839107951    0.3323774224107222    
  0.4780179182945907    0.42126101796223897    0.38232694565200515    0.38232490980076245    0.42112467668276626    
  0.47803362853202436    0.5262833787130181    0.5218620339508109    0.4397821517559594    0.3541557432706887    
  0.35415418278732175    0.43979814213691126    0.5219091324280084    0.5261450030771081    0.4780179182945907    
  0.6113592936056217    0.5441770938931997    0.45318786528991334    0.41036389231596154    0.45331109534766467    
  0.5441501434938835    0.6112232606178835    0.6155152679472579    0.5455222050034023    0.43978215777164453    
  0.3895360294442818    0.43978142549368454    0.545508681426642    0.6154523821856455    0.6113592936056217    
  0.6658116204729356    0.6097760757930758    0.44403572040020817    0.30842936140005667    0.30837583043536115    
  0.4440351192108149    0.6099863271413724    0.6656276417340977    0.6155153931353337    0.5218622204266907    
  0.4481760619777276    0.44813519894907666    0.5218861743399514    0.6154292793712325    0.6658116204729356    
  0.6112251352308575    0.6099405609532484    0.4217454133807762    0.20358566271359319    0.13113434263225293    
  0.2035978635163197    0.4216980459492145    0.6099863883224742    0.6112231338780492    0.5262834419424792    
  0.44817407374873564    0.417597325491657    0.4481586149650313    0.5263083123207526    0.6112251352308575    
  0.4779938496348941    0.5441338425900607    0.4440918650599831    0.20354883020239864    0.07683066829706023    
  0.07685402019806477    0.20359789754250382    0.4440350727519327    0.5441500773425018    0.4780336975542884    
  0.39257422637799416    0.3444531259878334    0.3444437549254206    0.39262076730659484    0.4779938496348941    
  0.332464539740512    0.4211464007188651    0.45333669102375207    0.30829114974415234    0.1312241124308907    
  0.07683069529175494    0.13113434241298758    0.3083757443915775    0.4533112362724897    0.4211246839646606    
  0.33249078031992013    0.2710853909097218    0.25086610390638353    0.27107995873758783    0.332464539740512    
  0.22163615045543938    0.2916331679628136    0.38233490477384    0.41043101678929733    0.3082911929325943    
  0.20354883504383095    0.20358562694229101    0.30842924804122707    0.41036382943771216    0.3823249078706243    
  0.2915866783101504    0.2216538448420564    0.1878778025394082    0.18790037451044592    0.22163615045543938    
  0.15441256801310982    0.19760155870707086    0.27695320188992584    0.38233493322738404    0.45333669177110686    
  0.44409180367513035    0.4217453478190473    0.4440356510310625    0.45318788417896916    0.38232692060148327    
  0.27701806868024775    0.19759373089420137    0.1544135184502548    0.1410834742443278    0.15441256801310982    
  0.12091578674933894    0.1441108474415212    0.19760159355530904    0.2916332126823375    0.42114641916009016    
  0.5441339073870076    0.6099406803455294    0.6097760552588731    0.5441771647836587    0.42126104882648674    
  0.29159813462074285    0.19757391654201437    0.1441142027496772    0.12091550853749275    0.12091578674933894    
  0.11093851563013578    0.12091579977727279    0.15441260182301825    0.22163615549030308    0.33246463426561995    
  0.4779938668184533    0.6112252266019219    0.6658115447580326    0.6113593736706059    0.47801804964951855    
  0.3323775467287187    0.22164440673162997    0.15443072893661253    0.1209149838442663    0.11093851563013578    
  0.10665093463284389    0.11484795660154908    0.1422946760558473    0.1966379412048053    0.28440953486128456    
  0.3973987415052887    0.4993371213489907    0.5408010967467904    0.4994838913709008    0.3974236292925168    
  0.28430570682515044    0.1966494109132949    0.14231353749030662    0.11484819936931817    0.10665093463284389    
  0.1148481792688763    0.1148466964943205    0.12997331280954214    0.16509163695749132    0.22665905123461672    
  0.31633429764025034    0.41661415446102135    0.48517433388055947    0.4851688846185203    0.4164813102405867    
  0.3163253535523052    0.22674929574700894    0.16508388091624615    0.12995373200866825    0.1148481792688763    
  0.142313527636367    0.13535929891345874    0.14229677968812932    0.16506933977417804    0.20819830646025572    
  0.27382059295380434    0.35359414831079355    0.421513791655434    0.44787040097316017    0.42151587516609507    
  0.35369646396182386    0.2738310983947773    0.2081086741363404    0.16508383942410587    0.142313527636367    
  0.1966493429798743    0.18215325866872176    0.1821741516654068    0.1966575090687859    0.22666112356041127    
  0.2738349245048716    0.331301395573599    0.38068220724962576    0.4064558666573981    0.4064808615852366    
  0.38069630378736175    0.33121092810642755    0.27383112880703    0.22674928499933675    0.1966493429798743    
  0.2843056009234329    0.2632125281029819    0.2553548914584535    0.2632003820433879    0.28441156368309    
  0.3163137198469249    0.3535878587735432    0.3807346607882264    0.38719831634194357    0.3852758106518495    
  0.38717286447855137    0.38069623470107167    0.35369642824126063    0.31632535529268146    0.2843056009234329    
  0.39742350999696097    0.3722872483706079    0.351656295319394    0.35165153618391376    0.37216127718266234    
  0.3974338197249182    0.41659930776604726    0.42148107561112386    0.4064581387567312    0.38526224828659966    
  0.3852759416211417    0.4064807751108405    0.42151578093603237    0.4164812881951734    0.39742350999696097    
  0.499483818391429    0.4720255628618878    0.41406121516444205    0.38314015503798043    0.41418390698752455    
  0.4720070402960518    0.49935619128857583    0.48522039468759837    0.44788396445644135    0.40645811150094163    
  0.3871982838360205    0.4064558385687626    0.4478704527800983    0.48516895037491464    0.499483818391429    
  0.540801182726433    0.5230568894397041    0.4018537368870398    0.29023420431256464    0.2901703129832884    
  0.40185892221598    0.523239385222495    0.5406691553260446    0.48522044118950614    0.4214811916855197    
  0.38073484536055413    0.3806822901184138    0.42151383272823784    0.48517439823077363    0.540801182726433    
  0.49933709878740845    0.523211958335847    0.3798265491330385    0.1917739294833357    0.1265421267253904    
  0.19178434934460412    0.3797819982511569    0.5232393772979054    0.499356197418569    0.4165993335030826    
  0.3535878968219276    0.3313013575406547    0.353594174160922    0.41661412517579277    0.49933709878740845    
  0.397398707592387    0.4720207542300034    0.4019017923255632    0.1917383088079484    0.07509083796892528    
  0.07511730569438663    0.19178438340091053    0.40185890473189184    0.47200697530049734    0.39743389869042095    
  0.31631373951660724    0.27383490514538283    0.27382061851377526    0.3163343416907479    0.397398707592387    
  0.2844094539563941    0.372175288509647    0.414185347793599    0.29009299328095733    0.12663265581276137    
  0.07509084109358714    0.12654213907895737    0.2901702229563721    0.4141839919706525    0.3721612264414696    
  0.28441158854778265    0.22666108814593117    0.20819828331731455    0.2266590819381338    0.2844094539563941    
  0.19663793935162746    0.2632288771842056    0.3516610413841072    0.38322493963744325    0.29009300654931364    
  0.19173829719322583    0.19177387295653098    0.2902341363308204    0.38314011938331205    0.35165150444001503    
  0.2632004784411909    0.19665748885478307    0.16506932347163117    0.16509164860786035    0.19663793935162746    
  0.14229465878937664    0.18218028037869632    0.25531097781747997    0.35166104536003523    0.4141853164157943    
  0.40190170118265056    0.3798264976750383    0.40185364111421273    0.41406121742704927    0.35165629572973056    
  0.2553549198601292    0.18217411524834326    0.14229677962202755    0.12997330268089685    0.14229465878937664    
  0.11484797679742641    0.13535805497390294    0.1821803433633157    0.2632288958191992    0.372175296026517    
  0.47202082785716204    0.5232119682618577    0.5230568956134972    0.4720256473560879    0.3722872551765277    
  0.26321253048821003    0.18215328269178638    0.13535932552845192    0.11484669559847181    0.11484797679742641    
  0.10665093463284389    0.11484795660154908    0.1422946760558473    0.1966379412048053    0.28440953486128456    
  0.3973987415052887    0.4993371213489907    0.5408010967467904    0.4994838913709008    0.3974236292925168    
  0.28430570682515044    0.1966494109132949    0.14231353749030662    0.11484819936931817    0.10665093463284389    
  0.10147870432667093    0.10753045903146462    0.12766301778769334    0.16709927584310635    0.2300102926245817    
  0.3097519607035026    0.38123155247007146    0.41047437742938386    0.3813138645712318    0.3097623163809649    
  0.22994274526717584    0.1671102125489339    0.12767121137550472    0.1075325397483745    0.10147870432667093    
  0.10753251197851016    0.10753216120296821    0.11726226820306353    0.1402136995347014    0.18052012290848998    
  0.23878096646518018    0.30328629327272    0.3472693576364136    0.34726772890234864    0.3032121339807086    
  0.23878181245179333    0.1805721450004257    0.14020841384782579    0.11725300353013618    0.10753251197851016    
  0.12767115088474237    0.12405409715770695    0.12766504842666612    0.14020120018800417    0.16504078673669234    
  0.2040198343200405    0.25319951188553635    0.2970965043034435    0.31485014714072174    0.29709718578348104    
  0.2532522394124008    0.20402568647588565    0.16498922258177254    0.14020839053566828    0.12767115088474237    
  0.16711017059401964    0.16132482562952707    0.16133187079019295    0.16711043291679833    0.18052033062236336    
  0.20403063882060438    0.23650059690454794    0.270176281187953    0.2922363239961129    0.2922460628583069    
  0.27018570112195567    0.2364523158023699    0.204025671065504    0.1805721816902398    0.16711017059401964    
  0.22994268574078827    0.2256424504588193    0.22418905830666178    0.22564179573508233    0.23001028015406233    
  0.2387684765267508    0.2531995928682781    0.2702033137716768    0.2835836660225078    0.2885181608731544    
  0.2835724308888987    0.27018564288600705    0.2532522373190607    0.238781827872554    0.22994268574078827    
  0.30976220034917473    0.31326352202329405    0.3127013215912086    0.31269040184039243    0.31318560748249574    
  0.309769806871741    0.3032743411643363    0.2970738261708321    0.29223907418711975    0.2885094925576471    
  0.28851826819287646    0.2922460534807278    0.297097109291371    0.3032121522801074    0.30976220034917473    
  0.3813138093709149    0.3980171961750441    0.3896507705946643    0.38029570500580184    0.38973702079966865    
  0.39799874948626224    0.3812493058267514    0.347297035180708    0.31485286259553763    0.29223900211568515    
  0.2835836429057428    0.29223624225430606    0.31485015084734763    0.3472678012303926    0.3813138093709149    
  0.4104744199814493    0.4469099126644999    0.4145940204776683    0.3587511027793721    0.3586905801114235    
  0.4146137120427327    0.4470129508920455    0.41040033225802325    0.34729703444832577    0.2970739108504918    
  0.2702034604451376    0.2701763196387393    0.29709650096224666    0.34726941523785004    0.4104744199814493    
  0.3812315686494009    0.44700636915528114    0.4121297660589304    0.2979131823854671    0.24247802802628232    
  0.29791162084866896    0.41211313831386537    0.44701298414159907    0.3812492685596653    0.3032743896844409    
  0.25319960039915845    0.2365005625097993    0.2531995090623174    0.30328627873031727    0.3812315686494009    
  0.3097518874836291    0.39800807687343615    0.41463370408374417    0.2978891549131054    0.1881479424423974    
  0.18819268428459593    0.2979116421626783    0.414613673429479    0.3979986738240542    0.309769827532352    
  0.23876848893026395    0.20403059693976938    0.2040198282561612    0.23878100310404723    0.3097518874836291    
  0.2300102426259155    0.3131880525238742    0.38974698035511424    0.3586136299968267    0.2425791238603414    
  0.18814792871234803    0.2424780174490358    0.35869052069234003    0.3897370985853874    0.3131856393655935    
  0.23001031481533038    0.1805202693104233    0.16504078969339203    0.18052012162057463    0.2300102426259155    
  0.16709924489571484    0.2256610502531789    0.312687344552956    0.38037205526765877    0.3586136120401217    
  0.2978891145726759    0.29791306721697997    0.3587509944235639    0.3802956473097788    0.3126903604474343    
  0.22564189131945542    0.16711040704580682    0.140201191306931    0.14021369697733466    0.16709924489571484    
  0.12766300695911795    0.161332816023922    0.2241725948793036    0.31268737588267836    0.38974697446608186    
  0.41463364538424924    0.412129695650624    0.414593961092251    0.3896507091483424    0.31270129365080856    
  0.2241890928418761    0.16133183029707582    0.12766503973994434    0.11726226267888387    0.12766300695911795    
  0.10753047552374857    0.12405923917873672    0.16133286239575967    0.22566105852834809    0.3131880166522604    
  0.3980081370856721    0.447006393991003    0.44690997720004416    0.398017238981395    0.31326355425615565    
  0.2256424269714942    0.16132482527532552    0.12405412847753841    0.10753215999427825    0.10753047552374857    
  0.10147870432667093    0.10753045903146462    0.12766301778769334    0.16709927584310635    0.2300102926245817    
  0.3097519607035026    0.38123155247007146    0.41047437742938386    0.3813138645712318    0.3097623163809649    
  0.22994274526717584    0.1671102125489339    0.12767121137550472    0.1075325397483745    0.10147870432667093    
  0.09668228393432825    0.10093600955462607    0.11495938112043712    0.1422452938153789    0.18577435425501526    
  0.24118594882187555    0.29147729089665175    0.31238034155460503    0.29149957141247534    0.24118774143972938    
  0.18575541940846718    0.1422492735964887    0.11496153337688296    0.10093731434885023    0.09668228393432825    
  0.10093730209052054    0.10093870262687535    0.10649829028876469    0.12010567085290456    0.14479283245846242    
  0.18088058587681333    0.2207951757211219    0.2482607522677655    0.24825837288514024    0.22077557432258074    
  0.18088088800643695    0.14480526932535573    0.12010436133463112    0.10649754895653425    0.10093730209052054    
  0.1149615054444705    0.11378068614552735    0.11496104952725793    0.12010477844617662    0.13224896843945116    
  0.1533483103578101    0.18125294283099544    0.20681555711316305    0.21740403825927826    0.2068169660378326    
  0.18126628442291517    0.15335155825531427    0.13223682369496834    0.12010435163286633    0.1149615054444705    
  0.14224927424118267    0.14253500707865585    0.14253446079960044    0.1422454204237683    0.14479256721999365    
  0.15335391303101303    0.1687051628034498    0.18698327937830947    0.1999308447182222    0.19993351273144866    
  0.18698456013051357    0.16869314285297804    0.15335157600694363    0.14480525923411874    0.14224927424118267    
  0.18575536698066242    0.19228198397759677    0.19533109412390381    0.19228760500605332    0.18577186543418592    
  0.1808757184131132    0.18125481724776593    0.1869887189537581    0.19415705870544572    0.19738662793137737    
  0.1941556593283478    0.18698448107543003    0.18126624462857566    0.18088088803018343    0.18575536698066242    
  0.24118768226813134    0.2623725010404282    0.2760057743912084    0.2759970437323416    0.26235532966597924    
  0.24119086766860778    0.22078827608440726    0.20680886686691616    0.19993172462870387    0.19738613176154915    
  0.19738668116035998    0.19993350294967427    0.2068169405189745    0.22077558507656092    0.24118768226813134    
  0.2914995238404531    0.33637973226298146    0.36735795988969366    0.3774984062403313    0.36737268671426093    
  0.33637261444864636    0.2914867792819825    0.24826770993393832    0.21740437738123192    0.19993168806202521    
  0.194157047710258    0.1999308347725045    0.21740405521597295    0.24825841266556814    0.2914995238404531    
  0.31238034137958887    0.3848662224579173    0.4336787914787481    0.44753407983162713    0.44751908428705867    
  0.4337069100524433    0.38488510583117486    0.31236117157291626    0.2482677137942837    0.2068089319515059    
  0.18698880541589635    0.18698336079027458    0.20681553477777864    0.24826077801443627    0.31238034137958887    
  0.291477261252688    0.3848909892401735    0.45555577255403823    0.46501569352732575    0.45445735871809595    
  0.46500674367886746    0.45556839553811695    0.38488514507722665    0.2914867188733808    0.22078830777305417    
  0.18125485013368825    0.16870514300404674    0.18125295287397797    0.2207951696490947    0.291477261252688    
  0.24118595671036222    0.3363746016090277    0.43370669465484446    0.46500867448063743    0.43981066744950953    
  0.4398128829279311    0.4650068158541002    0.4337069210089616    0.3363725904081946    0.241190918407127    
  0.18087573063533025    0.15335386612167515    0.15334830943086505    0.18088064340909735    0.24118595671036222    
  0.18577432931125087    0.2623501085309487    0.3673871039028404    0.44747670243740023    0.4544895733940919    
  0.43981066185799095    0.45445732741265316    0.4475189563328449    0.3673727128887224    0.26235533755539064    
  0.18577189195741306    0.14479255383359904    0.13224895202204165    0.14479286394139612    0.18577432931125087    
  0.14224527209556526    0.19229040665767744    0.2759994934031634    0.37752486492309173    0.44747672686485385    
  0.4650086634540558    0.46501567864893184    0.4475339011837746    0.3774983532790422    0.2759970033003951    
  0.19228766476581957    0.1422453681301067    0.12010474291835996    0.12010566131813155    0.14224527209556526    
  0.11495934673107232    0.1425346961955949    0.19532751773129425    0.27599954857259124    0.3673870910980329    
  0.43370664982961343    0.455555778468607    0.433678742885206    0.3673579705333627    0.27600578798672754    
  0.19533115910043675    0.14253441518093501    0.11496107500812866    0.10649828469031465    0.11495934673107232    
  0.10093600746617222    0.11378593461310693    0.14253471255430547    0.19229043981646515    0.2623501124002037    
  0.33637463615853264    0.3848909921291072    0.3848662773867502    0.336379788922779    0.262372503114179    
  0.19228197239857286    0.14253503799777334    0.1137807214575064    0.1009387112333658    0.10093600746617222    
  0.09668228393432825    0.10093600955462607    0.11495938112043712    0.1422452938153789    0.18577435425501526    
  0.24118594882187555    0.29147729089665175    0.31238034155460503    0.29149957141247534    0.24118774143972938    
  0.18575541940846718    0.1422492735964887    0.11496153337688296    0.10093731434885023    0.09668228393432825    
  0.09362813244431464    0.0965744531725986    0.1066051946042371    0.1266519746706325    0.15907394979529418    
  0.2008493295556065    0.23923810277577304    0.2553294781609956    0.2392399463342646    0.2008487334108103    
  0.15907382315255292    0.12665346849755368    0.10660575677953882    0.0965744611354733    0.09362813244431464    
  0.09657445693844204    0.09657479446969318    0.09958976318511398    0.10771544382626821    0.12364257638862944    
  0.1477849719403454    0.17490176371425373    0.19399697811995645    0.19399664922039828    0.1749017256240469    
  0.1477824694829903    0.12364256353229126    0.10771422969018647    0.09959176354703105    0.09657445693844204    
  0.10660575036617352    0.10671060024504345    0.106607312153133    0.10771507784765642    0.11301419358492615    
  0.12480659473236572    0.14179562242933205    0.15794485990871396    0.16483954078243426    0.15794416323794724    
  0.1417966994675677    0.12480995338367275    0.11301373705304164    0.10771421486378378    0.10660575036617352    
  0.12665342351905162    0.12996698029143688    0.12996598987067584    0.12665097731245253    0.12364171428230313    
  0.12481102974832693    0.13179834609969449    0.1420486125928465    0.1498215292502742    0.1498215304503842    
  0.1420478863367651    0.1317972257337235    0.1248099626583014    0.12364255630084016    0.12665342351905162    
  0.1590737589314114    0.17069206360449948    0.1758058913279621    0.17069547634829454    0.15907280831579268    
  0.14778141869059055    0.14179793611992475    0.14204761027510585    0.1453726063243534    0.14723387806178084    
  0.1453753238311906    0.14204783548661176    0.14179664626119515    0.14778247085782287    0.1590737589314114    
  0.20084868380684176    0.22957479490163837    0.24923049251348625    0.24922759835514224    0.22957776116902626    
  0.20085080348073822    0.17489918741776647    0.15794102712521285    0.14982223303725964    0.14723647743301738    
  0.14723390956980453    0.14982149866469166    0.15794411737860153    0.1749017120995828    0.20084868380684176    
  0.23923993265991353    0.29495909144682164    0.3432749276130498    0.3624748259200512    0.3432618030479008    
  0.2949576688998311    0.23924103596954338    0.1939995256248064    0.1648389987375728    0.14982222267950282    
  0.14537257230647976    0.1498214592619696    0.16483958004968693    0.19399669465065744    0.23923993265991353    
  0.25532946863993655    0.33994876855281175    0.42747161694672386    0.4828603153065708    0.48287012976878696    
  0.4274952637348706    0.33994253504336713    0.25532641855577654    0.19399949395684482    0.15794110066165712    
  0.14204769299211922    0.1420486557118127    0.15794485936981398    0.1939970424239182    0.25532946863993655    
  0.23923810369188822    0.3399475282160298    0.46139812868799274    0.5595493196213246    0.5954890676452618    
  0.5595423712398099    0.46141080074718627    0.33994257377277987    0.23924100770803086    0.17489922283005205    
  0.14179794444280802    0.13179832606571784    0.1417956113551279    0.1749017873856423    0.23923810369188822    
  0.2008492937921153    0.2949573726817799    0.42748787310575365    0.5595503721973527    0.6361689837941145    