#     DFTpy    
  CRYSTAL 
    
  PRIMVEC    
  1.3464168255922893    -2.332062350091449    0.0    
  1.3464168255922893    2.332062350091449    0.0    
  0.0    0.0    2.534391752482758    
  PRIMCOORD    
  1    1    
  Si    0.0    0.0    0.0    
  BEGIN_BLOCK_DATAGRID_3D    
  3d_datagrid_density    
  BEGIN_DATAGRID_3D#0    
  13    13    11    
  0.0    0.0    0.0    
  1.3464168255922893    -2.332062350091449    0.0    
  1.3464168255922893    2.332062350091449    0.0    
  0.0    0.0    2.534391752482758    
  0.0536215417347759    0.09284429262162801    0.2328657856527757    0.37715554029505655    0.37767153674547027    
  0.31803025197902113    0.2913690610422366    0.31803027495515274    0.37767152751107014    0.3771555715570246    
  0.23286579464115928    0.09284428723146564    0.0536215417347759    0.0928442877219284    0.0928562715251291    
  0.18649411460428544    0.33949377923768226    0.39157801599378594    0.3389608865341741    0.29108449216655874    
  0.29108085329930306    0.33896534790489663    0.39158258206920304    0.3394505895426762    0.18653033656396917    
  0.0928442877219284    0.23286575854160757    0.186494126324864    0.23287917319307616    0.3394775445568766    
  0.39219152906533467    0.3489467471350094    0.29021619612717586    0.2674084746652677    0.2902195272222632    
  0.34893012839766285    0.39224642922122593    0.33945059918458864    0.23286575854160757    0.3771555258514013    
  0.3394937725315591    0.3394775400790273    0.377152537667344    0.39155954833166434    0.3489786847775374    
  0.2896088227092454    0.2541178403901429    0.2541057741090301    0.289628402175727    0.34893015962632934    
  0.39158259772890924    0.3771555258514013    0.3776715852823471    0.3915780091277262    0.39219151049607215    
  0.39155954049663316    0.3776899715297933    0.3389750715016558    0.2901860719532205    0.25411209194068546    
  0.24144552654815288    0.2541057499927162    0.29021951670535273    0.3389653013805873    0.3776715852823471    
  0.3180302637618827    0.33896084916503005    0.348946769121991    0.34897867593570814    0.3389750644225876    
  0.3180036265267081    0.2910788210614639    0.2674394969046886    0.2541120863203501    0.25411786543355913    
  0.26740849849928583    0.2910808473037012    0.3180302637618827    0.2913690568132464    0.291084482954013    
  0.2902162002406762    0.28960882402459964    0.29018607975779376    0.2910788075323218    0.29139681269418527    
  0.29107880054926916    0.2901860867876823    0.2896088459893436    0.290216203125011    0.2910844994043045    
  0.2913690568132464    0.3180302880692581    0.2910808385771602    0.26740847912759036    0.25411785432784795    
  0.2541121000932243    0.2674395045270882    0.29107880686765125    0.3180036014805873    0.338975049365693    
  0.34897868362790374    0.3489467321548503    0.33896085057673386    0.3180302880692581    0.3776715453157614    
  0.3389653184182805    0.29021953511537757    0.254105776830951    0.24144550811701376    0.25411210123676337    
  0.290186079308977    0.3389750629132575    0.3776900109066355    0.3915595508371813    0.392191535447706    
  0.3915780209708634    0.3776715453157614    0.37715551630441335    0.3915825858758593    0.34893012904783843    
  0.28962837204536335    0.25410576940356155    0.2541178523501241    0.28960881343387074    0.3489786704237672    
  0.39155953652384234    0.37715259062333484    0.33947753877497266    0.3394937751707804    0.37715551630441335    
  0.2328657772485568    0.3394506033690855    0.3922464532452429    0.3489301248412471    0.29021952302379916    
  0.2674084930423596    0.2902162051172868    0.34894675370374595    0.3921915074669183    0.33947755726202666    
  0.23287914139413166    0.1864941196751784    0.2328657772485568    0.09284429256855928    0.18653032080526757    
  0.33945059658384474    0.39158259677588364    0.3389653485945943    0.29108085256164234    0.2910844775029662    
  0.3389608493764731    0.39157803530555346    0.33949375269842985    0.1864941081113997    0.09285628834297818    
  0.09284429256855928    0.0536215417347759    0.09284429262162801    0.2328657856527757    0.37715554029505655    
  0.37767153674547027    0.31803025197902113    0.2913690610422366    0.31803027495515274    0.37767152751107014    
  0.3771555715570246    0.23286579464115928    0.09284428723146564    0.0536215417347759    0.10745667155161577    
  0.15416857009607654    0.2859016288665106    0.384013241232713    0.35740976745647557    0.29568670690884313    
  0.27027785543504795    0.29568670489384113    0.357409744797956    0.38401324968258677    0.2859016452995372    
  0.15416858193778546    0.10745667155161577    0.15416858041880022    0.15415462405105476    0.24638831304047243    
  0.36351390308895154    0.3774652004094621    0.3162885413792423    0.2701005415335939    0.2700925857595639    
  0.31629629900927336    0.3774626307400083    0.3634837896259325    0.24641031379350992    0.15416858041880022    
  0.2859015993644636    0.2463883257798365    0.28594325549320976    0.36349133577936643    0.38145628252956976    
  0.32654875276601614    0.2693680586533516    0.24810012041571883    0.26937011461256194    0.32654052127079136    
  0.3814948291580447    0.3634838030725979    0.2859015993644636    0.3840132177317244    0.36351389333185863    
  0.36349132167103837    0.3839922782231633    0.37744943782898377    0.32657995036455295    0.2687998511946389    
  0.23578782790502723    0.2357799917689257    0.2688123950537056    0.32654053037653813    0.37746261399414    
  0.3840132177317244    0.3574097943981202    0.3774651796759897    0.3814562818444182    0.3774494576268058    
  0.3574447389650954    0.316297681918547    0.2693417576690399    0.23578490964076684    0.22410496917442255    
  0.23577997343106968    0.26937010655738536    0.3162962859029902    0.3574097943981202    0.295686709354083    
  0.3162884929624962    0.3265487296492044    0.3265799434731418    0.3162976807145536    0.29565090593052457    
  0.2700969477316224    0.24812372990331721    0.2357848798631834    0.23578783235836567    0.24810011707524576    
  0.2700925816110426    0.295686709354083    0.2702778549666138    0.2701005422546901    0.2693680678011786    
  0.2687998578863447    0.26934174601525646    0.27009695659814476    0.2703089283856807    0.27009695358160135    
  0.2693417413476476    0.2687998655886703    0.2693680737646344    0.27010054339454587    0.2702778549666138    
  0.295686723230555    0.27009257274164655    0.24810013975534403    0.23578781752371403    0.23578489458118757    
  0.24812373466433682    0.27009697010001865    0.2956508847657916    0.3162976614283552    0.32657996182912236    
  0.326548727807739    0.31628853502215815    0.295686723230555    0.3574097638218682    0.3162963090904478    
  0.26937010843278886    0.23577998125766092    0.22410498680882926    0.23578491273886681    0.2693417555091274    
  0.31629766314854474    0.3574447575879484    0.37744945236706895    0.38145628449530117    0.3774651840574988    
  0.3574097638218682    0.38401320781238696    0.37746260755600336    0.3265405070979802    0.2688123764549367    
  0.23577998988624244    0.23578781446205632    0.2687998500304824    0.32657994580955363    0.37744943241856366    
  0.3839923042805045    0.36349133070754963    0.3635138770353218    0.38401320781238696    0.28590165877220014    
  0.3634837890203227    0.38149482502406656    0.326540503445845    0.2693701053794115    0.24810012217054953    
  0.2693680687667781    0.3265487581504163    0.3814562743200356    0.3634913423773788    0.2859431934123962    
  0.2463883185074129    0.28590165877220014    0.15416858218445798    0.246410295562122    0.36348379400975717    
  0.3774626142905773    0.3162963173556828    0.27009257937673464    0.2701005236625904    0.3162885320589967    
  0.37746518544556873    0.3635139131342254    0.2463883103213579    0.15415462163782986    0.15416858218445798    
  0.10745667155161577    0.15416857009607654    0.2859016288665106    0.384013241232713    0.35740976745647557    
  0.29568670690884313    0.27027785543504795    0.29568670489384113    0.357409744797956    0.38401324968258677    
  0.2859016452995372    0.15416858193778546    0.10745667155161577    0.299222931548736    0.3310129836483589    
  0.38228184143200766    0.3705062840850678    0.30182973438212846    0.2415231732695423    0.21989726013315855    
  0.24152316357207776    0.30182973414745373    0.370506283716363    0.38228183553632705    0.33101297129275464    
  0.299222931548736    0.33101300563607283    0.3309851723549753    0.3719555917907271    0.3839018798268372    
  0.3301082047060365    0.26041950536663017    0.21998635152518384    0.21998006343004267    0.26042436969221916    
  0.33010466260169335    0.38389445985346027    0.3719573459244793    0.33101300563607283    0.38228179785883026    
  0.371955568835329    0.38231533135105783    0.38389019848256134    0.3394553071125886    0.2709165009830333    
  0.21979798927263935    0.20213614520999024    0.21979967995418842    0.270914963652254    0.33946549428789335    
  0.38389445796489685    0.38228179785883026    0.37050622951637807    0.38390185730057624    0.38389021127183587    
  0.3704895898747488    0.3301027975715381    0.27092705198478945    0.21952323725658957    0.19210720700224226    
  0.19210535730479547    0.21952533786367465    0.27091498112004386    0.3301046474386666    0.37050622951637807    
  0.3018297463830371    0.3301081881368076    0.3394553171996107    0.3301028142598962    0.3018502106004864    
  0.2604226645760705    0.21978933278983925    0.19210726485440963    0.18253629486671094    0.1921053787444915    
  0.2197996653082093    0.2604243477848592    0.3018297463830371    0.24152318811396972    0.26041948747946153    
  0.2709165171079256    0.27092708039083546    0.26042265959062516    0.2415036872304141    0.21998530070850728    
  0.20214219552571167    0.192107241388026    0.19210721006082346    0.2021361466910378    0.21998006003142045    
  0.24152318811396972    0.21989727731171388    0.21998633611606305    0.21979798619822993    0.21952322231951246    
  0.21978931875514113    0.2199853050118274    0.21991164098044258    0.2199852926008988    0.2197893275757858    
  0.2195232531883498    0.21979797182557334    0.21998635378045803    0.21989727731171388    0.24152318437513196    
  0.2199800521510115    0.2021361602392101    0.19210719781054936    0.1921072547246757    0.20214221025052265    
  0.21998529710316897    0.24150366852436173    0.26042264755646916    0.27092707176650943    0.270916485439183    
  0.2604195072682172    0.24152318437513196    0.3018297153449805    0.2604243746897653    0.21979968633348324    
  0.19210537437545808    0.18253630268152718    0.19210725578286791    0.21978932160486242    0.2604226512196773    
  0.30185021591342764    0.3301027877219178    0.33945533540861617    0.33010822138204887    0.3018297153449805    
  0.3705062435389094    0.3301046652349888    0.2709149405369116    0.2195253227511269    0.19210537734005736    
  0.19210718928466705    0.21952323474034482    0.2709270671196142    0.3301027843945766    0.3704896346240609    
  0.3838902059792733    0.3839018589046288    0.3705062435389094    0.3822818589005645    0.3838944402856959    
  0.3394655130726044    0.2709149549766314    0.2197996471353179    0.20213616174006901    0.21979796764216564    
  0.27091652910605785    0.33945529206281283    0.38389020910686134    0.3823152950384992    0.37195555723060214    
  0.3822818589005645    0.33101299080248703    0.3719573177740971    0.3838944399659527    0.3301046526175583    
  0.2604243791921135    0.21998006752448027    0.21998635383579793    0.2604195031058661    0.3301082076287126    
  0.3839018613574828    0.3719555828610048    0.3309851860634351    0.33101299080248703    0.299222931548736    
  0.3310129836483589    0.38228184143200766    0.3705062840850678    0.30182973438212846    0.2415231732695423    
  0.21989726013315855    0.24152316357207776    0.30182973414745373    0.370506283716363    0.38228183553632705    
  0.33101297129275464    0.299222931548736    0.4517885067545366    0.43834708365931463    0.3903796213320049    
  0.3118562832823759    0.23430162287776726    0.1840763045572985    0.16751245192375383    0.18407629904875028    
  0.2343016212990456    0.3118563017228656    0.39037961910292485    0.4383470858983947    0.4517885067545366    
  0.43834712022565636    0.43834326713866645    0.4069858276565701    0.34129640931566424    0.2619224795736923    
  0.19940328054845202    0.16768202608400237    0.16768214269594872    0.19940231548229745    0.2619235414758003    
  0.34129671317182947    0.40698409074814446    0.43834712022565636    0.3903795733956951    0.4069857934828663    
  0.39038220958159664    0.34129520968117305    0.2724018574085425    0.2086904559351654    0.16786786587801594    
  0.15433968644825774    0.16786863699010282    0.2086904670500203    0.2724001298887214    0.3412967343330762    
  0.3903795733956951    0.3118562559210203    0.3412963831451783    0.3412952253752775    0.31185603855997895    
  0.26192208746354084    0.208691103559956    0.1678855725098715    0.14683911424457932    0.14683717346796876    
  0.16788679283394403    0.2086904733720123    0.2619235465002481    0.3118562559210203    0.23430164362015396    
  0.2619224636831944    0.2724018439265907    0.26192209810512596    0.2343038407425056    0.19940188484430574    
  0.16786914442519804    0.14683710779209624    0.13956996268922509    0.1468371967854369    0.1678686138227054    
  0.19940230242448656    0.23430164362015396    0.18407632691286008    0.19940324760652886    0.20869046603733027    
  0.20869110604326824    0.1994018802542844    0.18407610725785356    0.16768122726003046    0.1543406281242581    
  0.14683708528095832    0.1468391168293531    0.1543396957766646    0.16768214385537714    0.18407632691286008    
  0.16751244703210513    0.16768201404080768    0.16786786586045188    0.16788556749159653    0.16786912791341158    
  0.16768121867901783    0.16751425699175845    0.16768121231429117    0.16786915344032863    0.16788558792185543    
  0.1678678548786591    0.16768202966296814    0.16751244703210513    0.18407632335858506    0.16768214208550733    
  0.15433970064220331    0.14683910728907865    0.1468370943513091    0.15434064914902312    0.16768122118483308    
  0.18407609835638544    0.19940186527813195    0.20869110659991244    0.20869044414313348    0.19940327035143057    
  0.18407632335858506    0.23430161683070969    0.1994023383505477    0.1678686337342072    0.146837189387411    
  0.13956996631008323    0.1468370900645972    0.16786914254755927    0.1994018713268026    0.23430386156826533    
  0.2619220753570479    0.2724018591981757    0.2619224755692144    0.23430161683070969    0.31185625686079654    
  0.261923553065508    0.2086904427884605    0.16788678308740407    0.14683718554981098    0.14683909816173327    
  0.16788556838151947    0.2086910998676003    0.2619220800190521    0.31185607016403577    0.3412952272737331    
  0.34129639527067285    0.31185625686079654    0.3903796370167915    0.34129670900753234    0.2724001424763004    
  0.20869045732345132    0.16786861053163277    0.1543396950217344    0.16786785215908126    0.20869046772670558    
  0.27240182133261887    0.34129522360249354    0.39038217997331287    0.40698577406226727    0.3903796370167915    
  0.43834711035936635    0.4069840348960654    0.3412967109601928    0.261923548462802    0.19940232514480985    
  0.16768215382339186    0.16768203026838024    0.19940327656435677    0.2619224789408372    0.34129640493057833    
  0.4069858114755389    0.43834329009847856    0.43834711035936635    0.4517885067545366    0.43834708365931463    
  0.3903796213320049    0.3118562832823759    0.23430162287776726    0.1840763045572985    0.16751245192375383    
  0.18407629904875028    0.2343016212990456    0.3118563017228656    0.39037961910292485    0.4383470858983947    
  0.4517885067545366    0.43362475177013    0.4055155824420513    0.334827888802711    0.252460394538488    
  0.18533667008055899    0.14504516778185583    0.13204869125154578    0.1450451679891339    0.18533666014062733    
  0.252460416193344    0.3348278801275557    0.4055156047770163    0.43362475177013    0.40551560138989745    
  0.40551520488115306    0.35622529837067013    0.28072329762089177    0.2083565446896673    0.15724926733729638    
  0.13219017775959727    0.1321911922112238    0.1572486751951881    0.20835639293471206    0.2807262237224178    
  0.356221365795526    0.40551560138989745    0.3348278390551877    0.35622528832865197    0.33482509936740695    
  0.28072495318851887    0.21730766650222197    0.16488651107968397    0.13259673084771276    0.12195741101891994    
  0.1325958660080661    0.1648879679383706    0.21730429159921286    0.2807262402786126    0.3348278390551877    
  0.2524603766690912    0.28072328230343335    0.280724948099785    0.2524617564756809    0.20835632819949784    
  0.1648861339239947    0.13286052463972903    0.11647592285108316    0.11647648850838907    0.13285999006247806    
  0.16488796173884565    0.20835638495360306    0.2524603766690912    0.18533669130141145    0.2083565406392834    
  0.21730767823062333    0.20835634566656466    0.18533593657923664    0.15724855274707566    0.13259757753749188    
  0.11647608039798249    0.11097214786241787    0.11647646758208488    0.1325958606315836    0.15724866951468966    
  0.18533669130141145    0.1450451683144875    0.15724921992511    0.16488651247072558    0.16488611882791274    
  0.1572485462249688    0.14504652745409244    0.1321904998600057    0.12195654515299795    0.1164760635032451    
  0.1164759245485506    0.1219574099101155    0.1321911931105313    0.1450451683144875    0.13204868445778317    
  0.13219017215851306    0.13259673153025037    0.13286052882609106    0.13259756112948182    0.13219050119476936    
  0.13204787469433074    0.132190492296519    0.13259756016151666    0.13286054104391715    0.13259673010842396    
  0.13219017964001703    0.13204868445778317    0.1450451721359448    0.13219117535048872    0.12195743016704114    
  0.11647591286354628    0.11647607852433217    0.12195653920492922    0.13219049651718867    0.14504652257275752    
  0.15724854129234464    0.16488612738595554    0.1648864943791264    0.15724925387375893    0.1450451721359448    
  0.18533666974207325    0.15724868813171172    0.13259587229634398    0.11647647844942192    0.11097215860743809    
  0.11647608603046668    0.13259756539422274    0.1572485374646655    0.18533595033002978    0.2083563334804718    
  0.21730767055139202    0.20835654191839784    0.18533666974207325    0.2524603758609295    0.20835638342241317    
  0.16488795972162468    0.13285997522448895    0.11647648073503465    0.11647591322436153    0.13286053742051193    
  0.16488612787608592    0.2083563178473368    0.2524617751385535    0.28072496309664163    0.2807232771329243    
  0.2524603758609295    0.3348279099654889    0.28072621953344923    0.21730431063466538    0.1648879608749988    
  0.1325958700168765    0.12195741050975012    0.1325967261546654    0.1648865123533954    0.21730765667925112    
  0.2807249766242471    0.33482503594328533    0.3562252745754736    0.3348279099654889    0.40551559321150094    
  0.3562213264906429    0.28072622097052935    0.20835636978533215    0.15724869115868476    0.13219118973120492    
  0.13219016532392497    0.15724924974249038    0.2083565384417914    0.28072329915060257    0.3562252806715021    
  0.4055152387271446    0.40551559321150094    0.43362475177013    0.4055155824420513    0.334827888802711    
  0.252460394538488    0.18533667008055899    0.14504516778185583    0.13204869125154578    0.1450451679891339    
  0.18533666014062733    0.252460416193344    0.3348278801275557    0.4055156047770163    0.43362475177013    
  0.40363683525068833    0.3759138904227313    0.3075273777545704    0.2301667883240764    0.168530573017726    
  0.13173372365498034    0.11982388254877822    0.1317337363549491    0.1685305674153882    0.23016681059679855    
  0.30752738043625377    0.3759138898979394    0.40363683525068833    0.37591388664131603    0.3759193536742474    
  0.32799654671268325    0.2563649779033663    0.18952933271645137    0.14289609693919844    0.11998307805579067    
  0.1199824293948938    0.14289687280695532    0.18952923361736715    0.2563662183434761    0.32799586999083846    
  0.37591388664131603    0.3075273411819937    0.3279965445900346    0.3075210403813259    0.256368699166403    
  0.19766841822314457    0.149932901826848    0.12054695510638648    0.11080991863157158    0.12054726959028968    
  0.14993136277958793    0.19766889454966968    0.2563662251128799    0.3075273411819937    0.23016676682326967    
  0.2563649691414542    0.2563687029295535    0.23016773472711904    0.18952885299929176    0.14993074705330406    
  0.1209564137017501    0.10611563458014012    0.10611521257774396    0.12095737794172066    0.14993137747723911    
  0.18952924135838953    0.23016676682326967    0.1685306072098459    0.18952933645708736    0.1976684106828833    
  0.1895288540201117    0.16852978947566497    0.14289719236792786    0.12054817391614554    0.10611550219204861    
  0.10124151350189141    0.10611520169104334    0.12054726443491585    0.142896847016523    0.1685306072098459    
  0.13173372955376805    0.1428960698549791    0.14993292206702882    0.14993073446751215    0.14289719037886167    
  0.13173362349977163    0.11998244255328959    0.11080905125034757    0.10611549590819636    0.10611565033829108    
  0.11080993598075044    0.11998242338020208    0.13173372955376805    0.11982387430588212    0.11998306724271786    
  0.12054696123955262    0.12095641212844517    0.12054817396296258    0.11998243728061067    0.11982439715089603    
  0.11998242496518072    0.12054817870717152    0.12095642384662282    0.1205469543918622    0.11998308227727995    
  0.11982387430588212    0.13173374571798613    0.1199824223811438    0.11080992836921892    0.10611564269068467    
  0.10611550301544331    0.11080906419806644    0.1199824323098921    0.1317336049010006    0.14289718030695034    
  0.1499307418731029    0.14993289868911758    0.14289607163586132    0.13173374571798613    0.1685305812183216    
  0.14289686685916084    0.12054727975294724    0.10611521692487375    0.1012415030992625    0.10611550535754609    
  0.12054817693755397    0.14289718259671452    0.16852980917639035    0.18952885316163146    0.1976684186542111    
  0.18952934304619287    0.1685305812183216    0.23016676420839735    0.1895292339316048    0.14993135837094257    
  0.12095735750818704    0.10611521044711672    0.10611563751200791    0.12095640634819049    0.14993073380445543    
  0.18952884724482535    0.23016776560452057    0.25636869796351985    0.25636497107422507    0.23016676420839735    
  0.3075273684611774    0.2563662413739361    0.19766891456501892    0.1499313598310021    0.12054727742264612    
  0.1108099286164851    0.12054695689251299    0.14993290999207143    0.1976684011233272    0.2563687192530903    
  0.30752099343789224    0.32799653908414433    0.3075273684611774    0.3759139068279681    0.3279958353059977    
  0.2563662403911419    0.1895292397284681    0.14289687239274848    0.11998242598964418    0.11998307219983295    
  0.14289607396441745    0.18952934565663762    0.25636496065826647    0.3279965245929204    0.37591940276798796    
  0.3759139068279681    0.40363683525068833    0.3759138904227313    0.3075273777545704    0.2301667883240764    
  0.168530573017726    0.13173372365498034    0.11982388254877822    0.1317337363549491    0.1685305674153882    
  0.23016681059679855    0.30752738043625377    0.3759138898979394    0.40363683525068833    0.4336247498104305    
  0.40551558312982616    0.3348278743868778    0.25246039760617367    0.18533667931348652    0.14504517365814001    
  0.13204868893677713    0.14504517001005107    0.18533666775595917    0.25246041106703887    0.33482788544453057    
  0.4055155989089602    0.4336247498104305    0.40551559969724016    0.4055152228733031    0.356225287353907    
  0.28072328603685226    0.2083565480252695    0.15724925956755564    0.13219017140451278    0.13219119205278362    
  0.15724867264850736    0.20835639015387533    0.28072621195250447    0.35622136585410225    0.40551559969724016    
  0.33482784218835565    0.3562252943019354    0.3348251020977832    0.2807249648628423    0.21730766940680102    
  0.16488651224456677    0.1325967232299931    0.12195740960584224    0.13259586898235035    0.16488797110611392    
  0.2173042924754358    0.2807262302112271    0.33482784218835565    0.25246038116732655    0.28072327803734237    
  0.28072495332253844    0.25246174749766526    0.20835632252706868    0.16488613050839793    0.13286053350524607    
  0.1164759212999939    0.1164764826121824    0.13285998585722553    0.16488796886874596    0.2083563820988898    
  0.25246038116732655    0.18533670077843595    0.20835653378959673    0.21730767816237634    0.20835634652169693    
  0.185335939316476    0.1572485510001379    0.13259757179611714    0.11647608103547999    0.11097215191524964    
  0.11647647293547389    0.13259586101114562    0.15724866978313032    0.18533670077843595    0.14504517081513202    
  0.15724922784820447    0.16488650213580777    0.16488612425043592    0.15724854861495316    0.1450465331231042    
  0.13219049711259737    0.12195654346353073    0.11647606235676819    0.11647592582282205    0.1219574163163786    
  0.13219118623053405    0.14504517081513202    0.1320486863169639    0.13219017111042433    0.13259672776412254    
  0.13286053962350028    0.1325975622412464    0.13219050063630725    0.13204787514482683    0.1321904985950974    
  0.132597558437953    0.1328605360990709    0.13259672899227795    0.13219017491012042    0.1320486863169639    
  0.1450451811953448    0.1321911886222203    0.12195742875430286    0.11647591752749768    0.11647607085951296    
  0.121956548373255    0.1321905060855028    0.14504651950688768    0.15724854040284816    0.16488613217632167    
  0.16488649757091303    0.1572492555605559    0.1450451811953448    0.18533667581701274    0.1572486875819716    
  0.13259586624049371    0.11647647987784422    0.1109721654177958    0.1164760846153735    0.13259757275766873    
  0.1572485398800787    0.18533594789676533    0.20835633129191436    0.21730767216913635    0.2083565364347945    
  0.18533667581701274    0.25246036537965866    0.20835638590543065    0.16488795600150397    0.1328599773675525    
  0.11647648577152733    0.1164759146754252    0.13286053013865928    0.16488612787256296    0.20835632212917643    
  0.25246177151562094    0.2807249603178883    0.28072327272785896    0.25246036537965866    0.3348279097699644    
  0.28072622680767423    0.21730429316788558    0.16488796000713887    0.1325958630069244    0.12195741149721381    
  0.13259672983371454    0.1648865122809583    0.217307668555588    0.2807249708087865    0.3348250307403574    
  0.3562252839408002    0.3348279097699644    0.4055156065506342    0.3562213374989447    0.28072622916880224    
  0.20835637870067614    0.15724869228786137    0.13219119141580493    0.13219016279525395    0.15724925038400556    
  0.2083565340370611    0.2807233010703899    0.35622528063902714    0.4055152295945372    0.4055156065506342    
  0.4336247498104305    0.40551558312982616    0.3348278743868778    0.25246039760617367    0.18533667931348652    
  0.14504517365814001    0.13204868893677713    0.14504517001005107    0.18533666775595917    0.25246041106703887    
  0.33482788544453057    0.4055155989089602    0.4336247498104305    0.4517884857308456    0.4383470853741157    
  0.39037961641881563    0.31185628939171295    0.23430161931457685    0.18407630825531598    0.16751244665855125    
  0.1840763000497853    0.23430161823729542    0.31185629351890765    0.39037961132822463    0.43834708172433234    
  0.4517884857308456    0.4383471142961844    0.4383432603024461    0.40698582020695667    0.3412964182817248    
  0.26192247239402794    0.19940327466925417    0.16768202722870823    0.16768214794660832    0.19940232019287582    
  0.2619235511322162    0.34129671054989097    0.40698406634472145    0.4383471142961844    0.3903795750666074    
  0.40698579158026194    0.3903822018777758    0.34129521447600936    0.27240184482910174    0.2086904505822516    
  0.16786786068966175    0.15433968209401247    0.1678686262578454    0.20869046265397906    0.27240013181145856    
  0.3412967233476436    0.3903795750666074    0.3118562430601383    0.3412963951981729    0.34129522660650846    
  0.3118560375018807    0.261922085831388    0.20869108512152987    0.16788557660588238    0.14683911369917982    
  0.1468371638373541    0.16788679426221856    0.20869047585563288    0.2619235401642927    0.3118562430601383    
  0.23430163264352635    0.2619224569467308    0.27240184737068857    0.2619221032907324    0.23430384491480485    
  0.19940188734290523    0.167869149029406    0.14683710487067242    0.13956995881536072    0.14683718396421166    
  0.16786861673540593    0.1994023056635793    0.23430163264352635    0.18407632088430695    0.19940325671646014    
  0.20869046994509788    0.20869111546166744    0.19940188845037563    0.18407610856865997    0.16768122454814438    
  0.1543406374548142    0.146837085828835    0.14683911436289596    0.1543396899788256    0.1676821426227395    
  0.18407632088430695    0.16751245253549427    0.16768201451070355    0.16786786475293022    0.1678855606548067    
  0.16786913474081447    0.16768122908440253    0.1675142602294423    0.16768121661379176    0.16786914311957613    