#     DFTpy    
  CRYSTAL 
    
  PRIMVEC    
  11.786221479299629    2.1926054455172416e-09    -7.119310013793103e-10    
  2.1926054455172416e-09    11.786221481953852    -2.053869677241379e-09    
  -7.119310013793103e-10    -2.053869677241379e-09    11.786221482692792    
  PRIMCOORD    
  63    1    
  Si    2.9465554253376562    2.5818324616994638e-08    2.946555310146858    
  Si    8.839666164987472    2.6914627339753256e-08    2.946555309790892    
  Si    2.946555426433959    5.89311076679525    2.9465553091199235    
  Si    8.839666166083774    5.893110767891551    2.9465553087639575    
  Si    2.946555424981691    2.479138977837395e-08    8.839666051493253    
  Si    8.839666164631504    2.5887692501132565e-08    8.839666051137288    
  Si    2.946555426077994    5.893110765768315    8.83966605046632    
  Si    8.839666165727808    5.893110766864617    8.839666050110354    
  Si    1.473277684184634    1.4732776088738486    1.4732776282320825    
  Si    7.366388423834448    1.4732776099701512    1.473277627876117    
  Si    1.4732776852809366    7.366388349850773    1.473277627205148    
  Si    7.366388424930752    7.366388350947076    1.4732776268491825    
  Si    1.4732776838286687    1.4732776078469136    7.366388369578479    
  Si    7.366388423478483    1.4732776089432162    7.366388369222514    
  Si    1.4732776849249714    7.366388348823838    7.366388368551544    
  Si    7.366388424574786    7.36638834992014    7.366388368195578    
  Si    2.9465554413915447    2.946555349142266    3.7273884486614786e-08    
  Si    8.839666181041357    2.9465553502385693    3.691791898592513e-08    
  Si    2.9465554424878473    8.83966609011919    3.6246949647994095e-08    
  Si    8.83966618213766    8.839666091215495    3.589098414730444e-08    
  Si    2.946555441035579    2.946555348115331    5.893110778620279    
  Si    8.839666180685391    2.9465553492116334    5.8931107782643135    
  Si    2.946555442131882    8.839666089092255    5.8931107775933445    
  Si    8.839666181781695    8.83966609018856    5.893110777237379    
  Si    1.4732776881330742    4.419833109832654    4.419833116537184    
  Si    7.366388427782889    4.419833110928957    4.419833116181219    
  Si    1.4732776892293769    10.312943850809578    4.41983311551025    
  Si    7.366388428879191    10.312943851905882    4.419833115154285    
  Si    1.4732776877771088    4.419833108805719    10.31294385788358    
  Si    7.366388427426923    4.419833109902022    10.312943857527614    
  Si    1.4732776888734114    10.312943849782641    10.312943856856647    
  Si    7.3663884285232255    10.312943850878947    10.31294385650068    
  Si    5.893110687213561    2.9622381408141033e-08    5.651001322076992e-08    
  Si    11.78622142795968    5.893110771695611    5.512711288145958e-08    
  Si    5.893110688309863    5.893110770599307    5.548307838214924e-08    
  Si    11.78622142650741    2.969174929227897e-08    5.893110797500442    
  Si    5.893110686857596    2.859544656952035e-08    5.893110797856409    
  Si    11.786221427603714    5.893110770668676    5.8931107964735086    
  Si    5.893110687953898    5.893110769572372    5.8931107968294745    
  Si    4.41983305821074    1.47327764885696    4.41983310975083    
  Si    10.312943797860552    1.4732776499532627    4.419833109394866    
  Si    4.4198330593070425    7.366388389833885    4.419833108723896    
  Si    10.312943798956855    7.3663883909301875    4.41983310836793    
  Si    4.419833057854774    1.4732776478300253    10.312943851097227    
  Si    10.312943797504587    1.473277648926328    10.312943850741261    
  Si    4.419833058951077    7.36638838880695    10.312943850070292    
  Si    10.31294379860089    7.3663883899032525    10.312943849714326    
  Si    11.78622140678096    2.94655533911905    2.9465553343975337    
  Si    5.893110667131148    2.9465553380227467    2.9465553347534983    
  Si    11.786221407877262    8.839666080095974    2.9465553333705983    
  Si    5.89311066822745    8.839666078999674    2.9465553337265638    
  Si    11.786221406424994    2.946555338092115    8.83966607574393    
  Si    5.893110666775181    2.9465553369958117    8.839666076099894    
  Si    11.786221407521296    8.839666079069039    8.839666074716993    
  Si    5.893110667871484    8.839666077972735    8.839666075072959    
  Si    4.419833048867726    4.419833115162303    1.4732776259742033    
  Si    10.312943788517538    4.419833116258606    1.473277625618238    
  Si    4.419833049964029    10.312943856139226    1.4732776249472688    
  Si    10.312943789613845    10.31294385723553    1.4732776245913033    
  Si    4.4198330485117605    4.419833114135368    7.366388367320599    
  Si    10.312943788161574    4.419833115231671    7.3663883669646335    
  Si    4.419833049608063    10.312943855112293    7.366388366293664    
  Si    10.312943789257877    10.312943856208598    7.3663883659376985    
  BEGIN_BLOCK_DATAGRID_3D    
  3d_datagrid_density    
  BEGIN_DATAGRID_3D#0    
  51    51    51    
  0.0    0.0    0.0    
  11.786221479299629    2.1926054455172416e-09    -7.119310013793103e-10    
  2.1926054455172416e-09    11.786221481953852    -2.053869677241379e-09    
  -7.119310013793103e-10    -2.053869677241379e-09    11.786221482692792    
  0.02344357072363424    0.02399926251877546    0.025594751735776845    0.02794739247115237    0.030608399887431536    
  0.03294556413528748    0.03442834735952561    0.034756576576700046    0.03398632975626506    0.03250390965810691    
  0.030873043022782338    0.029604742716253782    0.029047143067100205    0.029402933362827267    0.03093527045327656    
  0.03416338029052948    0.04023938914525674    0.05161845039609569    0.07367167598498665    0.11672280297468325    
  0.19718004985606177    0.32025639242429643    0.3999953439261903    0.28415949817045744    0.11634356150185407    
  0.06544426935015425    0.11634362643220453    0.2841595750873406    0.39999533772264206    0.320256338712965    
  0.19718000761355567    0.11672278816136408    0.07367164210070384    0.05161842848592237    0.04023937666966478    
  0.034163380975568265    0.030935267501681154    0.029402928016431053    0.029047157782126343    0.029604739417700972    
  0.030873038287250323    0.032503903778860574    0.03398634277260866    0.034756587856326404    0.034428330364800766    
  0.03294555387960585    0.030608404427438708    0.02794738957561009    0.02559476193138464    0.02399925957853807    
  0.02344357072363424    0.023999270089416536    0.024622292279926582    0.02640583764629385    0.029061464233587707    
  0.03207025865388523    0.03472147323012883    0.036356522548876016    0.03663856625760948    0.03564202961550765    
  0.03383887535994899    0.03188175063281571    0.030363368544870446    0.02966986693022789    0.030014103714287036    
  0.031650111921266585    0.0350679165708559    0.04135818197016686    0.05282688281671084    0.07451194197177645    
  0.11596815696203727    0.19222604414665656    0.31002363672580874    0.40296778826380747    0.32996089914770904    
  0.17456663140353096    0.11642127404245584    0.17456670831273316    0.32996093619890426    0.40296776977817883    
  0.3100235359783246    0.19222599358024067    0.11596814280442212    0.07451194222612872    0.052826881806890755    
  0.04135817205511512    0.03506790654269651    0.0316501053312386    0.030014092121758502    0.029669865048143496    
  0.030363368907991673    0.03188175148580384    0.033838884628191235    0.035642018508235    0.036638570577612495    
  0.03635651728488786    0.034721458061975664    0.032070259060433676    0.02906145407074544    0.026405837422348404    
  0.02462229326146655    0.023999270089416536    0.025594761417254322    0.026405847877838482    0.028761858207593537    
  0.032311521196647895    0.03638890884164241    0.03999663704263775    0.0421659786182315    0.04235026375181382    
  0.04069426383048312    0.03793509454257519    0.03503398575626712    0.03280651404522218    0.03173127210724321    
  0.032043900562867086    0.033973615974928734    0.03791938167711153    0.04481160878756672    0.056531610084949974    
  0.07713323596792687    0.11406965575222851    0.17856888187630354    0.27847714652212996    0.38431306972558105    
  0.40546591622729494    0.33037304163349235    0.28468136286501544    0.3303731602358182    0.40546588746859186    
  0.38431304407486266    0.27847711877702447    0.17856883797844075    0.11406965053724144    0.07713323196842595    
  0.05653160209158521    0.044811615479839084    0.037919373976888444    0.03397361403376504    0.0320438889591848    
  0.03173127797090449    0.03280650813024805    0.03503398430257955    0.03793510975282327    0.040694268285788184    
  0.04235024937196266    0.04216596861294181    0.03999662574752991    0.036388909412863726    0.032311519161843286    
  0.028761868236751413    0.026405835652910842    0.025594761417254322    0.027947388721566473    0.029061464885162685    
  0.032311514894711214    0.03731922204687195    0.0431618886680427    0.048407774315468236    0.051554348684891185    
  0.051751892465124925    0.04921624785226748    0.04511292089366166    0.04087029969655312    0.03763964706221538    
  0.03603138808607544    0.036305029727067215    0.03864334417207774    0.0433113948886936    0.05095670263708012    
  0.06281150356653001    0.08144944435948462    0.11159484887791092    0.1597231965817985    0.2310669730720445    
  0.31760568039202314    0.3847402923908981    0.4038770583324002    0.40109593228663437    0.4038770349304215    
  0.3847402275733449    0.3176056741583637    0.23106692221142322    0.1597231608736545    0.11159484667240292    
  0.08144943309099213    0.06281151973622354    0.05095668301708163    0.043311407093509315    0.03864333198771248    
  0.03630502691057593    0.03603137594826183    0.03763964158675157    0.040870295773070955    0.04511291810994193    
  0.04921624499714692    0.051751887974211194    0.05155434582568074    0.04840776250462805    0.043161891680851494    
  0.03731922190776164    0.03231151597466046    0.029061458567325508    0.027947388721566473    0.030608404453074785    
  0.03207026176053732    0.036388907359878604    0.043161890239611915    0.051250170104710495    0.058660688563005194    
  0.06333689583394053    0.06406857324486297    0.06108506780639899    0.05591257514052063    0.05046459771145914    
  0.04628517691027522    0.044184003163939986    0.04442432975687012    0.0471300013811952    0.05239660713698582    
  0.06045300563491894    0.07169929443179765    0.08711235349441929    0.10885419308829561    0.13970331037815675    
  0.18136123802888762    0.23120200128449722    0.2789527884190574    0.31089497717539477    0.3213025364211551    
  0.31089497483507367    0.2789526941317693    0.2312020165146631    0.1813612148684221    0.13970327581798556    
  0.10885419530528533    0.08711236345416085    0.07169928118940386    0.06045300812484303    0.05239660607182893    
  0.0471300060830111    0.044424323543468765    0.0441840106152395    0.046285182453911645    0.05046459313845813    
  0.0559125932431715    0.06108506811600832    0.06406858680256548    0.06333688346649241    0.05866068658349566    
  0.0512501697214291    0.043161887046000116    0.036388918642796746    0.03207025549735338    0.030608404453074785    
  0.03294555669831502    0.03472145553112798    0.039996627793322186    0.04840775388729852    0.05866066706632799    
  0.06848362553639421    0.07544088241298856    0.07794180784929425    0.076027182008404    0.07135921105229777    
  0.06606690829358007    0.06190397829692379    0.059827451934623986    0.06006557968417896    0.06265011446778987    
  0.06754582025318234    0.07454855331233563    0.08336605893870891    0.09380726251065263    0.10617595324925858    
  0.12133688294582134    0.13960926068047116    0.15970002547828985    0.17874315974983482    0.1926280500098978    
  0.1976821392186322    0.19262808159337053    0.1787431307249627    0.1597000250056853    0.13960922797580402    
  0.12133685657581746    0.1061759628705879    0.0938072441129121    0.08336605101586338    0.07454855047986511    
  0.0675458281803692    0.06265010787683875    0.0600655659134693    0.05982745246061733    0.061903978655468435    
  0.06606690529889417    0.07135921191322447    0.07602719256217651    0.07794180567338123    0.07544088496432234    
  0.06848361478210456    0.058660672194944016    0.048407753523445694    0.03999663147978484    0.034721453261795904    
  0.03294555669831502    0.03442833293737975    0.0363565170175829    0.04216595531686813    0.051554337352837855    
  0.06333687952259198    0.07544088773584395    0.08548670016130869    0.09172704129649309    0.09406818059895575    
  0.09374080301678134    0.09225293203453469    0.0908992884451174    0.09036921309963258    0.09066535219803537    
  0.09168051021827989    0.09347612369875226    0.09584666252124892    0.09846936643503959    0.10116841720326586    
  0.10363792063718175    0.10596501648368738    0.10857103121328372    0.11136368894136639    0.11397320622964    
  0.11601017826441566    0.11682398470501491    0.11601017628520294    0.1139731732260447    0.11136369805782047    
  0.10857101811454459    0.10596500380195768    0.10363790680299999    0.10116839792433537    0.09846936622044461    
  0.0958466537004728    0.09347611095115939    0.0916805067131403    0.09066535968224897    0.09036921730687018    
  0.0908992925198035    0.09225292265331729    0.0937408053843784    0.09406821238232786    0.09172706177070912    
  0.0854867001729311    0.07544089005800443    0.06333687478311091    0.05155434292432959    0.042165968170110445    
  0.03635651332978357    0.03442833293737975    0.03475658957908582    0.03663856473876239    0.04235025146583094    
  0.051751881976412596    0.06406856752643715    0.07794182649350878    0.0917270497722191    0.1044261673219815    
  0.1160591284474686    0.12681268326409068    0.13649987727740126    0.1444007117759791    0.14920233394292148    
  0.1496366507638109    0.1454428902771589    0.13781078769949295    0.1283630202149264    0.1184447039022508    
  0.10919423900949445    0.1009395848274272    0.0934339911945433    0.08672674486439842    0.08114017020629627    
  0.0769429842629897    0.0744258723277445    0.07362604848547247    0.07442588542866269    0.07694297631349584    
  0.08114016541023512    0.08672672996833249    0.0934339791558476    0.10093957286149535    0.10919421069644596    
  0.11844469512556162    0.1283629957964196    0.13781078658354382    0.14544288152777685    0.14963663658501686    
  0.14920234366550603    0.14440073299499356    0.13649987194081614    0.12681271371746497    0.11605914363721964    
  0.10442617950036497    0.09172705097772908    0.07794181844779892    0.06406856738972126    0.05175189109623304    
  0.042350268730287896    0.03663856857335184    0.03475658957908582    0.03398632683861719    0.035642022668560064    
  0.04069425982996636    0.0492162341433245    0.061085046711601615    0.07602717437281827    0.09406819262251799    
  0.11605909708763121    0.14303550030029372    0.1746799171931654    0.20779982863923935    0.23585886809909043    
  0.25192178668587156    0.25255298778827273    0.23745184850626397    0.20966778548563245    0.1763013284871032    
  0.14454882796266477    0.11826192176452084    0.09812209205287813    0.0829730160762248    0.07136112034390427    
  0.06258202462117823    0.0564245533817961    0.05281121369387345    0.05163674989593501    0.05281121991723717    
  0.056424534098883136    0.06258202117656037    0.0713611172911921    0.08297299310481536    0.09812207979201576    
  0.11826191356373231    0.14454881006787995    0.17630128744929238    0.20966775641803098    0.23745179305069505    
  0.2525529555377091    0.25192178304435486    0.23585889877519026    0.2077998460860757    0.17467996989286225    
  0.14303552740525496    0.11605912617840572    0.09406820015641029    0.07602717447632043    0.061085046683050793    
  0.049216227544658465    0.0406942593084384    0.03564201746709384    0.03398632683861719    0.032503908605150074    
  0.033838885975366835    0.03793508348403984    0.04511290978079012    0.055912580473245564    0.07135920616566001    
  0.09374077825064035    0.12681268042859048    0.17467989794603145    0.23792023034064622    0.30549391987686186    
  0.3545356035219893    0.37423033778400305    0.37504970244510494    0.35681061930933267    0.30826890172074933    
  0.24013880345674796    0.17621546297874247    0.12814652078228847    0.09558058984602097    0.074333788227977    
  0.06033774592081113    0.05096143883591224    0.04492658769043156    0.041549972436807026    0.04045791868750151    
  0.04154997513563447    0.044926568241225845    0.05096143913620493    0.0603377291004331    0.07433378735998455    
  0.09558057954781307    0.12814648068605375    0.1762154168816105    0.2401387677667474    0.3082688106053069    
  0.35681058095235374    0.37504964843819055    0.3742303829137518    0.3545356336952508    0.30549396221701    
  0.23792030806793366    0.1746799408495342    0.12681271721488288    0.09374079575619318    0.07135920785345856    
  0.05591258586536706    0.04511290960082385    0.03793510100358463    0.03383887169678952    0.032503908605150074    
  0.030873043015955677    0.031881745861810785    0.03503396962987362    0.04087029893377841    0.05046458141283368    
  0.06606691061106129    0.09225291119814241    0.13649983745220237    0.20779980640544352    0.30549390270900445    
  0.391292977298804    0.40542500638425305    0.3730318228166292    0.37385760875550444    0.40787666945896833    
  0.3946159371607246    0.3083911294829347    0.209744955289162    0.13782374225235058    0.09350924318425144    
  0.0676515897704766    0.05259969469369608    0.04362216666990839    0.03832760035352798    0.035542495689219154    
  0.034661757503856964    0.03554249407340173    0.03832760221024357    0.04362216549672483    0.05259968571326766    
  0.06765156800238019    0.09350923525122637    0.13782367476959653    0.2097448708454927    0.30839110043326473    
  0.39461590095988497    0.40787669667544313    0.3738576043243099    0.3730317964969695    0.4054249889387398    
  0.3912930161619697    0.30549398923472054    0.20779987612327974    0.13649985576636703    0.09225293196557313    
  0.0660669143909791    0.0504645945086098    0.04087029003769142    0.0350339799992138    0.03188175479067507    
  0.030873043015955677    0.029604748616270833    0.030363369187406453    0.03280650197630302    0.037639624993870566    
  0.04628515762614636    0.061903975765729306    0.09089927228116017    0.1444007004771904    0.23585881340404277    
  0.35453556783659335    0.40542501812044185    0.3088650927675125    0.20304801193592417    0.20350923505426738    
  0.3105504360733122    0.40829431042065223    0.3574532703586562    0.23799513807485295    0.1458796219209564    
  0.09210800715700834    0.06312304169072883    0.047685215997424986    0.03929581610215457    0.034714878615182396    
  0.03245456792874215    0.031762182958606354    0.032454572056080835    0.03471486104461663    0.039295816549847984    
  0.04768520203088739    0.0631230384546794    0.09210798385865501    0.14587957401310683    0.23799507117768937    
  0.3574532159768786    0.4082942970187649    0.31055049965160314    0.20350926078256285    0.2030480172602935    
  0.30886500028148667    0.40542498468278193    0.3545356471506649    0.23585890468742166    0.1444007214507501    
  0.09089927357852959    0.061903989729081794    0.046285166583070504    0.03763962680043259    0.032806510359954334    
  0.03036335669950027    0.029604748616270833    0.02904716020914236    0.029669868663708177    0.03173127263409351    
  0.0360313820409418    0.04418399528437515    0.05982744668630312    0.09036921653378883    0.14920226957551636    
  0.2519217133389334    0.3742302745825853    0.37303188633249007    0.20304805346977334    0.08955854699316547    
  0.08970689228607319    0.2038374681970902    0.37488354737976964    0.3763563847421114    0.2536448988181713    
  0.15055612382178693    0.09150871114565613    0.060903817081304115    0.04531358686758566    0.037277495777193824    
  0.03310482940574561    0.03114231405274605    0.030555988003645833    0.0311423245235911    0.03310482142882816    
  0.03727750445307977    0.04531356705155817    0.06090380991808936    0.09150869583208157    0.15055605101708838    
  0.2536448885153242    0.37635636107282605    0.3748836457643008    0.2038375804377038    0.08970692101497023    
  0.08955852233387684    0.20304795632409942    0.3730317878647164    0.3742303268819377    0.2519217888336547    
  0.1492023425082529    0.09036922817711394    0.059827453260044496    0.04418400318375728    0.03603138098394089    
  0.03173127863615201    0.029669867762451087    0.02904716020914236    0.02940292656758374    0.030014100760918424    
  0.03204389776330779    0.036305030286025976    0.04442430641469308    0.06006556940438332    0.09066531807215748    
  0.1496365954048766    0.25255290823201987    0.37504961743979154    0.37385760924130285    0.2035092998741267    
  0.08970693088020884    0.089741025903524    0.20375491641159066    0.3745955299997107    0.37604384990770057    
  0.2535096573312928    0.15051940711270845    0.09150953080347349    0.06091970339206925    0.04533012104621568    
  0.03728717494458374    0.033105750031394744    0.031136214699323993    0.030547369545040056    0.03113622178119545    
  0.033105740244976437    0.03728717773226025    0.045330126379130364    0.06091968683077188    0.09150950618232444    
  0.15051934268210607    0.2535096242541227    0.3760438484018822    0.3745956184907333    0.20375503417553048    
  0.08974103484666217    0.08970689307543948    0.20350921832059896    0.37385756343117943    0.3750496364034921    
  0.252552983560167    0.14963663518898923    0.09066535716581194    0.060065581686761155    0.04442431590546992    
  0.03630502435527429    0.03204390119455457    0.030014097095127285    0.02940292656758374    0.030935276039446895    
  0.031650104639075034    0.03397359684461282    0.038643312460428    0.047130004043828715    0.06265007822884211    
  0.09168051050138433    0.14544283584419304    0.237451755298991    0.3568105554742105    0.40787670188652053    
  0.31055050070644247    0.20383757408400685    0.20375495782003164    0.31025469569136976    0.4074808829510669    
  0.35667824250361596    0.23761935253998215    0.14577356679414144    0.09211421906362939    0.06317217423895165    
  0.047735440917579704    0.039325283002046255    0.0347174025399582    0.03243601948264651    0.031735672795185896    
  0.03243602423952315    0.03471738885025921    0.03932527906995508    0.04773543338981607    0.0631721586318381    
  0.09211418930367227    0.1457735353120433    0.23761931698640756    0.35667820535391315    0.40748091280082627    
  0.3102547518625184    0.20375501288355735    0.2038375033519554    0.31055042274345107    0.40787663590605044    
  0.35681060954304783    0.2374518043453109    0.1454428863114056    0.09168049162654764    0.06265010332039113    
  0.04712999358669242    0.038643319024004766    0.033973602402812386    0.031650088898317545    0.030935276039446895    
  0.03416337768425789    0.03506790345833244    0.037919371922849276    0.04331139848376458    0.05239658797289814    
  0.06754582805887728    0.09347606797790278    0.1378107373496685    0.2096677056914013    0.3082687691753055    
  0.3946158796200153    0.4082943101359156    0.3748836002608437    0.37459556418323603    0.4074808932502569    
  0.3936028989844036    0.307475227984831    0.20922610780273748    0.13766063197285056    0.09352876048287488    
  0.06773620911093951    0.05268575501239872    0.04367238269531071    0.038331159888962935    0.03550981595357621    
  0.034615399631249495    0.03550982057504536    0.03833115356491834    0.043672371888111385    0.05268575325051809    
  0.06773619848688979    0.09352874287601882    0.13766057540901763    0.20922607500103332    0.3074752183638883    
  0.39360281074081543    0.4074808684565808    0.37459558814743704    0.37488358092890406    0.40829427420346814    
  0.3946159458263913    0.3082688202455365    0.20966777382502974    0.1378107708105299    0.09347609852659836    
  0.06754583298263625    0.0523965863756141    0.04331138599284417    0.03791937719739676    0.03506790313287678    
  0.03416337768425789    0.040239390430824404    0.04135817734728968    0.04481161038444311    0.05095667795631769    
  0.06045300015782293    0.07454854080631426    0.09584666616640687    0.12836301413993736    0.17630126764183657    
  0.2401387554921191    0.3083910553595038    0.3574532277802986    0.3763563626461346    0.376043869096371    
  0.3566782322970617    0.30747529100239573    0.23931759955009613    0.17567586538537985    0.12794883429915271    
  0.09561442219562634    0.07445647203912281    0.06046168762898622    0.05103355346942914    0.04493028701091976    
  0.041499380833061185    0.04038754590226332    0.04149938245068983    0.04493026770746902    0.05103355907148415    
  0.060461672133178136    0.0744564696062235    0.09561439754185151    0.12794881277607406    0.17567582257619233    
  0.23931755795420312    0.30747523372577484    0.35667820929426775    0.3760438399547665    0.3763563668635304    
  0.35745325733179284    0.30839111286014753    0.24013879449157727    0.17630131224449275    0.12836301057771252    
  0.0958466411397717    0.07454855735418746    0.06045298521727434    0.05095668198932396    0.04481161990752801    
  0.04135816470967082    0.040239390430824404    0.05161844543996118    0.052826874070409174    0.056531591559904344    
  0.06281150152135255    0.07169927219861987    0.0833660518912254    0.09846936636024671    0.11844470130115933    
  0.1445487998304605    0.17621543172102616    0.209744909658159    0.2379950809816755    0.25364489682880625    
  0.2535096504471056    0.23761933342658975    0.20922610705754657    0.17567585876056194    0.14407011872477338    
  0.11805360842835179    0.09816299045751449    0.08313234149732478    0.071523524629685    0.06267805504316874    
  0.056426115882950746    0.052736455081497303    0.05153280771036648    0.052736464471838766    0.05642608906107974    
  0.06267806302153701    0.07152349722724392    0.08313234753642176    0.09816299426273319    0.11805357993569206    
  0.1440701059520882    0.1756758208217571    0.20922609059418235    0.23761929904488813    0.2535096491273138    
  0.2536449075844024    0.23799509833620988    0.20974492953023346    0.17621545141846695    0.14454882321048518    
  0.11844471802814888    0.09846936582434952    0.08336604927995966    0.07169928321515245    0.06281150157140994    
  0.0565316014766301    0.052826870742391896    0.05161844543996118    0.07367166363528309    0.07451195096608766    
  0.07713322334655451    0.08144941531084708    0.08711235787739341    0.09380724916044304    0.1011684090108969    
  0.10919420294094533    0.11826194053271756    0.1281465025334009    0.1378237195255819    0.1458795936006083    
  0.15055608009513355    0.15051939330936137    0.14577356597841    0.13766064802924854    0.12794882480697972    
  0.11805361868250085    0.10899111313661967    0.10097551526283223    0.09362135676321341    0.0869282773167235    
  0.08126241156815629    0.07694027647367502    0.07431376173657757    0.07347124209171274    0.07431377797162697    
  0.0769402653225774    0.0812624062317275    0.08692828871331927    0.09362132561815696    0.1009755070684709    
  0.10899109977883938    0.11805359572939683    0.12794879957033606    0.13766060102281721    0.14577354673252105    
  0.15051936141646377    0.1505560849357381    0.145879627864485    0.13782370329697982    0.12814652850385777    
  0.11826192451903693    0.10919423373416812    0.10116839810113094    0.09380724882027426    0.08711236161694755    
  0.08144941956120019    0.07713323540161343    0.07451193235232442    0.07367166363528309    0.11672278267838436    
  0.11596814620670337    0.11406961281351138    0.1115948181362777    0.1088541660248369    0.10617595072959699    
  0.10363789894603548    0.10093960600952538    0.09812208214888017    0.0955805884649694    0.09350923963745922    
  0.09210799752669738    0.09150871001892862    0.09150951500425933    0.09211420629472147    0.09352876567290305    
  0.09561441782380166    0.09816297821571571    0.10097552117042301    0.10365620958139057    0.10616765038763971    
  0.108813107687927    0.11151897795351773    0.11396318046430057    0.11583971511752082    0.11658657188174701    
  0.11583972566746206    0.11396311688869587    0.11151896700301807    0.10881310453228268    0.10616763298483461    
  0.10365618811139851    0.10097552401871761    0.09816298790073609    0.09561441406208104    0.0935287507327107    
  0.09211420098725633    0.0915095237200166    0.09150870530042814    0.09210799750870602    0.09350925160409451    
  0.09558059122599567    0.09812207593187575    0.10093960887276264    0.10363789083614001    0.10617596833710617    
  0.10885416009187657    0.11159482620944881    0.11406964470680316    0.11596813269144687    0.11672278267838436    
  0.19718000005720587    0.19222599745670793    0.17856883826839792    0.15972312424639473    0.13970325390742763    
  0.12133686752304718    0.10596498453037387    0.09343397175296154    0.0829730049836055    0.07433378462114511    
  0.06765157709634297    0.06312303337765707    0.06090381420008474    0.060919701180049295    0.06317217502227172    
  0.06773620823020596    0.07445645301819422    0.08313234732513426    0.09362134007239803    0.10616761097545786    
  0.12154067232822846    0.13989741784102727    0.159900868507846    0.17872815725366395    0.19237166405215333    