#     DFTpy    
  CRYSTAL 
    
  PRIMVEC    
  1.8383293168011556    -3.184079777742984    0.0    
  1.8383293168011556    3.184079777742984    0.0    
  0.0    0.0    6.215543820689656    
  PRIMCOORD    
  2    1    
  Si    1.8383293168011556    1.061359925914328    1.553885955172414    
  Si    1.8383293168011559    -1.061359925914328    4.661657865517241    
  BEGIN_BLOCK_DATAGRID_3D    
  3d_datagrid_density    
  BEGIN_DATAGRID_3D#0    
  17    17    27    
  0.0    0.0    0.0    
  1.8383293168011556    -3.184079777742984    0.0    
  1.8383293168011556    3.184079777742984    0.0    
  0.0    0.0    6.215543820689656    
  0.020503472156064653    0.02111326151718582    0.022992977704316648    0.026225055252673008    0.0307622779640954    
  0.03622667863750267    0.041765759662951644    0.04601819112476546    0.04761458722037095    0.04601819195538406    
  0.0417657564672377    0.03622668206889961    0.03076228015074793    0.02622505527652752    0.022992976522998216    
  0.021113261928081536    0.020503472156064653    0.0211132553627957    0.02111358706628455    0.0223610898036147    
  0.02494306971436861    0.028921753185100405    0.034130303375642455    0.03995489793131821    0.04520190701706382    
  0.04834487142831113    0.04834391782837424    0.045202014818074995    0.03995518147192026    0.03413053279412952    
  0.02892149566595057    0.024942969517549762    0.02236150235473977    0.0211132553627957    0.022992976339881042    
  0.02236108961955656    0.02299291948136204    0.024943582445843406    0.02833811124015335    0.03321664798807028    
  0.03924279420594367    0.04542868352396202    0.050172143957148405    0.05195468169210563    0.050172925728705714    
  0.045428164004551005    0.03924265480532921    0.03321637299465249    0.02833876292869985    0.024942973285204322    
  0.022992976339881042    0.02622505305266989    0.02494306870499652    0.024943585002134318    0.02622418677681641    
  0.028922082409768436    0.03321592239958499    0.03906706912015485    0.0458236956266865    0.05203444678634985    
  0.05581268989920817    0.05581262722245563    0.05203412634891355    0.04582432829773245    0.039066938381275416    
  0.03321637328964186    0.028921495517169344    0.02622505305266989    0.030762273027332615    0.02892175291684547    
  0.028338110041887486    0.028922079475745027    0.030762149854585887    0.034130882158463084    0.039242858018097716    
  0.04582490373400517    0.05279760007330069    0.05830988914393855    0.0604290768806282    0.05830947584268489    
  0.05279816075158835    0.04582433740497818    0.039242655285108625    0.0341305327990555    0.030762273027332615    
  0.03622667401722805    0.03413031296992927    0.033216649605251766    0.03321592772378343    0.03413088327944334    
  0.036226422666132685    0.03995449965252118    0.04542792472989055    0.05203417862293799    0.05830978086377758    
  0.06221346961061575    0.062214276995237884    0.0583094676472543    0.05203412708259501    0.045428173753983725    
  0.03995519080921266    0.03622667401722805    0.04176575604101284    0.03995490241426877    0.03924280142650528    
  0.03906706863990123    0.03924285507251652    0.0399544914072093    0.041766937036981575    0.04520222506044202    
  0.05017312351802674    0.055812388908821446    0.06042970754153605    0.06221347753870034    0.060429075484502305    
  0.055812629991707885    0.05017292734836085    0.045202019807833886    0.04176575604101284    0.046018181256685414    
  0.045201915744555274    0.04542867428314481    0.04582369618966801    0.04582491503363734    0.04542792105743323    
  0.04520222396222616    0.04601714461922087    0.048344638852793824    0.05195430916309453    0.05581239368862631    
  0.058309766133700126    0.05830988715547075    0.05581269476291797    0.05195467264589124    0.04834391891719506    
  0.046018181256685414    0.04761459215998206    0.04834487305535583    0.05017213741122093    0.052034445483762466    
  0.05279759843732698    0.05203418347845267    0.050173116582129126    0.04834462610647764    0.04761512318636758    
  0.04834463402853412    0.05017311807925558    0.052034177842857215    0.05279760465616473    0.05203443296993551    
  0.050172144986999484    0.04834486687195716    0.04761459215998206    0.04601817892937248    0.048343925079101    
  0.05195468574370041    0.055812692007857455    0.05830988510182271    0.05830978445270885    0.05581238813212422    
  0.0519543121648081    0.048344631178058296    0.04601714404141648    0.04520222270374292    0.045427930232936904    
  0.04582492392107083    0.04582369659120884    0.04542868044846161    0.04520191600653411    0.04601817892937248    
  0.04176574755124406    0.04520202502543467    0.05017292854111777    0.055812615741013455    0.060429069013244054    
  0.06221347743695132    0.060429708809591094    0.05581238473424572    0.05017311644028996    0.04520222857342255    
  0.041766931156596646    0.039954492631029445    0.03924285999209558    0.03906707348706628    0.03924279857482498    
  0.03995489955384561    0.04176574755124406    0.03622667803750844    0.03995518742338421    0.04542816454701539    
  0.052034133950740816    0.058309469463545406    0.06221427812980377    0.06221347105356026    0.05830977051262625    
  0.05203418078533554    0.04542792524111762    0.039954497195101434    0.036226417646874454    0.034130882921642465    
  0.03321592572505477    0.03321664817550367    0.03413030391263551    0.03622667803750844    0.030762274652255908    
  0.0341305373466822    0.03924265391138739    0.04582434177883668    0.052798160255618405    0.05830947282110812    
  0.0604290740408645    0.058309878460257265    0.052797598148061065    0.045824909865141865    0.03924285490832566    
  0.03413087732319721    0.030762148046075098    0.02892207567519305    0.02833811471140083    0.02892175703555998    
  0.030762274652255908    0.026225051951954004    0.028921498674711534    0.03321637186496248    0.03906693371736533    
  0.04582433723344579    0.05203413242927648    0.055812629443936224    0.05581268477859462    0.05203444084091778    
  0.0458236952747887    0.03906707100519969    0.03321593268715952    0.028922083758061278    0.026224181713197573    
  0.024943586646278743    0.024943071111365633    0.026225051951954004    0.022992974689040605    0.024942969310569583    
  0.0283387657415924    0.03321637118749222    0.03924264870240289    0.04542816435181865    0.050172927640491506    
  0.05195468542536997    0.05017214188522064    0.04542868698299591    0.03924279452564222    0.033216648151043277    
  0.028338121843996738    0.024943585677151547    0.022992918553990615    0.02236109078527579    0.022992974689040605    
  0.021113262057537927    0.02236149694019128    0.024942969292124854    0.028921494482106645    0.03413052650793128    
  0.03995518519116098    0.04520201625930863    0.048343916539757455    0.04834487164746078    0.045201914813020196    
  0.039954896586044376    0.034130296250834295    0.028921753123326097    0.024943067888734606    0.0223610847795794    
  0.021113582629719786    0.021113262057537927    0.020503472156064653    0.02111326151718582    0.022992977704316648    
  0.026225055252673008    0.0307622779640954    0.03622667863750267    0.041765759662951644    0.04601819112476546    
  0.04761458722037095    0.04601819195538406    0.0417657564672377    0.03622668206889961    0.03076228015074793    
  0.02622505527652752    0.022992976522998216    0.021113261928081536    0.020503472156064653    0.02111178672710698    
  0.02182445694057543    0.024009902490803543    0.02779519604571161    0.0332115713564179    0.03986038407527158    
  0.04667271241467031    0.05192571119238577    0.05391079093676539    0.05192657789156093    0.046672528589617145    
  0.039860799440575516    0.03321188336685444    0.027795049870749808    0.024009361784566065    0.021824215889609155    
  0.02111178672710698    0.021824210134199728    0.02182400937684579    0.022886554503376406    0.025111359521924802    
  0.02855170991665317    0.033077021373247056    0.038166151210919215    0.04274900932105869    0.04547476378008485    
  0.04547439889079656    0.04274799345568912    0.038166532690308244    0.03307649636993678    0.028551727031628147    
  0.02511159310045242    0.022886941187818758    0.021824210134199728    0.02400936227708441    0.023672116623655235    
  0.024009800836589226    0.02511163038054619    0.027100976986187658    0.029996308282484684    0.03360425605213578    
  0.03732360063630288    0.0401679985192458    0.041231885274389486    0.04016875580517618    0.03732402824311351    
  0.03360406625541155    0.02999647029088099    0.02710079529196091    0.025111595814496946    0.02400936227708441    
  0.027795048869887654    0.027513492690364752    0.027512942943833017    0.0277951822405578    0.028551687559779035    
  0.02999651817882002    0.032187673578611777    0.034868804690967356    0.0374028325356606    0.038967872783222744    
  0.03896734616505289    0.03740263483372695    0.03486821711240084    0.032188190718825345    0.029996467509075843    
  0.028551726726850524    0.027795048869887654    0.03321187887123562    0.03359315702470047    0.033776669122564516    
  0.03359320693440374    0.03321166830580964    0.03307642804378331    0.033604658147621036    0.03486827516176675    
  0.03655241510743818    0.03802525085099894    0.038613309783500104    0.038025153279601376    0.03655302104865055    
  0.034868219049816976    0.03360406863514074    0.03307649460915091    0.03321187887123562    0.03986079620304599    
  0.04181876194592878    0.04311265102629403    0.04311291124398594    0.04181932616184672    0.039860820844240516    
  0.038166596589157664    0.037323298112548794    0.03740345312434099    0.0380247130994937    0.038552968675219575    
  0.038552621448622405    0.03802515103776907    0.03740264057513263    0.03732403049377757    0.03816654089538541    
  0.03986079620304599    0.046672530133295025    0.05123563059000651    0.05502108777437682    0.05649440000176175    
  0.05502036385452311    0.05123519962320858    0.04667277932558874    0.04274823156161935    0.04016871490533903    
  0.03896754112058507    0.03861368672624855    0.03855296275211562    0.038613310654915876    0.03896734753553269    
  0.0401687582418077    0.04274800071221363    0.046672530133295025    0.051926568412487675    0.05987882766546649    
  0.06755714220140503    0.07239447505548735    0.0723954175249964    0.06755762039594503    0.059879399112265516    
  0.05192629958438327    0.045475208607015774    0.041231289980669994    0.038967550162182    0.03802469845346392    
  0.03802525276809035    0.038967871263498724    0.041231876875193765    0.045474407287427084    0.051926568412487675    
  0.053910795931508416    0.06516935240161757    0.07743592909831047    0.08735432983237817    0.09122093668543156    
  0.08735408929380228    0.07743496661037598    0.06516987113094509    0.05390976338205442    0.04547520839887431    
  0.04016870381264693    0.037403453166186165    0.03655242057301777    0.037402827362623334    0.040167989970622646    
  0.04547476102613966    0.053910795931508416    0.05192570151496415    0.06516945123918512    0.08123102342507249    
  0.09662009849778071    0.10630657326953646    0.10630654735853223    0.09662057533139955    0.08123140926721589    
  0.06516988375534256    0.051926299545170966    0.042748237382710316    0.03732329460767628    0.03486828664372084    
  0.0348688016496344    0.03732359615127844    0.04274901521357758    0.05192570151496415    0.046672701295596565    
  0.05987927609544431    0.0774357786163179    0.09662054955976583    0.11213526369701389    0.11817996524695269    
  0.11213511299446083    0.09662057110065034    0.07743498318084935    0.05987939591037598    0.0466727711937845    
  0.038166584664133765    0.03360465877975532    0.03218768146408999    0.033604256766560876    0.03816615194852791    
  0.046672701295596565    0.0398603834970551    0.05123577549641103    0.06755709843208636    0.08735379261367489    
  0.10630726070119194    0.11817913364244904    0.11817995473473666    0.10630655068917796    0.08735407984157934    
  0.06755762309094163    0.05123520347498368    0.039860817138346744    0.03307643199387779    0.02999651727318299    
  0.029996308993342404    0.03307702530001613    0.0398603834970551    0.03321156939289751    0.04181938582694739    
  0.05502031055243824    0.07239617282480725    0.09121996512706473    0.1063072654923581    0.11213526435474952    
  0.10630656775348347    0.09122094243579035    0.07239541978701422    0.05502036213090818    0.04181932131020384    
  0.03321167099620385    0.0285516869431904    0.02710097935663261    0.028551708361471514    0.03321156939289751    
  0.027795191146783527    0.03359293407755519    0.043113364598799976    0.056493217149712366    0.07239616521394297    
  0.08735379446574179    0.09662055433770919    0.09662009747879755    0.08735432613390864    0.07239446902103366    
  0.05649439935645265    0.043112914500990085    0.03359321383818621    0.027795181478519445    0.025111635828404137    
  0.0251113618574411    0.027795191146783527    0.024009898156377017    0.02751350086602795    0.03377632447744784    
  0.04311336386323326    0.055020307746975174    0.06755710593510468    0.0774357808237898    0.08123102745975506    
  0.07743593597572114    0.06755715419191663    0.055021085366214306    0.04311264359753695    0.03377668193866395    
  0.02751294246960264    0.024009801004875174    0.02288655613897822    0.024009898156377017    0.02182445367359314    
  0.023671239713268618    0.02751349982705733    0.033592931516272684    0.041819371417159204    0.051235777602929126    
  0.05987926705681204    0.06516943554212033    0.06516935326074713    0.05987882710289117    0.05123563043856151    
  0.041818744483522005    0.03359315696750021    0.02751349229890045    0.023672114229336426    0.021824004330255643    
  0.02182445367359314    0.02111178672710698    0.02182445694057543    0.024009902490803543    0.02779519604571161    
  0.0332115713564179    0.03986038407527158    0.04667271241467031    0.05192571119238577    0.05391079093676539    
  0.05192657789156093    0.046672528589617145    0.039860799440575516    0.03321188336685444    0.027795049870749808    
  0.024009361784566065    0.021824215889609155    0.02111178672710698    0.022858610049875525    0.023862629954759677    
  0.026989145186676673    0.03254484328201186    0.040781164365787624    0.051257978713850356    0.062270181423865326    
  0.07090525005019002    0.07420603752859939    0.07090567780891892    0.06227010467599514    0.05125845794029115    
  0.040780331357620665    0.03254509067069251    0.026988631469926087    0.023862661238159163    0.022858610049875525    
  0.02386265172306807    0.023862876620406762    0.025112505264582884    0.02773116518171985    0.031874231413232236    
  0.037487277344712515    0.043953992996845284    0.049880171378610796    0.053474902464010036    0.053474575392826615    
  0.049880621177999206    0.043952867614035274    0.037487786486173076    0.031874334547008665    0.02773147158908946    
  0.025112617374146162    0.02386265172306807    0.026988631909966435    0.02677360396049288    0.0269884522183164    
  0.02773163549546655    0.02920017518275906    0.03153147123512437    0.03460423492001807    0.03788478829765639    
  0.04046505242650721    0.04145126062391311    0.040465059939635166    0.03788490626068613    0.03460466872279431    
  0.03153091961745436    0.02919996963806046    0.02773147432167193    0.026988631909966435    0.03254508905812438    
  0.033065162241892786    0.03306537316645825    0.032545171815331383    0.0318741992741714    0.031530582307816565    
  0.03180376428130483    0.0326329356154975    0.03365338894140069    0.034353143737197916    0.0343529773419298    
  0.033653253946967304    0.03263270603534529    0.031803948146086274    0.03153091574772938    0.03187433806811713    
  0.03254508905812438    0.04078032769046333    0.04346828405229452    0.044506471228432945    0.043467952668796044    
  0.04078054425435207    0.03748796977295161    0.034604815367194126    0.03263303483571687    0.03157299555806008    
  0.03114474639211198    0.031044019477467197    0.031144988124276046    0.03157314314318661    0.032632709051474966    
  0.03460465824793377    0.037487785874534385    0.04078032769046333    0.051258458424076815    0.05817818331904714    
  0.062463839657851725    0.06246399949037902    0.05817854370185444    0.051257915007829266    0.043953651167332    
  0.037884310135695175    0.033653221833876555    0.031145163641973943    0.030008439111556415    0.03000813043244649    
  0.031144989950944817    0.03365326531829938    0.03788490671328346    0.04395287172577115    0.051258458424076815    
  0.062270096284056636    0.0756863770070159    0.08646983802429935    0.09065496018039716    0.08647013784296333    
  0.07568603423643305    0.06227013801618226    0.04988021963726438    0.04046600127334591    0.034352904363830546    
  0.031043859716848306    0.030008443525871637    0.03104401786336791    0.034352983920958674    0.04046505202450862    
  0.04988062714822712    0.062270096284056636    0.0709056762432004    0.09219724993741724    0.11270407215547716    
  0.12564885046027743    0.12564775025612254    0.11270521279965612    0.09219790991332356    0.07090623021811368    
  0.05347430075104824    0.04145117026297329    0.034352898474374956    0.03114514431738944    0.031144748159133012    
  0.03435314410543855    0.04145125405727515    0.053474574962837994    0.0709056762432004    0.07420605585468304    
  0.10248809832358541    0.13389523884588855    0.15942146207352859    0.16938082340818844    0.15942091963317553    
  0.13389408029936617    0.1024877444513361    0.07420667612287582    0.05347430618839501    0.04046599850613869    
  0.03365321847543995    0.03157299793326156    0.033653386474054144    0.040465046247105736    0.05347489613946746    
  0.07420605585468304    0.07090523437727307    0.10248841557612975    0.14215019924786976    0.18056595876239998    
  0.2046007001438275    0.204602243152949    0.18056642644072476    0.1421510368568214    0.10248775847794246    
  0.07090622683152965    0.04988022276488003    0.037884312791941856    0.032633044219602114    0.03263294018289559    
  0.0378847844925178    0.04988017281708406    0.07090523437727307    0.06227017457337465    0.0921984807123502    
  0.13389455405380216    0.18056593187828565    0.2181546034703088    0.23262856207981977    0.21815289279247066    
  0.18056643252151924    0.13389409557512455    0.09219791313731776    0.06227013064888847    0.043953639484533846    
  0.034604816451126154    0.03180376932239478    0.034604232119776    0.043953993729208996    0.06227017457337465    
  0.0512579795428076    0.07568578747272406    0.11270434366111401    0.15942222685133617    0.20460142945776397    
  0.23262956381325495    0.2326285458310262    0.20460224092514348    0.1594209229508474    0.11270521276670967    
  0.07568604299537751    0.05125790823612782    0.03748797036603551    0.0315305837777333    0.03153147448982791    
  0.037487279540847226    0.0512579795428076    0.040781159185408804    0.0581780619086619    0.08647136366283516    
  0.12564775051636967    0.16938135057207657    0.20460142851864557    0.21815459520054473    0.20460070268988698    
  0.16938082338382396    0.1256477488818239    0.08647013290541676    0.05817853779470515    0.040780545556950744    
  0.03187419898142499    0.029200173820913326    0.031874228592520204    0.040781159185408804    0.03254483386927078    
  0.043468297616520345    0.06246315706066333    0.09065593125727563    0.1256477446915007    0.15942223031434616    
  0.18056593736535906    0.1805659609444965    0.1594214584638992    0.12564884517680097    0.09065495202904925    
  0.062463996099004236    0.043467965889122245    0.032545172520510014    0.027731638181296585    0.02773116740598035    
  0.03254483386927078    0.026989138239962844    0.03306501453981264    0.04450729292769867    0.062463154135297634    
  0.08647136532302376    0.11270435009085923    0.1338945572255802    0.14215020791311017    0.13389524563480076    
  0.11270408239435781    0.08646983000308807    0.062463824992676185    0.044506482025788725    0.033065371079943034    
  0.026988453641595477    0.02511250945467571    0.026989138239962844    0.023862627494781158    0.026773360247523015    
  0.0330650105611554    0.043468299772319224    0.05817805192822367    0.07568578896830395    0.09219846881328247    
  0.10248839754830677    0.10248809342101323    0.0921972435995389    0.07568636662660086    0.05817816575390809    
  0.04346827916242111    0.03306516601519122    0.026773598882809876    0.02386287276037253    0.023862627494781158    
  0.022858610049875525    0.023862629954759677    0.026989145186676673    0.03254484328201186    0.040781164365787624    
  0.051257978713850356    0.062270181423865326    0.07090525005019002    0.07420603752859939    0.07090567780891892    
  0.06227010467599514    0.05125845794029115    0.040780331357620665    0.03254509067069251    0.026988631469926087    
  0.023862661238159163    0.022858610049875525    0.025504053568449186    0.026955968162078014    0.03161956879679517    
  0.040243009200365915    0.05349589657335842    0.07096064899270543    0.08988341369139144    0.10503894999264969    
  0.11089974288310095    0.10503917669798514    0.08988296550270383    0.07096049687589767    0.053495840508308155    
  0.04024290043478899    0.03161989189425757    0.02695605095400377    0.025504053568449186    0.0269560452376584    
  0.02695604690541679    0.02866441595614749    0.032325510880709424    0.038300781848700255    0.04662645798553738    
  0.0564314320867041    0.06562235550161497    0.07131524301293363    0.07131695830943148    0.06562156940598536    
  0.05643207719420215    0.046626110023154164    0.03830099080563639    0.032325284409722696    0.02866431684749192    
  0.0269560452376584    0.03161989534889314    0.0314206491344427    0.031619978261549844    0.032325120953115315    
  0.03387702887239784    0.03657588050127565    0.040305427059069504    0.044404672456556056    0.047717791257420976    
  0.0490015100356724    0.04771702453284133    0.04440493861051793    0.040304895677419995    0.03657604964781956    
  0.03387700396727951    0.032325288628857196    0.03161989534889314    0.04024290156642036    0.04151893137971475    
  0.04151897255682118    0.040243041042137724    0.03830065212503564    0.03657659491512117    0.035633605598144776    
  0.03554116678279852    0.035965384534952564    0.036368902289763895    0.03636893891102916    0.03596574272547402    
  0.0355410211080441    0.0356341511975315    0.036576046677911964    0.0383009934825371    0.04024290156642036    
  0.053495833946753564    0.058993972306209605    0.061110532982001954    0.05899367700443982    0.053496411768036295    
  0.04662605401758538    0.040305171515276725    0.035540855723180144    0.032493146006320445    0.030876974535250016    
  0.0303796295614965    0.030877100853656966    0.03249258930042547    0.03554102128678926    0.0403048840042068    
  0.04662610676085062    0.053495833946753564    0.07096048946455134    0.08480993133538783    0.0934428640067625    
  0.09344394297931298    0.08480884795303581    0.07096084160611796    0.056431545366108206    0.044405375370152274    
  0.0359654660393499    0.03087707828925523    0.028548110716886857    0.028547979456663555    0.030877106015482353    
  0.03596575683828901    0.04440494630268354    0.05643208084211394    0.07096048946455134    0.08988294932336778    
  0.11676851726712448    0.13860609428566492    0.14710372419885356    0.1386065345249695    0.11676931730269957    
  0.08988305312974293    0.06562209290828039    0.04771729801289745    0.03636906993083096    0.030379523151430034    
  0.028548112445813165    0.030379629192395844    0.03636894802399944    0.047717017246639036    0.06562158380232568    
  0.08988294932336778    0.10503916733031719    0.1476210067666136    0.18906449511414722    0.2150270140647413    
  0.21502644987225164    0.1890656668698241    0.14762065376342126    0.10503958420209217    0.07131583098584211    
  0.04900186984292102    0.03636906153016787    0.03087705357336724    0.030876982730150132    0.036368900137467304    
  0.04900150642397405    0.07131694873285463    0.10503916733031719    0.11089976264833386    0.16696556081230973    
  0.22955103354725012    0.27872761842535165    0.29715265452708095    0.27872651522733394    0.2295514110744497    
  0.16696580505794711    0.11090146704368721    0.07131582484006126    0.04771729593487269    0.035965462179329215    
  0.032493151195676646    0.035965380742047776    0.047717786056312626    0.07131523421432977    0.11089976264833386    
  0.10503892342995513    0.16696827926449653    0.2450706340721954    0.3162889600294919    0.35635408489144815    
  0.3563537568583725    0.31628828541429693    0.24507129824247703    0.16696581879352038    0.10503959021881086    
  0.06562209838634453    0.04440538136482376    0.03554086712558476    0.035541174281502594    0.044404667970543724    
  0.06562235533734284    0.10503892342995513    0.08988341390329557    0.1476201995806527    0.22955138424752236    
  0.31628956129172964    0.3766583753537671    0.39655934824115535    0.3766589144276982    0.3162883025852779    
  0.22955142932041492    0.14762066216460853    0.08988304567791072    0.056431536635603116    0.04030517525562779    
  0.03563360938594706    0.040305423793973616    0.05643143603412739    0.08988341390329557    0.07096065548164264    
  0.11676919569471034    0.18906561204494715    0.27872931310401344    0.3563538920023774    0.39656236128132777    
  0.39655932254319964    0.3563537271345376    0.2787264822986509    0.1890656749169577    0.1167693361290342    
  0.07096083137981248    0.04662606304299978    0.03657659476777001    0.03657587595849636    0.046626466065301506    
  0.07096065548164264    0.053495894706662224    0.08480955730921151    0.13860643153489574    0.21502747969454994    
  0.2971531001820659    0.3563539358023083    0.37665840215780383    0.356354066778485    0.29715266602403956    
  0.2150264528606136    0.13860654178805726    0.08480884440049741    0.05349641246615932    0.038300653080861065    
  0.03387702465245528    0.03830078487283897    0.053495894706662224    0.04024300285091633    0.05899439986299046    
  0.09344347730925363    0.14710550442645925    0.2150274666082315    0.2787293071501356    0.31628955609304243    
  0.31628895917415595    0.2787275849649957    0.21502700887027357    0.14710371711278575    0.09344393816498264    
  0.05899368787426867    0.040243039584692976    0.032325121682053995    0.032325512866549985    0.04024300285091633    
  0.03161956445809487    0.04151905960599656    0.061109848275142    0.0934434676375874    0.13860643900525532    
  0.18906562291557003    0.22955138453067267    0.24507064307998652    0.2295510176705162    0.18906451465015334    
  0.13860608166300017    0.09344285239710516    0.061110548265664005    0.04151897004627475    0.03161998056685546    
  0.028664419075409335    0.03161956445809487    0.02695596078018074    0.031421079918005676    0.041519058359535864    
  0.058994393687339046    0.08480953875825135    0.11676919890422786    0.14762017144514014    0.16696825399636073    
  0.16696554167674513    0.14762099820384453    0.11676850991525278    0.084809908207349    0.05899397060658185    
  0.041518935075360155    0.03142064411708833    0.02695604150758628    0.02695596078018074    0.025504053568449186    
  0.026955968162078014    0.03161956879679517    0.040243009200365915    0.05349589657335842    0.07096064899270543    
  0.08988341369139144    0.10503894999264969    0.11089974288310095    0.10503917669798514    0.08988296550270383    
  0.07096049687589767    0.053495840508308155    0.04024290043478899    0.03161989189425757    0.02695605095400377    
  0.025504053568449186    0.028525183439316894    0.030540107359287392    0.037155700883120174    0.04978406799747399    
  0.06984012112311694    0.09714320754787537    0.12746246640494066    0.15204811118089798    0.16160339820043493    
  0.15204881705754064    0.12745331856580128    0.09714244983328214    0.06984375539236252    0.049783610335487706    
  0.03715571969021543    0.030540096809647126    0.028525183439316894    0.03054008897331848    0.030539890021738368    
  0.032887601049326476    0.038034202064412985    0.04665014638165196    0.05894452981981974    0.0737342706985127    
  0.08783679288171578    0.09665521133737294    0.09665461801035587    0.08783502908818636    0.07374194012944917    
  0.058943789433625576    0.046647802436652355    0.038033605279171434    0.03288823160513259    0.03054008897331848    
  0.03715571772753989    0.03691678985732685    0.03715672669990465    0.0380334097317322    0.040066313641804074    
  0.043733760142820675    0.04891098210612439    0.054691294025154866    0.05939706617015134    0.06121547064160406    
  0.05939833489532577    0.05469129519848676    0.04890574634379025    0.043733941338142464    0.040069198404772126    
  0.03803361034343675    0.03715571772753989    0.04978359977468685    0.05182431722385306    0.05182314332807783    
  0.04978377696751639    0.04665039787860644    0.043734711171172926    0.041889287622298814    0.041323283884126365    
  0.041606594024522124    0.04198411294026237    0.04198333521263572    0.04160638493823069    0.04132286668838124    
  0.041893774079167105    0.04373394077844376    0.04664780780944222    0.04978359977468685    0.06984374787768546    
  0.07863719460672544    0.0820599260110769    0.07863758408513957    0.06983995192966429    0.058944353244547956    