#     DFTpy    
  CRYSTAL 
    
  PRIMVEC    
  4.070275862068965    0.0    0.0    
  0.0    4.070275862068965    0.0    
  0.0    0.0    4.070275862068965    
  PRIMCOORD    
  2    1    
  Si    0.0    0.0    0.0    
  Si    2.0351379310344826    2.0351379310344826    2.0351379310344826    
  BEGIN_BLOCK_DATAGRID_3D    
  3d_datagrid_density    
  BEGIN_DATAGRID_3D#0    
  19    19    19    
  0.0    0.0    0.0    
  4.070275862068965    0.0    0.0    
  0.0    4.070275862068965    0.0    
  0.0    0.0    4.070275862068965    
  0.08198893087832385    0.13728468379172962    0.31491717055213814    0.4417614583996493    0.35209913168096696    
  0.20573907966336158    0.11047162887149627    0.06278098451007436    0.04221714158513653    0.03659929971299438    
  0.042217142605009125    0.06278097786901635    0.11047163585554183    0.20573907412651546    0.3520990994556377    
  0.44176146949771844    0.31491720647738336    0.13728465408852986    0.08198893087832385    0.13728468747665767    
  0.19858095265976763    0.3611028481355977    0.43991399599561826    0.33334062317002655    0.19375998501964006    
  0.10513790141970746    0.06065591252348085    0.0413230491519834    0.03602205855239556    0.0413230538980624    
  0.06065591056352428    0.105137893739377    0.1937599965683558    0.3333406118087738    0.4399140257601603    
  0.3611028982150964    0.19858094562028816    0.13728468747665767    0.31491718167784133    0.361102849072389    
  0.4355633273856322    0.4055227298338849    0.2796248548783041    0.16255859965382363    0.09138201609452745    
  0.05515044698455566    0.0390325954579698    0.03455058619011538    0.03903260592349389    0.05515043008726239    
  0.09138200744104533    0.16255857520370182    0.27962483050223386    0.40552272394778716    0.43556334694693316    
  0.3611028747650025    0.31491718167784133    0.4417614391967346    0.4399139917639162    0.4055227187986301    
  0.31474661367763684    0.2065346583130521    0.12382982627049635    0.07428886262454772    0.04828897758757736    
  0.036318844749654036    0.032916974784879656    0.03631885611355296    0.04828897980518845    0.07428885822860526    
  0.12382981965868829    0.2065346899277062    0.3147466327891923    0.40552272670143813    0.4399139851921604    
  0.4417614391967346    0.35209908252021993    0.3333406508336967    0.27962483628961454    0.2065346837985449    
  0.1383589257032438    0.08899476710141384    0.05870248118520673    0.04213400211092478    0.03421153853712407    
  0.03189474929151024    0.03421154423676032    0.042133989206587646    0.05870247231112859    0.08899475528265761    
  0.13835892232804184    0.20653466439788346    0.2796248622953457    0.33334063718793516    0.35209908252021993    
  0.20573905243294888    0.19376001376546367    0.1625585847966771    0.12382981372907835    0.08899477271737631    
  0.06340637418037587    0.04708188241878097    0.03783160833317582    0.0332689213742458    0.0318946319541247    
  0.033268922355008675    0.03783158890601174    0.04708189306391187    0.0634063762157112    0.08899475644484023    
  0.12382981451764272    0.1625585972010444    0.19376002803687692    0.20573905243294888    0.1104716139435286    
  0.10513788200650141    0.09138199842008535    0.07428883977631735    0.05870247081176084    0.047081880506452595    
  0.039620257570491604    0.035468981540972055    0.033498397168293725    0.03291708076053613    0.03349840728566943    
  0.03546897026601726    0.039620256324505235    0.04708188431755177    0.05870248317143937    0.07428885351061697    
  0.09138200484546442    0.10513787706632603    0.1104716139435286    0.06278097490891846    0.06065591802506327    
  0.05515043265850315    0.048288987695008785    0.0421340038783674    0.03783159250566786    0.03546897343041241    
  0.03459105070334321    0.03450080558368733    0.03455046260868763    0.034500816544410985    0.03459104189080976    
  0.035468975369562596    0.03783159788419553    0.042134000364460404    0.048288969413135874    0.0551504409175631    
  0.0606559155302993    0.06278097490891846    0.04221714261126429    0.0413230544146172    0.03903260239970952    
  0.03631885970471928    0.034211547791007615    0.033268924766319805    0.033498408143871276    0.0345008274735149    
  0.03557369118592104    0.03602219001796391    0.03557368778008689    0.03450080268134798    0.03349841002360342    
  0.03326891701534209    0.03421154728691777    0.03631885254413444    0.039032606231721306    0.04132306149191154    
  0.04221714261126429    0.03659929561012199    0.036022062658031005    0.03455057904702869    0.03291697243385227    
  0.03189475002861552    0.03189462263503359    0.032917103666568755    0.03455046109300587    0.036022178140260416    
  0.03659917534670388    0.03602218309935553    0.034550469902236376    0.03291710979683862    0.03189462969866174    
  0.03189474658842116    0.03291697639838803    0.034550592139021216    0.03602204697688126    0.03659929561012199    
  0.0422171430077243    0.041323063795260385    0.039032606326468995    0.03631885664163339    0.0342115524933575    
  0.033268911704272416    0.03349840817744386    0.034500818959992956    0.03557369246280832    0.036022186774423544    
  0.03557369128060541    0.034500809401203265    0.033498410322699845    0.03326893384132497    0.03421155019484099    
  0.03631885216517127    0.03903261546068787    0.04132305532923549    0.0422171430077243    0.06278097635048864    
  0.0606559084139445    0.055150425495709296    0.04828898541234278    0.042134001637300814    0.03783159590909859    
  0.03546898161488068    0.0345910459244614    0.03450081536550725    0.03455047608336306    0.034500821766372244    
  0.0345910350493181    0.03546897615980145    0.03783159567359519    0.042133996428356    0.048288973904675965    
  0.05515043587083212    0.06065590874833295    0.06278097635048864    0.1104716089706128    0.10513789343351865    
  0.09138200414644061    0.07428885157340791    0.0587024678702991    0.047081889264495594    0.03962025943436169    
  0.0354689830849618    0.03349840104374492    0.03291708704428156    0.033498410223102154    0.03546897087483081    
  0.03962025777588052    0.04708188639653359    0.05870248108309851    0.07428886609152999    0.09138201278202152    
  0.10513788010927091    0.1104716089706128    0.20573907429297256    0.19376004135007685    0.16255860278249895    
  0.12382981534886102    0.08899478242068044    0.0634063855715668    0.04708188142507765    0.03783159457094521    
  0.03326891103218143    0.03189463129044254    0.03326892398913722    0.037831589731601195    0.04708187736783776    
  0.063406370879074    0.08899477162814673    0.12382981170421153    0.16255861821293877    0.1937599993179843    
  0.20573907429297256    0.3520990860199232    0.3333406464111475    0.2796248128760584    0.20653468398891078    
  0.13835892625665697    0.08899477242975673    0.058702468834458975    0.04213400982522618    0.03421154538752206    
  0.031894737599717234    0.034211542530437504    0.04213398840891878    0.058702480010241385    0.08899476362079788    
  0.13835890514007593    0.20653466697713457    0.27962486524573515    0.333340654148509    0.3520990860199232    
  0.4417614430430736    0.43991400991762186    0.4055226969525839    0.3147465858188223    0.2065346655033845    
  0.12382981364374597    0.07428885756917081    0.04828898137379049    0.03631884797338924    0.03291697066108343    
  0.03631885748584511    0.048288972389209706    0.07428886374989475    0.12382981919900389    0.20653468597033212    
  0.31474662343278287    0.40552278380489193    0.43991399243740975    0.4417614430430736    0.31491719040350147    
  0.3611029243501251    0.43556331423742356    0.40552275688665    0.27962484891186296    0.16255858823261704    
  0.09138200437289278    0.05515043812969714    0.039032597838217026    0.03455058685360762    0.03903260854173994    
  0.05515042847666162    0.0913820012282698    0.16255859547756624    0.2796248462963632    0.40552271795876116    
  0.4355633617673901    0.3611028594366723    0.31491719040350147    0.13728466758900468    0.1985809411795121    
  0.3611028536448938    0.43991397745004146    0.33334063649545564    0.19376000780055158    0.10513789664800828    
  0.06065591373487747    0.04132305548135107    0.036022059548272804    0.04132304845492201    0.06065590404349447    
  0.10513789178721834    0.19375999096542587    0.3333406271326581    0.43991400420427035    0.36110285039303747    
  0.19858093183214298    0.13728466758900468    0.08198893087832385    0.13728468379172962    0.31491717055213814    
  0.4417614583996493    0.35209913168096696    0.20573907966336158    0.11047162887149627    0.06278098451007436    
  0.04221714158513653    0.03659929971299438    0.042217142605009125    0.06278097786901635    0.11047163585554183    
  0.20573907412651546    0.3520990994556377    0.44176146949771844    0.31491720647738336    0.13728465408852986    
  0.08198893087832385    0.13728467779542125    0.19858094858300035    0.36110285886615723    0.4399139896548494    
  0.3333406569354731    0.19376000798992246    0.10513788809856317    0.060655917360347554    0.041323051318514666    
  0.03602205830775897    0.04132305183080927    0.06065590957371262    0.10513790481964606    0.1937600061441063    
  0.33334062260666    0.43991400718404355    0.3611028692660656    0.19858093323734446    0.13728467779542125    
  0.198580946706377    0.25951946471490484    0.3967469542355846    0.43252040044677725    0.3149891060313954    
  0.1826914922619962    0.10026986321574893    0.0587565937703994    0.040581065540976874    0.03557381501154387    
  0.040581070910121086    0.05875659461955655    0.10026986282315879    0.18269150965846462    0.3149891052336461    
  0.43252038206457966    0.396746942169307    0.2595194618344727    0.198580946706377    0.36110284571955487    
  0.39674692979842374    0.4414989576993201    0.3890242846457553    0.2636314316669597    0.154019147020124    
  0.08781046785776779    0.05392304300585647    0.03874156215552846    0.03450069967343544    0.038741570065831225    
  0.05392303332501928    0.08781045567140257    0.15401913333632905    0.2636313982654264    0.3890242902529244    
  0.4414990462638366    0.3967469742583273    0.36110284571955487    0.4399139724717512    0.43252036138427835    
  0.38902428318108684    0.2973843000797802    0.19527800457883332    0.11851843774547635    0.07240397955901372    
  0.04802317173368095    0.03672532753390246    0.03349852017041959    0.03672533611669381    0.04802316713087688    
  0.07240398497757636    0.1185184448451125    0.1952780327291258    0.29738430972410634    0.38902430083772593    
  0.4325203308065598    0.4399139724717512    0.3333405858068728    0.3149891281337383    0.263631409208377    
  0.1952780233668381    0.13219801113476554    0.0865582229718237    0.05839174730966496    0.04288822472255411    
  0.035447600387769486    0.03326880646657526    0.035447604735766976    0.042888209033771496    0.05839173349685807    
  0.08655821976816697    0.13219800926244035    0.19527803096702365    0.2636314511756948    0.3149891050001192    
  0.3333405858068728    0.19375999282815867    0.18269153037919034    0.15401912655537495    0.11851844119081345    
  0.08655823640981643    0.0630523088782868    0.048058579814088405    0.03959009539030057    0.035447485444194994    
  0.03421167040945492    0.03544748990459187    0.03959006840297646    0.04805859065198675    0.06305231208692134    
  0.08655822396537895    0.11851843993605377    0.1540191476107472    0.18269154928363573    0.19375999282815867    
  0.10513787023240564    0.10026985388033836    0.08781044692095824    0.07240396329514164    0.05839173606996845    
  0.04805857191196945    0.041614659197628315    0.038211132008682445    0.036725450093714265    0.03631872273215406    
  0.03672546229935884    0.038211128091088856    0.041614668244380044    0.04805858836600932    0.058391750943686156    
  0.07240398029280438    0.08781045365282177    0.1002698474944205    0.10513787023240564    0.06065590465522945    
  0.05875659580065649    0.05392302564720113    0.04802317783332809    0.0428882314314836    0.039590079827834614    
  0.03821112149864516    0.03820612685417839    0.03874143921833253    0.03903274028323309    0.038741451295270644    
  0.038206101736241165    0.03821111992091424    0.039590076971120026    0.04288822756795405    0.048023173284099545    
  0.05392304758210941    0.05875659300562776    0.06065590465522945    0.04132305051475735    0.040581068574505434    
  0.03874156905334846    0.036725339138658525    0.035447610773231907    0.03544748875636005    0.036725456040323054    
  0.03874144252449373    0.04058120140049077    0.041322928377007476    0.04058119881209967    0.0387414304855385    
  0.03672546660361729    0.03544748786152111    0.03544761336895487    0.03672533625255882    0.03874157404936432    
  0.040581075106958034    0.04132305051475735    0.03602205351797195    0.03557382099815315    0.03450069475978883    
  0.03349852123286763    0.03326880737235536    0.03421166683791894    0.03631873547519076    0.03903272068243324    
  0.04132291370525399    0.0422172794151293    0.04132291937671384    0.03903273633507758    0.03631873841927455    
  0.034211661409603654    0.03326881291987175    0.033498527145553146    0.03450070057147085    0.035573809682687564    
  0.03602205351797195    0.041323051691492405    0.040581074023902444    0.038741571714169115    0.036725334994895324    
  0.035447612445225    0.03544748141923276    0.03672546498968562    0.038741446791109434    0.04058119527493989    
  0.04132292273201058    0.04058119683132473    0.03874143398921661    0.03672546416930676    0.035447491748231204    
  0.03544761084759745    0.03672533167506827    0.038741578926014854    0.04058106701518779    0.041323051691492405    
  0.060655906752451264    0.05875658731308084    0.05392302056265924    0.04802317859153311    0.04288822529286377    
  0.039590078803300455    0.038211132390093314    0.038206118867236336    0.03874143141927255    0.03903274527872969    
  0.03874143547543043    0.03820610411314942    0.03821112194975403    0.039590074726493785    0.04288822323000692    
  0.048023177727227764    0.05392303038921923    0.05875659189320812    0.060655906752451264    0.10513787984335209    
  0.10026984631117043    0.0878104544346459    0.07240396585311042    0.058391732137524965    0.04805858390399219    
  0.04161467252320179    0.03821112840130633    0.036725446792866615    0.03631872658826132    0.03672546761636944    
  0.03821112408505398    0.0416146644030107    0.04805858735115601    0.05839174612015311    0.07240398551271371    
  0.08781046000739431    0.10026984879769539    0.10513787984335209    0.19375999226430884    0.1826915742103716    
  0.15401915061187518    0.11851845120511416    0.08655822237424032    0.06305231408407215    0.04805857564794727    
  0.0395900808976889    0.03544747692874732    0.03421168174283233    0.03544748704214425    0.03959006807552528    
  0.04805857391909125    0.06305231089911575    0.08655823398529608    0.11851844072035864    0.15401916891033332    
  0.18269152959033763    0.19375999226430884    0.33334058651053233    0.31498910832741595    0.2636314043542075    
  0.19527802428333257    0.13219801066194617    0.0865582227332832    0.05839173533222048    0.042888233202325605    
  0.03544760035469803    0.03326880119908409    0.03544761028319429    0.042888211882591815    0.058391745077208165    
  0.08655822241600855    0.13219799229055915    0.19527799552137493    0.26363141728816275    0.31498909039269046    
  0.33334058651053233    0.43991397771311486    0.4325203958267012    0.38902424280787995    0.29738429980375986    
  0.1952780103764669    0.11851844286532343    0.07240396914703283    0.04802317399230694    0.036725326501315096    
  0.0334985167228047    0.03672533527736976    0.04802316365337808    0.0724039802129572    0.11851843924820786    
  0.1952780303139235    0.2973843126005509    0.38902432561362255    0.4325203813843343    0.43991397771311486    
  0.361102860169016    0.39674704324912324    0.4414990051435261    0.38902428656643734    0.2636314279639291    
  0.15401913282730387    0.0878104541503247    0.05392302732030396    0.03874156783657874    0.034500701220290336    
  0.038741566371840376    0.05392302026482677    0.08781045676639304    0.15401914255960378    0.2636314213231669    
  0.3890242876493362    0.4414990455729351    0.3967469860972355    0.361102860169016    0.19858093126298468    
  0.2595194587070196    0.39674695644207747    0.4325203476819792    0.3149891023847618    0.18269152809940103    
  0.10026985853199973    0.05875660009779575    0.040581069256872715    0.035573819406223284    0.040581060599565996    
  0.058756581592256045    0.1002698629974624    0.18269152086861867    0.31498907371845614    0.43252038878303245    
  0.39674696122909264    0.2595194513594872    0.19858093126298468    0.13728467779542125    0.19858094858300035    
  0.36110285886615723    0.4399139896548494    0.3333406569354731    0.19376000798992246    0.10513788809856317    
  0.060655917360347554    0.041323051318514666    0.03602205830775897    0.04132305183080927    0.06065590957371262    
  0.10513790481964606    0.1937600061441063    0.33334062260666    0.43991400718404355    0.3611028692660656    
  0.19858093323734446    0.13728467779542125    0.3149171612215888    0.3611028677646169    0.4355633402426085    
  0.4055227099636903    0.27962482843597064    0.16255858919425065    0.09138200301157547    0.05515043673140942    
  0.03903260459427526    0.0345505819322704    0.039032604063446164    0.055150429148205324    0.09138201624290582    
  0.16255858390581532    0.27962483421850953    0.40552272607425927    0.43556336855301575    0.3611028193373964    
  0.3149171612215888    0.3611028497326738    0.3967469911689386    0.44149903942880014    0.38902429618108847    
  0.26363142744841067    0.15401911913644079    0.08781045766770738    0.05392303535525685    0.03874156760579754    
  0.0345006966177365    0.03874157147218086    0.0539230328707875    0.08781045292252677    0.1540191392964125    
  0.2636313972647907    0.3890242988586968    0.4414990436152524    0.3967469631284931    0.3611028497326738    
  0.43556331758499095    0.44149904044692795    0.4210173297186867    0.33428961177719546    0.22080022190060597    
  0.13205398040666264    0.07877155121282106    0.05094501573541086    0.038205982832341605    0.03459117211958481    
  0.03820598704130002    0.05094499809218137    0.07877154636222447    0.13205397561474608    0.22080020926186292    
  0.33428959713504325    0.42101738299321306    0.4414990271491132    0.43556331758499095    0.4055227233622563    
  0.38902428810971135    0.3342896109112624    0.24969289151741714    0.16609248152037456    0.10494660205632754    
  0.06776575030726449    0.04768930975028234    0.038211242199446986    0.03546884951317291    0.03821124928284918    
  0.047689306620783314    0.06776574674237468    0.10494661590201514    0.1660924994089394    0.2496929189997655    
  0.33428960208351943    0.38902426941183693    0.4055227233622563    0.27962482422944224    0.26363143138776235    
  0.22080021230421346    0.16609250445538432    0.11648216508927432    0.08051780942092306    0.05806817582803166    
  0.04559333944503802    0.0395899447395569    0.03783173077346473    0.039589951373604666    0.04559332247792244    
  0.05806817240703954    0.08051780324262255    0.1164821720310248    0.166092497393641    0.22080023287185413    
  0.26363141252284833    0.27962482422944224    0.16255856023025675    0.15401914934174624    0.1320539757405865    
  0.1049466026245503    0.08051780945096224    0.06267890724297781    0.051568083691345024    0.045593216050177396    
  0.042888352610532504    0.04213387697318169    0.04288835559684792    0.045593189403317524    0.05156808882318006    
  0.06267890536613822    0.08051779806952433    0.10494660084249582    0.13205399000442644    0.1540191631280026    
  0.16255856023025675    0.09138199363187414    0.08781045792570803    0.07877154621192728    0.06776572792968032    
  0.05806817248076089    0.05156808337743723    0.04842635585807707    0.047689456842565855    0.04802302444845557    
  0.04828910777269513    0.04802304443785254    0.04768945562014767    0.04842636571361745    0.05156808716416279    
  0.05806818378719986    0.0677657439846536    0.07877155381701556    0.08781044516921635    0.09138199363187414    
  0.05515042555155915    0.05392303457530519    0.050944999321989294    0.04768931337756402    0.04559335251300397    
  0.045593201356577316    0.04768944513607496    0.05094487624776376    0.05392317005658544    0.05515028807888782    
  0.053923185846452636    0.05094484742742922    0.04768943792900127    0.045593198186434945    0.04559334078274823    
  0.04768931199027106    0.05094501530419751    0.05392303242308425    0.05515042555155915    0.03903260210108476    
  0.03874157196523595    0.03820598314716047    0.0382112517021647    0.03958995474901717    0.04288835865631941    
  0.04802303346391265    0.05392317594128652    0.0587564324462224    0.06065607584582039    0.05875642496944363    
  0.05392316221470929    0.0480230361383892    0.042888354490918525    0.03958995882055169    0.038211254069938985    
  0.038205992562916014    0.03874157398981916    0.03903260210108476    0.03455057786191352    0.03450069864236391    
  0.03459116591501418    0.03546884962351774    0.037831728868450404    0.04213386941818367    0.048289117242346566    
  0.05515027990507919    0.06065605509978645    0.06278081794812634    0.06065606621424212    0.05515029733677147    
  0.048289133439603844    0.042133857886384345    0.037831733022576836    0.035468857602034796    0.03459117017914606    
  0.03450068959238343    0.03455057786191352    0.03903260036754677    0.038741578025227784    0.03820599110996486    
  0.03821125090305746    0.03958995378853328    0.042888348345754355    0.04802305032424157    0.053923182493037396    
  0.0587564280742321    0.060656064415128316    0.05875643548267403    0.053923174820639    0.04802303686195569    
  0.04288835565554138    0.03958995462074172    0.03821124971201118    0.03820599499303813    0.038741569715698636    
  0.03903260036754677    0.055150430159066316    0.053923026290425106    0.05094500131180975    0.04768931675559215    
  0.04559333922063789    0.04559319917739318    0.0476894475021259    0.050944853091422326    0.053923169442519264    
  0.05515027826456489    0.053923188484928865    0.05094485014045608    0.04768944811691851    0.04559319088659284    
  0.045593337961027276    0.04768930838927104    0.05094500352697695    0.05392303096718456    0.055150430159066316    
  0.09138199777264161    0.08781045500547908    0.07877155044584591    0.06776573774314505    0.058068165542853684    
  0.05156809583940724    0.048426360652320935    0.04768944505496619    0.04802302263585653    0.048289118121959    
  0.04802303499883117    0.04768944264174772    0.04842636301927174    0.05156808931865499    0.05806818287142971    
  0.0677657510239562    0.07877155311098534    0.08781044673414826    0.09138199777264161    0.16255858109120655    
  0.15401918335199985    0.13205399100864457    0.1049466091038589    0.0805178120595268    0.0626789091338951    
  0.05156808582565621    0.04559319613009149    0.04288835226084564    0.04213386741244685    0.042888355346480424    
  0.04559319305570558    0.051568080271068746    0.06267890643143777    0.08051780928600127    0.10494659876573349    
  0.1320540109549901    0.15401914640781797    0.16255858109120655    0.27962479228621634    0.26363139597445256    
  0.2208001827555269    0.16609250862555483    0.11648216245486587    0.08051780188656245    0.05806816429387274    
  0.04559334930980329    0.039589945182977745    0.03783172467111121    0.039589952512860474    0.04559332514201568    
  0.0580681829102342    0.08051780137687185    0.11648215331729792    0.16609248980822677    0.22080022554597753    
  0.2636314301835811    0.27962479228621634    0.4055227263798158    0.3890242883396523    0.3342895780303335    
  0.24969288975483492    0.16609248393409518    0.10494659800775129    0.06776573983168332    0.04768931080919572    
  0.03821124371095947    0.035468846564212314    0.038211254613264675    0.047689306405138715    0.06776575364959742    
  0.10494660289223534    0.16609249129670708    0.24969288677812873    0.33428962603083745    0.3890242805822939    
  0.4055227263798158    0.4355633361108682    0.44149910556399113    0.42101733027943966    0.33428962733915946    
  0.2208002231043842    0.13205397867771415    0.07877154486513807    0.050945002211833505    0.03820598023503653    
  0.03459116950991719    0.0382059862319341    0.05094499430429786    0.07877154596148644    0.13205398511694105    
  0.2208002138588041    0.3342896052738994    0.42101736705117804    0.441499015576029    0.4355633361108682    
  0.36110284436835927    0.3967469696591677    0.4414989845839955    0.3890242744478513    0.263631417295392    
  0.15401914153675542    0.08781046290679147    0.053923033580548355    0.038741571277359346    0.03450070026657578    
  0.03874156409816361    0.05392301966173822    0.08781045253590758    0.15401913759643693    0.2636314020160022    
  0.3890243133215195    0.44149901031398747    0.3967469471726012    0.36110284436835927    0.3149171612215888    
  0.3611028677646169    0.4355633402426085    0.4055227099636903    0.27962482843597064    0.16255858919425065    
  0.09138200301157547    0.05515043673140942    0.03903260459427526    0.0345505819322704    0.039032604063446164    
  0.055150429148205324    0.09138201624290582    0.16255858390581532    0.27962483421850953    0.40552272607425927    
  0.43556336855301575    0.3611028193373964    0.3149171612215888    0.4417613826805007    0.43991399853265944    
  0.40552267729661307    0.3147466163271256    0.2065346845447291    0.12382981013041423    0.07428885498992831    
  0.0482889805541645    0.03631884621066447    0.03291697519049843    0.03631885079442577    0.048288977379115576    
  0.0742888633102112    0.12382980609855228    0.20653465628306736    0.31474661053873165    0.4055227660673051    
  0.43991392211173846    0.4417613826805007    0.4399140308293521    0.43252040652540225    0.389024274864199    
  0.2973843070950476    0.19527803804293822    0.11851841562264645    0.07240398169862344    0.04802317216689156    
  0.036725331944669315    0.03349852277566359    0.036725338278434744    0.048023172068780304    0.07240398358807446    
  0.11851843694765589    0.19527800724497826    0.29738427632899944    0.3890243317042361    0.4325203845747942    
  0.4399140308293521    0.40552272647352827    0.38902428699600294    0.33428957544379145    0.2496928844103479    
  0.16609249987467586    0.10494660589592056    0.06776575540977364    0.04768932225280308    0.03821124346993635    
  0.03546885833729269    0.03821124678647995    0.04768930894505042    0.06776574338875666    0.10494660333204386    
  0.1660924875357978    0.24969288546577625    0.33428960923974554    0.38902433382366114    0.40552272647352827    
  0.31474659568184066    0.29738425148852754    0.2496928762527182    0.18720518719448498    0.12988154944418237    
  0.08836922094324813    0.06263392604588704    0.04842649431759242    0.04161451737404411    0.0396203736330486    
  0.04161453049758596    0.04842648605050674    0.0626339256258661    0.08836922189133545    0.12988158051780224    
  0.18720519450616482    0.2496928975481621    0.2973842691826391    0.31474659568184066    0.20653465496163845    
  0.19527802823802132    0.16609248541529215    0.12988157389923088    0.09737135692256182    0.07385258338402156    
  0.05933355449703249    0.051567948039307226    0.048058703490150394    0.047081750124822214    0.04805871009557043    
  0.051567938656761694    0.05933354475906412    0.07385257552760123    0.09737135701804511    0.12988156875409818    
  0.16609250441069182    0.19527802588640544    0.20653465496163845    0.12382980061149143    0.1185184389123519    
  0.1049465984790829    0.08836921473595523    0.0738525852778222    0.06412740665778427    0.059333388552509726    
  0.05806833677362134    0.058391581318799984    0.05870263608983509    0.05839158472981771    0.05806831226863805    
  0.059333403367364174    0.0641273992428046    0.07385257701721396    0.08836921340756443    0.10494661662654212    
  0.11851844819521269    0.12382980061149143    0.07428884769529642    0.0724039784492278    0.06776573275443439    
  0.06263391242532598    0.05933354154086787    0.05933339346971205    0.06263407912556049    0.06776558010942911    
  0.07240413674991254    0.07428867598247132    0.07240414148755811    0.06776557821445209    0.06263407948831134    
  0.05933339817950881    0.0593335538827321    0.06263392301772579    0.06776574323003146    0.0724039693199066    
  0.07428884769529642    0.0482889785279932    0.048023177079732714    0.04768930331039977    0.04842649573020962    
  0.051567955775888866    0.05806831780404217    0.06776556961877919    0.07877173047770561    0.08781025665187493    
  0.09138219302179085    0.08781027255998622    0.07877171210425439    0.06776557323351316    0.05806832186146509    
  0.05156795440925636    0.048426485432325014    0.04768931494699178    0.048023174109313206    0.0482889785279932    
  0.036318847043395906    0.036725336953363476    0.03821124181494188    0.04161453463482295    0.048058721493258884    
  0.05839159707711738    0.07240414088265056    0.087810268059915    0.10027004013494975    0.10513768957048414    
  0.1002700317279964    0.08781024107505185    0.07240414849591108    0.058391581104751074    0.04805872408512639    