#     DFTpy    
  CRYSTAL 
    
  PRIMVEC    
  5.3551034482758615    0.0    0.0    
  0.0    5.3551034482758615    0.0    
  0.0    0.0    5.3551034482758615    
  PRIMCOORD    
  8    1    
  Si    0.0    0.0    0.0    
  Si    1.3387758620689654    1.3387758620689654    1.3387758620689654    
  Si    0.0    2.6775517241379307    2.6775517241379307    
  Si    1.3387758620689654    4.016327586206896    4.016327586206896    
  Si    2.6775517241379307    0.0    2.6775517241379307    
  Si    4.016327586206896    1.3387758620689654    4.016327586206896    
  Si    2.6775517241379307    2.6775517241379307    0.0    
  Si    4.016327586206896    4.016327586206896    1.3387758620689654    
  BEGIN_BLOCK_DATAGRID_3D    
  3d_datagrid_density    
  BEGIN_DATAGRID_3D#0    
  23    23    23    
  0.0    0.0    0.0    
  5.3551034482758615    0.0    0.0    
  0.0    5.3551034482758615    0.0    
  0.0    0.0    5.3551034482758615    
  0.05562650673634881    0.10545102080614384    0.2776014287911023    0.4014586723829004    0.33008013347928006    
  0.21444873640975295    0.1358995488908909    0.09160998271002462    0.06822793598887307    0.05622219222335131    
  0.05038914396396025    0.04867765913048886    0.050389132328763436    0.05622220660521433    0.06822793220868094    
  0.09161000527813994    0.1358995725694825    0.21444871186569575    0.3300800676471252    0.40145868040546734    
  0.27760142685177086    0.1054510242559064    0.05562650673634881    0.10545103706614369    0.16447750307411102    
  0.3269435012808753    0.40886937747175417    0.32471745040089284    0.2130514368731104    0.13748256972592834    
  0.09407605304398832    0.07057018610816296    0.05822411121919833    0.052159595557454135    0.0503891310590544    
  0.052159597409987116    0.0582240908063455    0.07057019648367183    0.09407603425478213    0.13748255043258126    
  0.21305138917976055    0.3247174629174768    0.4088694050501166    0.3269435634627534    0.16447749250976548    
  0.10545103706614369    0.2776013807427879    0.3269435155811525    0.41182788858769825    0.4019268630581906    
  0.3050768551622826    0.2081035668095208    0.14165875364929084    0.10133072108198928    0.07798597487786632    
  0.06489499030827883    0.05822410864468427    0.056222215852329185    0.05822407712578164    0.06489495831380893    
  0.07798598132240912    0.1013307589019146    0.14165875130112507    0.20810354328556127    0.3050768440400799    
  0.4019268406322595    0.4118278657061695    0.3269435561689784    0.2776013807427879    0.4014586860884982    
  0.4088693635489261    0.40192688177598257    0.3481931847703802    0.2696740103461404    0.1992909849240355    
  0.14782024089831694    0.11346409893924335    0.091522186849813    0.07798597696196154    0.07057019941978916    
  0.06822793289322604    0.07057019271107896    0.0779859762393961    0.09152218402675498    0.11346409858885088    
  0.1478202697102026    0.19929100986866422    0.269674052152773    0.34819323993038365    0.4019268718665924    
  0.4088693487640597    0.4014586860884982    0.330080060414744    0.3247174538065088    0.3050768560873082    
  0.26967402953432973    0.22742011035899556    0.18799769807728242    0.15560148997451992    0.13112698611890847    
  0.11346410523333923    0.10133074534100096    0.09407606300742538    0.09160997539347256    0.0940760483886177    
  0.1013307397541014    0.11346407186656315    0.13112704656967733    0.1556014683937631    0.18799771652078404    
  0.2274200957906777    0.2696740066085105    0.3050768621232111    0.32471743181404117    0.330080060414744    
  0.21444878935319356    0.213051377359294    0.20810354441963924    0.19929100970120017    0.18799775170540975    
  0.17594128002400253    0.16486638624501357    0.15560150620952842    0.14782027675029294    0.14165877087403825    
  0.13748258024171695    0.13589957867649033    0.13748256792846672    0.1416587480556736    0.14782029162582447    
  0.1556015265011129    0.1648664017096189    0.17594124874218897    0.18799777860529496    0.1992910365701234    
  0.2081035662286458    0.2130513707032623    0.21444878935319356    0.13589958527726592    0.13748259040959374    
  0.14165872353984033    0.14782029404277727    0.15560152472231722    0.1648663749785933    0.1759413050224417    
  0.18799772459335037    0.19929101831468102    0.20810357644370475    0.21305137128351506    0.21444877730412482    
  0.2130513691515869    0.20810354720262486    0.19929097924628203    0.1879977619463858    0.17594126708506608    
  0.16486639392946464    0.1556015370960372    0.1478202670452393    0.14165875637377678    0.13748257009115208    
  0.13589958527726592    0.09161000891168114    0.09407603200116113    0.10133073466884497    0.11346409642258623    
  0.13112703014104288    0.15560149904766946    0.18799773594362576    0.22742010449243982    0.26967399811812004    
  0.30507685457510014    0.32471744564272265    0.33008012170455214    0.32471742930826464    0.3050768504550794    
  0.2696740289335386    0.2274200934799864    0.1879977604873074    0.1556014429168665    0.13112702875181023    
  0.1134640639995386    0.10133074672624726    0.09407601908129212    0.09161000891168114    0.06822792144592497    
  0.07057019958348923    0.07798597640146848    0.0915221649095068    0.11346410001410465    0.1478202439919867    
  0.199291011328039    0.26967397906336055    0.3481931870283481    0.4019268986823338    0.4088693737185032    
  0.4014587382203075    0.4088693170313238    0.4019268976328069    0.3481931552470198    0.2696740804666632    
  0.19929101098302218    0.14782027952933005    0.11346411544759169    0.09152219349215368    0.07798597632481769    
  0.07057019638136884    0.06822792144592497    0.05622222855057636    0.058224097086206295    0.06489497883502664    
  0.07798600367528986    0.10133075435587993    0.14165873166138393    0.20810358427872322    0.3050768364254042    
  0.4019268534540111    0.4118279265571831    0.326943565057551    0.27760138171814314    0.3269435111465444    
  0.4118279109400684    0.4019268507291494    0.3050768856036333    0.208103530992958    0.14165871355238713    
  0.10133076519128872    0.07798596594130545    0.06489499282006553    0.05822408891362348    0.05622222855057636    
  0.05038912141995149    0.05215960164489289    0.05822408962775899    0.07057020455101047    0.09407603361553352    
  0.13748258483691264    0.21305134769843154    0.32471748412922946    0.4088693254101289    0.3269435638399611    
  0.16447748790324326    0.10545102780888393    0.16447749468214762    0.326943564614852    0.4088693354114366    
  0.32471750176948466    0.21305138263879667    0.1374825688959326    0.09407603278862972    0.0705702335646229    
  0.05822410355582241    0.05215959965273586    0.05038912141995149    0.048677638195573206    0.05038912393782886    
  0.05622219867742191    0.06822792925426244    0.09160999890848033    0.1358995633435564    0.214448740947353    
  0.3300801183109515    0.4014586590820769    0.27760139051192456    0.10545101384353772    0.05562652689417162    
  0.10545103329866494    0.2776013955239732    0.4014586776944393    0.3300801283038842    0.2144487305906235    
  0.1358995491279259    0.09160999065439526    0.06822792122089313    0.05622222473700217    0.05038911777481222    
  0.048677638195573206    0.050389134967362297    0.052159601437885124    0.058224095997366596    0.07057021695607196    
  0.094076049576235    0.13748259026878265    0.2130513622327423    0.324717446427624    0.4088693252498847    
  0.32694353083454963    0.16447752683687394    0.10545103590268574    0.16447748158490536    0.32694356829784443    
  0.40886941113569075    0.3247174569264393    0.21305138971764945    0.13748258647990366    0.09407603001507442    
  0.07057022413409503    0.05822410340912486    0.05215958838659659    0.050389134967362297    0.05622219411689557    
  0.05822410258520745    0.06489497057407945    0.07798596905367626    0.10133074898253919    0.14165874852295424    
  0.20810355168152375    0.30507683843439054    0.4019268428317808    0.41182795423168006    0.32694355249780715    
  0.27760142996092985    0.3269435491189079    0.4118279062379663    0.40192690460003644    0.30507688206402556    
  0.20810356112388478    0.1416587341260923    0.10133075058658261    0.07798596596304538    0.06489498073612451    
  0.05822406544741521    0.05622219411689557    0.06822795812630172    0.07057021344371205    0.07798596938104042    
  0.09152219274700696    0.11346405722967451    0.1478202666063881    0.19929103625466957    0.2696740388086765    
  0.3481931708989124    0.4019268930623719    0.408869360172119    0.40145867671956326    0.40886929608348854    
  0.40192686750136386    0.3481931849822773    0.26967404844874576    0.19929099952375992    0.14782025910218038    
  0.11346408616041385    0.09152218976621229    0.0779859784325675    0.07057020202505757    0.06822795812630172    
  0.09161001510246802    0.09407603022182497    0.10133075169720497    0.11346409322530526    0.13112702562328404    
  0.15560150150561095    0.18799773480449924    0.227420076090399    0.2696740394214727    0.305076878123019    
  0.3247174651016613    0.33008010344355443    0.3247174567865543    0.3050768791529402    0.2696740460918262    
  0.2274201308920571    0.18799770414778794    0.15560145187385363    0.13112704431523137    0.11346407289543231    
  0.10133075635718373    0.09407601461776673    0.09161001510246802    0.13589956401757944    0.13748258050408607    
  0.14165873730046075    0.14782024140434252    0.15560152148611647    0.16486639469678566    0.17594127658220596    
  0.1879977262624153    0.199291048299535    0.20810352197100382    0.21305140532334177    0.21444877994873093    
  0.21305137989316633    0.20810356389844814    0.19929097459358566    0.18799775334101074    0.17594127725323847    
  0.16486635974807515    0.1556015270646093    0.14782027168693423    0.1416587474229403    0.13748254724477568    
  0.13589956401757944    0.21444877327303533    0.21305137944507543    0.20810355286781937    0.19929103440119483    
  0.1879977131639285    0.17594128551941268    0.16486639990902352    0.15560148830540513    0.1478202752742263    
  0.14165872762903922    0.13748259270649574    0.13589958400522673    0.13748257549844978    0.14165874735006334    
  0.14782026417994096    0.15560150689825025    0.16486639571997497    0.17594123878281745    0.18799775576599773    
  0.19929099946718715    0.20810356295132457    0.21305137760489024    0.21444877327303533    0.3300801234298416    
  0.32471746847612315    0.3050768648366947    0.26967401379767375    0.22742006719132005    0.18799772621218863    
  0.1556014965442679    0.13112701750941216    0.11346411684978043    0.10133074470163374    0.09407603604812398    
  0.09160997541268358    0.09407603286438732    0.10133074666606441    0.11346408782049945    0.13112703992236988    
  0.1556014991696454    0.18799773559882882    0.2274200947164553    0.26967404485852564    0.30507684615327235    
  0.3247174161766988    0.3300801234298416    0.4014587546387768    0.4088693474903959    0.4019268443439238    
  0.34819322980250933    0.2696740184330313    0.1992909948954772    0.1478202349119717    0.11346411083203811    
  0.09152218021092993    0.07798597952034098    0.07057020249887214    0.0682279491397158    0.07057019057799176    
  0.07798597946485131    0.09152217658145348    0.11346409963885774    0.14782025362230014    0.19929100404843833    
  0.2696740314446089    0.3481932070723451    0.4019269000691692    0.40886929810292394    0.4014587546387768    
  0.2776014162239416    0.3269435253665812    0.4118278849732744    0.4019269166027732    0.3050768746730859    
  0.20810354478020862    0.14165876831094992    0.10133072686795909    0.07798598597854706    0.06489499437149414    
  0.05822410882594495    0.05622220626860183    0.058224075216244606    0.06489497569665224    0.07798598882590876    
  0.10133077224588238    0.14165873309334584    0.208103511616744    0.30507683422934373    0.4019268795407649    
  0.4118278971327124    0.3269435568234631    0.2776014162239416    0.10545104076297111    0.16447752721392417    
  0.326943520639844    0.408869349982058    0.32471744951096454    0.21305137224385187    0.13748256948630963    
  0.09407603180378789    0.0705702020822428    0.058224072141021564    0.052159591329246635    0.05038913897626356    
  0.05215960041479774    0.05822408719081137    0.07057020216672034    0.09407604645650569    0.137482624385455    
  0.21305137134402963    0.3247174336874095    0.4088693797385031    0.32694355503327877    0.16447747452920342    
  0.10545104076297111    0.05562650673634881    0.10545102080614384    0.2776014287911023    0.4014586723829004    
  0.33008013347928006    0.21444873640975295    0.1358995488908909    0.09160998271002462    0.06822793598887307    
  0.05622219222335131    0.05038914396396025    0.04867765913048886    0.050389132328763436    0.05622220660521433    
  0.06822793220868094    0.09161000527813994    0.1358995725694825    0.21444871186569575    0.3300800676471252    
  0.40145868040546734    0.27760142685177086    0.1054510242559064    0.05562650673634881    0.10545102626980729    
  0.16447749367149023    0.3269435726562179    0.40886933483614535    0.324717484052861    0.21305139908089957    
  0.13748257600694208    0.09407604011148471    0.07057020589095431    0.0582241069639339    0.05215959407490875    
  0.05038915421189248    0.052159586997009746    0.05822411457282792    0.07057021124859178    0.09407604714277996    
  0.13748259339030527    0.2130513419523165    0.3247174268073076    0.40886935567595356    0.3269435507058501    
  0.16447748737720733    0.10545102626980729    0.16447751239802452    0.2362900622456466    0.39481230178900545    
  0.4507057600688995    0.3552335555337392    0.23929367673558682    0.15851023243585352    0.1097243291058349    
  0.08159249939864693    0.06545246229519992    0.056370368860842554    0.05215959791269764    0.051814746660196684    
  0.055687716848838366    0.06537830949270626    0.0850716782021815    0.12220463603762484    0.1877134601310388    
  0.2872173865304842    0.3765146333610155    0.3418018825679864    0.21586268383175872    0.16447751239802452    
  0.3269435440398809    0.39481237835262356    0.4838364300970558    0.47088497226855264    0.3692204819023968    
  0.2628345376349636    0.18437191609095607    0.13257930398633264    0.09956140380260547    0.07853599006367072    
  0.06545245362411779    0.05822412394067713    0.05568770807578917    0.05776601567472661    0.06544401920973476    
  0.08177579335682282    0.11219119349484348    0.1647187305508743    0.24526547456962997    0.3362128546851274    
  0.37573525231722316    0.3418018894383297    0.3269435440398809    0.40886941045945474    0.45070572698204736    
  0.4708849611682222    0.4341470070185017    0.3583586891663538    0.27886543365426864    0.2125928752270822    
  0.16247244602870856    0.12588303321595457    0.09956139065417821    0.08159247405430405    0.07057019546137207    
  0.06537831186703365    0.06544400409841987    0.07098752889104204    0.08365779809329499    0.10662279321260827    
  0.14438039145415854    0.20056588365998054    0.271197729501683    0.3362129203297735    0.3765146104741873    
  0.40886941045945474    0.32471742155485994    0.35523347748125733    0.36922048681143743    0.3583586673363875    
  0.3259741806163403    0.28302560197659127    0.2386990094430743    0.19810800695076683    0.16247246989659758    
  0.13257931153606511    0.10972434340125307    0.09407602731315753    0.08507167711395079    0.08177575479753786    
  0.08365777755249167    0.09106451504714339    0.1051419375277238    0.12763486505248348    0.15970772965443183    
  0.20056584144237982    0.24526551980258085    0.2872173525266029    0.32471742155485994    0.21305141411104578    
  0.23929365323409457    0.2628345343833579    0.27886539923479675    0.28302567554386965    0.2754339473616557    
  0.2598173590144515    0.23869900447068518    0.21259286563969385    0.1843719079739218    0.1585102179160134    
  0.13748260503250356    0.12220464732305614    0.11219120912910835    0.10662280412116813    0.10514196090341338    
  0.10782008559556978    0.11527944175285022    0.12763492308035834    0.1443804302936037    0.16471875327404614    
  0.1877134696825435    0.21305141411104578    0.13748262971227948    0.15851021835804205    0.18437189412035968    
  0.21259289136074794    0.23869905024461666    0.2598173371717597    0.2754339806966146    0.28302562803357834    
  0.2788654258479348    0.2628345604504047    0.23929362067419208    0.21305141568962832    0.1877134533840558    
  0.16471873600592463    0.14438038992421665    0.1276349115504791    0.11527946411825012    0.10782008488457578    
  0.10514197348104691    0.10662279379452831    0.11219120559214574    0.1222046655220535    0.13748262971227948    
  0.0940760633627282    0.10972433238292031    0.1325792994399506    0.16247245020083864    0.19810802759937543    
  0.2386990223982065    0.2830256810564685    0.3259742204906367    0.3583586527007444    0.36922044572493945    
  0.3552335227795173    0.3247174567966883    0.28721736173883883    0.24526549213192245    0.20056588170910492    
  0.15970774807207283    0.12763489262326788    0.10514191217293264    0.09106448926296296    0.08365777315602337    
  0.0817757355863205    0.08507168718254493    0.0940760633627282    0.07057021777215376    0.08159248388121239    
  0.09956138415206793    0.12588299822117915    0.16247245647157124    0.21259284062530756    0.27886545242604377    
  0.3583586403034774    0.4341469822778086    0.4708849570610752    0.45070573476803605    0.4088693770064328    
  0.37651457550410966    0.33621290094176187    0.271197690509645    0.20056589090878352    0.1443803995351407    
  0.106622785982171    0.08365782218453832    0.07098754810141034    0.06544401854866748    0.06537828789850898    
  0.07057021777215376    0.058224119239660366    0.06545246628172678    0.07853596889528279    0.09956141862077801    
  0.13257931335538742    0.18437189808552737    0.26283456007421335    0.36922045885554394    0.4708849361831054    
  0.48383652065044214    0.39481239984802563    0.3269435238689561    0.34180186722772554    0.3757353290992681    
  0.336212839207159    0.24526552714303704    0.16471874314289542    0.11219119731293706    0.08177574462120131    
  0.0654440103798171    0.0577660054838114    0.055687741127570134    0.058224119239660366    0.05215959257872773    
  0.05637034572009734    0.06545246797120521    0.08159246410950459    0.10972436661054376    0.15851020431249732    
  0.23929363811146037    0.3552335227985241    0.4507056961030482    0.39481237100329925    0.2362900240445643    
  0.16447749151374497    0.2158627051245479    0.3418018800930249    0.3765146265562894    0.2872173855100375    
  0.1877135079637345    0.12220464925595202    0.0850716970347891    0.06537832748487962    0.05568773502342349    
  0.051814729176451316    0.05215959257872773    0.050389129493128855    0.05215959747023208    0.05822409652185264    
  0.07057022709540368    0.0940760398773805    0.13748260119418568    0.2130514082014392    0.3247174913025673    
  0.40886934665663943    0.3269435406133166    0.16447750635838518    0.10545105869610505    0.1644774839760204    
  0.3269435443257354    0.40886937030477444    0.3247174823112632    0.21305135186493745    0.13748257489104002    
  0.09407602222839026    0.07057021034772891    0.05822412028746039    0.052159592331902045    0.050389129493128855    
  0.05215961000139056    0.05181474094978894    0.0556877140397237    0.0653783112821619    0.08507169495771738    
  0.12220465711086093    0.18771346003425463    0.28721735243656615    0.37651458884464123    0.3418018949280364    
  0.2158626895972863    0.16447750080721618    0.2362900428959949    0.3948123533623199    0.4507057402549077    
  0.35523352649300344    0.2392936656306889    0.15851020072124578    0.10972435233667018    0.08159248946862493    
  0.06545245843348323    0.05637035375406631    0.05215961000139056    0.05822409523528196    0.05568773532491401    
  0.057766007722265325    0.06544399532764689    0.08177574992051811    0.11219119218721132    0.1647187564917808    
  0.24526546942283328    0.33621287910591563    0.3757353408652157    0.3418019028720044    0.32694353551131733    
  0.3948123485915046    0.48383643857438646    0.4708849183003276    0.36922052036908987    0.2628345053428683    
  0.1843719085041221    0.13257929075084332    0.09956140768006312    0.07853596782913189    0.06545244361790543    
  0.05822409523528196    0.07057024023146978    0.06537829466220192    0.06544400099946604    0.07098754227092309    
  0.08365776671983967    0.10662281727706921    0.14438037840604775    0.2005658738833167    0.2711976570900033    
  0.33621290068590143    0.3765145863910833    0.40886939137170647    0.45070563639157124    0.4708849390208786    
  0.4341469692311266    0.3583586824300777    0.27886543748417725    0.21259282721318043    0.16247248089608202    
  0.12588298952700355    0.09956140557962784    0.08159246752536548    0.07057024023146978    0.09407606019786961    
  0.08507169053840877    0.08177575812997248    0.0836577835418348    0.09106449411809495    0.10514193040622133    
  0.12763490786942447    0.15970771789341434    0.20056586344154065    0.2452654791278494    0.2872173695356042    
  0.32471745431103566    0.3552335230543767    0.36922046926987145    0.35835865488210367    0.32597426585694034    
  0.2830255970333873    0.23869902215643368    0.1981080391677854    0.1624724586235712    0.1325793110995598    
  0.10972434275376354    0.09407606019786961    0.13748261458583946    0.12220466569731217    0.11219120578554752    
  0.10662280553629781    0.10514195910858849    0.10782011685075442    0.1152794709932564    0.12763487901157322    
  0.14438043548090648    0.16471875606720046    0.18771348970398838    0.21305141988514897    0.2392936309198412    
  0.26283455999126204    0.27886540145997674    0.2830256296690529    0.27543401694291364    0.25981732776775707    
  0.23869909251353877    0.21259281361280535    0.18437195721328584    0.1585101962796311    0.13748261458583946    
  0.2130513998013015    0.18771348187634193    0.1647187445588901    0.14438039371818726    0.12763490333469044    
  0.11527945742095466    0.10782012596309298    0.10514193165765678    0.10662280407593096    0.11219119423610369    
  0.12220466456783556    0.137482604871467    0.15851019106051734    0.1843719195431708    0.21259284492631778    
  0.23869903406039514    0.2598173777315941    0.2754339651480456    0.28302566292143805    0.27886542933552927    
  0.2628345482712703    0.23929366461483617    0.2130513998013015    0.32471746931093376    0.2872173675108838    
  0.24526546002839142    0.2005658596278983    0.15970769421698972    0.12763492150690678    0.10514193322029183    
  0.09106449960408666    0.08365780728337718    0.08177576865632463    0.08507167489685966    0.09407603848721198    
  0.1097243410952027    0.13257930498826723    0.1624724410278576    0.198108041079706    0.23869901557529066    
  0.28302560347615563    0.32597422768053436    0.35835867142752004    0.36922045478346444    0.3552334842953197    
  0.32471746931093376    0.40886939940409733    0.37651459027595086    0.3362129000695583    0.27119767015453383    
  0.20056590258944082    0.14438038681593965    0.10662279947852978    0.08365779062638369    0.07098753003598907    
  0.06544401151823229    0.06537831585688715    0.07057020783738546    0.08159247120581932    0.09956139769869586    
  0.12588298448123283    0.16247245348151126    0.21259285873737233    0.2788654400968983    0.3583586806484089    
  0.4341469876907098    0.4708849282756252    0.4507057161355862    0.40886939940409733    0.32694354873742587    
  0.3418018718992303    0.37573526117129696    0.33621292081681553    0.24526547870542487    0.16471874098527922    
  0.11219119741802033    0.08177574479462754    0.06544400765191001    0.05776602678001119    0.05568771747068245    
  0.05822411786565552    0.06545244105015234    0.07853596556182009    0.09956141095455807    0.13257931672856255    
  0.18437190042252188    0.26283454276747725    0.3692204538298825    0.4708849933291831    0.4838364814589998    
  0.39481233961420903    0.32694354873742587    0.16447752307045252    0.21586271509563615    0.3418018765433704    
  0.37651461269494296    0.28721736188909663    0.1877134756738127    0.1222046832269361    0.0850716809319973    
  0.0653783074433518    0.05568771969065652    0.051814741189708684    0.052159599120339885    0.05637035926487114    
  0.06545245664014647    0.08159248085938023    0.10972433474247596    0.1585102362318195    0.23929359346709325    
  0.35523352449491336    0.450705717539828    0.3948123794248974    0.2362900190358975    0.16447752307045252    
  0.10545102626980729    0.16447749367149023    0.3269435726562179    0.40886933483614535    0.324717484052861    
  0.21305139908089957    0.13748257600694208    0.09407604011148471    0.07057020589095431    0.0582241069639339    
  0.05215959407490875    0.05038915421189248    0.052159586997009746    0.05822411457282792    0.07057021124859178    
  0.09407604714277996    0.13748259339030527    0.2130513419523165    0.3247174268073076    0.40886935567595356    
  0.3269435507058501    0.16447748737720733    0.10545102626980729    0.2776014200127109    0.3269435172458842    
  0.41182792235066273    0.40192688048165054    0.3050768526223416    0.20810352045742614    0.14165875355710356    
  0.10133073158387745    0.07798600012689799    0.0648949594941307    0.05822411599286337    0.05622219918171868    
  0.058224102293809574    0.06489497919237042    0.07798599841715796    0.10133075552783968    0.141658741443113    
  0.20810352003317797    0.3050768813193809    0.4019268644937968    0.4118278918044138    0.3269434821555057    
  0.2776014200127109    0.3269435480472474    0.3948123447880311    0.4838364126005209    0.4708849149839767    
  0.36922045502057643    0.2628345898093454    0.18437190394727737    0.13257932963110672    0.09956138238008985    
  0.07853599450947878    0.06545244910030448    0.05822409970359162    0.05568770282139681    0.057766004448011665    
  0.06544399986323171    0.08177575401901438    0.11219117679855879    0.16471873312534802    0.24526549943017023    
  0.3362129200914048    0.3757353260044647    0.34180186850526656    0.3269435480472474    0.4118279206220848    
  0.483836429665568    0.5421615268105988    0.5163326322118171    0.42533049303428305    0.3240557372914009    
  0.23984385114772944    0.17717837982615334    0.13217246800165747    0.10027407140692221    0.07853597334378634    
  0.06489497014350586    0.05776600144712729    0.05611936114260606    0.059943153464607705    0.07112038103587108    
  0.0933585071764354    0.13237823434025653    0.19356496316057722    0.27223265410913045    0.34084045476134206    
  0.37573530282362233    0.4118279206220848    0.4019268992456651    0.47088494328348723    0.5163326510563271    
  0.5094653296722647    0.4544324936597165    0.37650805878601074    0.2991513668227116    0.2325440330960006    
  0.17681152391372576    0.13217248428364584    0.09956140212814278    0.07798599728079829    0.06544398663124251    
  0.059943148231885866    0.06039619569254832    0.0672315532490589    0.08227685099593829    0.10877220457967689    
  0.1501155429705402    0.20687835190639633    0.2722326979580595    0.3362128729469714    0.4019268992456651    
  0.3050768460351488    0.3692204532201713    0.42533045446042117    0.4544324255934154    0.44290500118392195    
  0.39904319976643177    0.3448415717669351    0.2900549621072106    0.23254406433900504    0.17717840489086487    
  0.132579307093531    0.10133074021770427    0.0817757425441803    0.0711203733486449    0.06723154253775725    
  0.06912860210895605    0.07702216177404    0.0921877319470174    0.1161737859582089    0.15011550929646214    
  0.1935649719351861    0.24526547330331597    0.3050768460351488    0.20810359020688451    0.262834574047762    
  0.32405573869233206    0.37650802403400546    0.39904325710385263    0.3910749315635575    0.3717607246525216    
  0.3448415882184487    0.29915139787596856    0.23984382950867458    0.18437191209280943    0.1416587666492235    
  0.11219119160872913    0.0933585119527285    0.08227686485229505    0.07702221417540832    0.0768265234700283    
  0.0817497767936693    0.09218778753650236    0.10877222438580218    0.13237825808710843    0.16471873278991264    
  0.20810359020688451    0.14165879237574638    0.18437192146605422    0.23984380872897293    0.2991514003771437    
  0.34484162120070483    0.37176070724872673    0.3910749725957923    0.39904318572178604    0.3765080694164524    
  0.3240557216012186    0.2628345585778546    0.20810354373487847    0.16471873951177873    0.13237823654919545    
  0.10877219419985476    0.0921877588016077    0.08174979097516963    0.0768265481969432    0.0770222063344384    
  0.08227686505914679    0.0933585243686143    0.11219119063369754    0.14165879237574638    0.10133076139508725    
  0.1325792893387232    0.17717839153068055    0.23254407163969873    0.2900550074013969    0.34484160804708086    
  0.3990432245148184    0.4429050181424826    0.4544324413795058    0.4253304835231142    0.3692204373942367    
  0.3050768488110493    0.24526546176786782    0.1935649675407278    0.15011551296350834    0.11617381145211027    
  0.09218777546777533    0.07702213544813713    0.06912859525341356    0.06723152236132247    0.0711203793554228    
  0.08177573031444732    0.10133076139508725    0.07798598454688366    0.09956140130445626    0.1321724677800785    