#     DFTpy    
  CRYSTAL 
    
  PRIMVEC    
  4.544620689655172    0.0    0.0    
  0.0    4.544620689655172    0.0    
  0.0    0.0    2.5037931034482757    
  PRIMCOORD    
  4    1    
  Si    0.0    0.0    0.0    
  Si    2.272310344827586    2.272310344827586    1.2518965517241378    
  Si    0.0    2.272310344827586    0.6259482758620689    
  Si    2.272310344827586    0.0    1.8778448275862067    
  BEGIN_BLOCK_DATAGRID_3D    
  3d_datagrid_density    
  BEGIN_DATAGRID_3D#0    
  21    21    11    
  0.0    0.0    0.0    
  4.544620689655172    0.0    0.0    
  0.0    4.544620689655172    0.0    
  0.0    0.0    2.5037931034482757    
  0.05006985416565323    0.09122948928383055    0.24913285568042998    0.4401296903959504    0.4894723626112374    
  0.4612467271496457    0.44981636939889963    0.4558261587724619    0.4392577079362598    0.39382553373868406    
  0.36855376838082    0.39382561297124924    0.43925771461524865    0.4558260896996156    0.44981641185791604    
  0.46124659957323544    0.4894725034707561    0.4401297926404783    0.24913290153799209    0.09122942834722889    
  0.05006985416565323    0.09122944539905445    0.13998807995360785    0.2934949067192347    0.4426042136071478    
  0.46292748394063366    0.4291342654622686    0.4181597444121433    0.42885590950857505    0.42610693327333227    
  0.397999718546929    0.3800859739509896    0.39799978477692505    0.42610699640371213    0.4288558283953019    
  0.4181596642742963    0.429134284045793    0.46292758956209124    0.4426041865890026    0.29349491918167725    
  0.13998806217398777    0.09122944539905445    0.24913281194427805    0.29349493163697515    0.3862513992665298    
  0.42630093174149575    0.39233124964644256    0.3514748402895876    0.34227201376514865    0.3601140634325679    
  0.3813317664901227    0.3874353747399442    0.3856332746695628    0.3874354430030001    0.38133183944561927    
  0.3601140285106989    0.34227201493566756    0.3514748797040086    0.3923313462735515    0.4263008604651318    
  0.3862514989350291    0.2934949357879789    0.24913281194427805    0.4401297619542751    0.4426041707829291    
  0.4263008210857852    0.37155858410838094    0.30724655958255476    0.2667065382832385    0.25942717315678027    
  0.27911445567611476    0.3116730756990767    0.3388500413066042    0.3485983701379111    0.33885000502312373    
  0.3116730834531497    0.2791144669211356    0.25942716377607244    0.2667065698637783    0.30724657356297996    
  0.3715585497282114    0.4263008176019122    0.44260410348744306    0.4401297619542751    0.48947233490836684    
  0.46292769754924173    0.3923312871285398    0.30724663221236    0.23976532502346332    0.20327381379000428    
  0.19694193113368125    0.21490099081800762    0.2471861133206033    0.2779682244201465    0.29060269964815777    
  0.27796830584772736    0.2471861452048517    0.2149009182716496    0.19694187136628308    0.20327376031187674    
  0.23976537639317627    0.3072465493605881    0.39233132118453634    0.4629275762864076    0.48947233490836684    
  0.4612466216810225    0.42913423236677706    0.35147486711649806    0.26670653701747504    0.20327375056619523    
  0.16975989397785704    0.1639413782959275    0.18058783307953363    0.21077117346099125    0.24008242789460515    
  0.2524139988357001    0.24008251299293973    0.21077111867708367    0.18058780924489654    0.16394140274829325    
  0.1697598845169271    0.20327379328177606    0.26670658846394407    0.3514748956637946    0.42913416213048844    
  0.4612466216810225    0.4498164173868241    0.41815980358027716    0.34227204191490457    0.25942725809356587    
  0.19694185951180593    0.16394140638527846    0.15846746678666773    0.17530333569939965    0.2058458488490414    
  0.23573737703805606    0.24837727063795814    0.23573740023246179    0.20584583953547292    0.17530334224910238    
  0.15846743287993814    0.1639414013765315    0.19694192434660387    0.2594272408109255    0.3422719969073334    
  0.4181596784114744    0.4498164173868241    0.4558261440061433    0.42885593128881383    0.36011402087733596    
  0.2791145063030962    0.214900867715681    0.18058783161046282    0.17530330840771144    0.19380550674714708    
  0.22763880676378495    0.2610576476524044    0.27512940252624757    0.2610577069557864    0.2276387743510042    
  0.19380552886906074    0.17530329296910666    0.1805878203466128    0.21490097706909606    0.27911446986268995    
  0.3601140650885692    0.42885583162505175    0.4558261440061433    0.4392576829557101    0.4261069664275852    
  0.38133170048976983    0.3116731136109573    0.24718606353533595    0.21077120775672292    0.20584583256557898    
  0.22763870087507074    0.2671544641348812    0.30600311931389307    0.3221470969384454    0.3060031623774274    
  0.26715452112185    0.22763874656737565    0.20584578894117755    0.2107711768235609    0.24718611420354347    
  0.31167307395651506    0.3813317802990988    0.4261067899867934    0.4392576829557101    0.39382552883417693    
  0.3979997783849481    0.3874353166005192    0.3388500986705763    0.27796820160941715    0.24008252375462302    
  0.23573736693480507    0.26105768168757715    0.3060031609879764    0.3499778211086505    0.3681573698705996    
  0.34997784336322996    0.30600319202606246    0.2610576408278964    0.23573730231152146    0.2400824634425656    
  0.277968239185684    0.3388500245065148    0.38743539693615026    0.397999694469788    0.39382552883417693    
  0.36855377540393325    0.3800861117863447    0.385633403666735    0.34859843387142864    0.29060266535170975    
  0.2524140581115205    0.24837724392151042    0.27512941571186644    0.3221472535369325    0.3681573874623721    
  0.3872190803947554    0.3681574428594381    0.32214716963720846    0.27512941618779857    0.24837729763156083    
  0.2524140190017576    0.29060277104439514    0.34859849059360015    0.3856334275335037    0.3800858761235259    
  0.36855377540393325    0.3938255291759714    0.3979997425025037    0.38743531970451806    0.3388500691888023    
  0.27796822621041356    0.24008249301950124    0.23573735848530158    0.26105758705102516    0.3060031682226046    
  0.34997788180567974    0.36815733037293036    0.3499778678494527    0.3060032159511408    0.26105757241169225    
  0.23573728681503764    0.24008249921865216    0.2779682549795977    0.3388500217444659    0.3874353785462857    
  0.397999701765308    0.3938255291759714    0.43925765729212785    0.4261069194541391    0.38133177652638406    
  0.3116731217439483    0.24718605463022147    0.21077117033280102    0.20584586352796055    0.2276387588990099    
  0.2671544756050544    0.30600321435419336    0.3221471079548427    0.306003192101837    0.2671544546281255    
  0.22763873127882103    0.20584579960548133    0.21077115444259617    0.2471860870741398    0.31167311790854046    
  0.3813318123432963    0.4261070343668891    0.43925765729212785    0.4558260577889894    0.4288558922067764    
  0.3601139590975394    0.2791145198810982    0.21490087015984133    0.18058781955308006    0.17530330957370557    
  0.1938055013508711    0.22763879427027836    0.2610576570867411    0.27512941060082463    0.2610576454476891    
  0.2276387053382977    0.19380553158062866    0.1753033197800944    0.18058788269773265    0.21490092662336802    
  0.27911444938613694    0.3601140281382068    0.42885579536076157    0.4558260577889894    0.4498163947380731    
  0.4181597757985393    0.3422719775211924    0.2594272290154342    0.19694189140687302    0.16394142246833918    
  0.15846747580006518    0.17530335460975163    0.20584589099447334    0.23573726453409496    0.24837729391041605    
  0.23573740077499084    0.2058459051057914    0.17530331525099985    0.15846746464118502    0.16394136378458246    
  0.19694193287931536    0.25942719491584865    0.3422720572510915    0.41815969510289286    0.4498163947380731    
  0.46124657564179067    0.42913427180618946    0.35147488406466554    0.2667064836286776    0.20327373108599633    
  0.16975987360353428    0.16394137424479274    0.1805878360677222    0.2107712216799139    0.24008240814723483    
  0.25241395879697437    0.24008245451222165    0.21077115773220156    0.180587812579928    0.16394139003414515    
  0.1697598773336284    0.20327378460599366    0.26670656533963455    0.3514749418382614    0.42913416652265246    
  0.46124657564179067    0.4894723791184935    0.46292759075906464    0.39233137355515285    0.30724664934407886    
  0.23976531385939026    0.2032738052805347    0.19694190772845208    0.21490095418907887    0.24718612696331166    
  0.2779682889979597    0.2906027547844882    0.27796827056196616    0.24718613076889714    0.21490093886327402    
  0.19694190649457777    0.20327380350102314    0.2397653960513644    0.30724661149188126    0.39233127948842866    
  0.46292751630000273    0.4894723791184935    0.4401297460001441    0.44260423203714366    0.426300814026984    
  0.37155858367829386    0.30724648010687633    0.26670654383929426    0.25942724321858196    0.27911442474885806    
  0.31167309820331346    0.33885007900203157    0.3485984634809965    0.3388501079705209    0.31167306804263184    
  0.2791144734629797    0.2594272036363647    0.2667065016425773    0.3072465781464847    0.37155846534666176    
  0.4263007966581028    0.4426041220361936    0.4401297460001441    0.24913279259242221    0.29349493431555745    
  0.38625137680580685    0.426300861463554    0.3923313111421951    0.3514748777165613    0.34227195704905117    
  0.3601140589424863    0.3813317840962264    0.3874353960229199    0.3856331847782739    0.38743540087200523    
  0.3813318392812175    0.360114052652815    0.3422719643603385    0.3514748513829405    0.3923313740368518    
  0.42630086386386895    0.386251463605733    0.2934948705420281    0.24913279259242221    0.09122944184946678    
  0.13998809185490832    0.29349498656524425    0.44260424550886013    0.46292744819028214    0.42913428062470044    
  0.41815975253385973    0.42885598756036053    0.42610694591965603    0.39799966886823196    0.38008604064374246    
  0.39799976253935815    0.4261069502642155    0.4288558993786192    0.41815967879973415    0.4291341835601697    
  0.46292754884518794    0.44260412692173734    0.29349497530545193    0.1399880731936046    0.09122944184946678    
  0.05006985416565323    0.09122948928383055    0.24913285568042998    0.4401296903959504    0.4894723626112374    
  0.4612467271496457    0.44981636939889963    0.4558261587724619    0.4392577079362598    0.39382553373868406    
  0.36855376838082    0.39382561297124924    0.43925771461524865    0.4558260896996156    0.44981641185791604    
  0.46124659957323544    0.4894725034707561    0.4401297926404783    0.24913290153799209    0.09122942834722889    
  0.05006985416565323    0.09881925121172687    0.14625900218949822    0.2875434952151598    0.41066688427865666    
  0.4112965583633025    0.36770684785109403    0.35034071474433853    0.365641283398217    0.3960281815041526    
  0.42055938275700183    0.42887571366264554    0.42055946735241034    0.39602814531127783    0.3656412434451377    
  0.350340768085269    0.3677067763983512    0.41129665127274884    0.4106669270394052    0.28754352553602947    
  0.14625891147393735    0.09881925121172687    0.1505655023947734    0.19975894049802487    0.32549185639863765    
  0.4110114419822587    0.39137869435467015    0.3448920761655425    0.32764360840739065    0.3427316375897043    
  0.37386904569751017    0.4003743466516013    0.40979842130571364    0.4003743892399662    0.3738690312141846    
  0.3427316072162935    0.32764347666181387    0.34489210166796824    0.3913787565393359    0.41101137101075486    
  0.3254918634340462    0.19975891124925252    0.1505655023947734    0.3145120107143667    0.3469079851886228    
  0.40046847026094556    0.39593688430455415    0.33928957474653143    0.28982804290621184    0.27353778335268203    
  0.2873322567652433    0.3179806901185652    0.3467046276157585    0.3578243924612754    0.3467046732592311    
  0.3179807585239845    0.28733225492718056    0.27353773981701485    0.28982806161706437    0.3392896733572107    
  0.39593682333226915    0.4004685634529013    0.3469079955884819    0.3145120107143667    0.48308258836648227    
  0.4735979956433784    0.4311676411626219    0.3542908235315526    0.2778539153586047    0.23012142556865467    
  0.21538988884605736    0.22701035375593379    0.2544231652499629    0.28195299304165333    0.29333961369093736    
  0.2819529399118474    0.25442313084292495    0.22701035594383517    0.2153898636276925    0.23012142395022886    
  0.2778539753449388    0.3542907706786053    0.43116764602350927    0.4735979419187248    0.48308258836648227    
  0.5270694387583225    0.4934881544907457    0.40793142540450933    0.3089572452495208    0.23140444207792507    
  0.18734379816527574    0.17385899303042135    0.18385772468419753    0.20786006978830923    0.2323868121899212    
  0.24283198901014597    0.23238688623938727    0.2078601338720998    0.18385768769470529    0.1738589474790122    
  0.18734375734238787    0.23140448938144467    0.30895719542856526    0.40793146392669505    0.4934881200732358    
  0.5270694387583225    0.516344290996689    0.4783009392651124    0.38657689356512426    0.2869890206521991    
  0.21198572929041934    0.1699461734619071    0.15704570498992182    0.16652405855920085    0.18908096078175107    
  0.21201397714287326    0.22182688380078203    0.2120140637727772    0.18908094956813612    0.1665240440892346    
  0.15704573345173828    0.16994615640982613    0.21198576458396773    0.286989061681649    0.386576882743265    
  0.4783008932879167    0.516344290996689    0.5191897141899064    0.48395364984273476    0.3965764110405544    
  0.29804664023817934    0.221745034806002    0.17863141189084475    0.1655428113688933    0.17548051505144566    
  0.19918335822148595    0.22349358957000479    0.23390128384497783    0.22349363158396351    0.1991833770042883    
  0.17548052540583142    0.1655427959770655    0.1786313745039476    0.22174508784191288    0.2980466266838862    
  0.39657628253034677    0.4839534899631567    0.5191897141899064    0.49395429770755156    0.475979525278763    
  0.4184143681102491    0.3338575763558308    0.25715779266236233    0.21109280187396248    0.19723120172997607    
  0.20877413846977033    0.2360423312553261    0.26401404902534786    0.2758337532799025    0.2640141427054659    
  0.23604228299351931    0.20877415975068184    0.19723118507617024    0.21109280374327632    0.2571578563754021    
  0.33385747936170107    0.4184144310397989    0.4759794349368022    0.49395429770755156    0.37183396412265873    
  0.38982109391494957    0.4070408013898318    0.37244649128106705    0.3071290121335831    0.25886410182437797    
  0.24407490664290488    0.2583923111788682    0.29068348448301806    0.32293073248287585    0.33616144764174066    
  0.32293078839298    0.2906834970643723    0.2583923545415628    0.24407492131267058    0.2588641245325696    
  0.3071290932534324    0.3724464224077795    0.40704085586617633    0.3898209692474808    0.37183396412265873    
  0.22691777985665815    0.26955318516996973    0.3586493893175781    0.3926642651512655    0.35094422978510764    
  0.3034200435441657    0.2881096577614015    0.30497870385226794    0.3412135345015987    0.3764643487415126    
  0.39070231920859755    0.37646444124606165    0.3412135052785479    0.30497865423560283    0.288109644112787    
  0.3034199569694738    0.3509443210040167    0.3926641961475313    0.3586494383124639    0.26955314569228417    
  0.22691777985665815    0.1721269608907365    0.21907462587430832    0.33105979274007796    0.3963353375222565    
  0.368097389547863    0.3219398923958383    0.3065728144610366    0.3243642310739342    0.3618058104681654    
  0.3979442866074876    0.4125221819209693    0.3979443812477137    0.36180580022850334    0.32436427258694267    
  0.3065729552474893    0.321939883786017    0.36809749951517634    0.3963354300219935    0.33105984271627287    
  0.21907446031707556    0.1721269608907365    0.22691780609153875    0.26955315135528995    0.3586493268907397    
  0.392664212444212    0.3509442721809919    0.3034200212077546    0.2881096505505656    0.30497863003960635    
  0.3412134872435654    0.37646437637685215    0.3907022460289128    0.37646441504742933    0.3412135369318019    
  0.3049786417912195    0.2881095724407722    0.3034200068954381    0.3509443118585398    0.39266419428272553    
  0.3586494215222433    0.2695531395158801    0.22691780609153875    0.37183393633701006    0.3898210510886    
  0.40704083617333253    0.3724464852142161    0.30712901719699615    0.2588640565315742    0.24407491896050307    
  0.2583923333004504    0.2906834277928766    0.322930769109207    0.3361614728268729    0.32293079222202137    
  0.2906834514612006    0.25839229711657685    0.24407491136713635    0.25886408930004634    0.3071290575265633    
  0.37244649048210454    0.40704095765449255    0.3898211473653739    0.37183393633701006    0.4939543142252771    
  0.4759795226911494    0.4184143228962927    0.33385755936730255    0.25715782154706135    0.21109279785184343    
  0.19723119789845758    0.2087741388656873    0.2360423290003206    0.2640140680218923    0.2758337788400529    
  0.2640141231522423    0.23604229193067416    0.208774119974657    0.19723115918774775    0.2110928105074878    
  0.2571578732433689    0.3338575199196371    0.4184143556251977    0.4759794101433771    0.4939543142252771    
  0.5191896317130091    0.4839536400140103    0.3965763045147813    0.2980466353029921    0.22174505304395345    
  0.1786314294399633    0.16554282136133144    0.17548049971243107    0.19918335796251768    0.22349349560249784    
  0.23390133231233287    0.22349362858616506    0.19918342044089715    0.17548051223830577    0.16554279527177848    
  0.17863140039385894    0.22174504755453298    0.29804655613907444    0.3965763770246476    0.4839535600002525    
  0.5191896317130091    0.5163442307994527    0.47830098802654286    0.3865768933381668    0.28698901799671156    
  0.21198576317868048    0.16994616555639477    0.15704572559944768    0.16652405402716608    0.18908099622281535    
  0.2120139988464065    0.22182691892026216    0.21201405247517086    0.1890809869989948    0.16652403664755458    
  0.15704569321245584    0.16994612548805066    0.21198576371944378    0.28698906850617584    0.3865769087090161    
  0.47830091808793673    0.5163442307994527    0.5270694974285224    0.4934881080475283    0.4079314947555827    
  0.30895731517239255    0.2314044419766985    0.187343822976232    0.1738589814948531    0.1838577111356819    
  0.2078600573557439    0.23238685017711458    0.2428320323221584    0.23238685228035671    0.2078600650635858    
  0.18385769992194465    0.17385895603909343    0.18734380043475168    0.2314044752536207    0.30895729406462863    
  0.4079314450335305    0.4934880616994564    0.5270694974285224    0.48308268129820453    0.4735980580938024    
  0.4311676449602156    0.35429087670863946    0.27785389707379166    0.2301214030585686    0.21538987328205847    
  0.2270103192043586    0.2544231609757834    0.28195298563267    0.2933396538048811    0.28195302973031905    
  0.2544231337020398    0.2270103576715678    0.2153898928273073    0.23012139841452828    0.27785396027216513    
  0.35429076232895046    0.4311676895402097    0.4735979864000114    0.48308268129820453    0.3145119541170803    
  0.3469079752410954    0.400468455226825    0.3959368571736788    0.3392896261618647    0.2898280511279736    
  0.27353778978910026    0.2873322374110109    0.3179807814734367    0.3467046013431931    0.3578242706011538    
  0.34670460435299827    0.3179807745245165    0.2873322302101428    0.2735377462593457    0.2898280637910186    
  0.33928968132915055    0.39593679892129385    0.400468520066932    0.3469079490349139    0.3145119541170803    
  0.15056545727376758    0.19975892852203053    0.3254919261485405    0.41101140981723927    0.39137870769929634    
  0.34489211649339496    0.3276435902218581    0.34273169722027363    0.3738690681924182    0.40037430909127525    
  0.40979845099929585    0.4003743863691825    0.3738689919801781    0.34273168105377577    0.327643544044808    
  0.3448920115206001    0.39137875826285135    0.4110113731054942    0.3254919251018324    0.19975892338575685    
  0.15056545727376758    0.09881925121172687    0.14625900218949822    0.2875434952151598    0.41066688427865666    
  0.4112965583633025    0.36770684785109403    0.35034071474433853    0.365641283398217    0.3960281815041526    
  0.42055938275700183    0.42887571366264554    0.42055946735241034    0.39602814531127783    0.3656412434451377    
  0.350340768085269    0.3677067763983512    0.41129665127274884    0.4106669270394052    0.28754352553602947    
  0.14625891147393735    0.09881925121172687    0.2737953653859646    0.3077411952415085    0.36901200651927263    
  0.37576244267915104    0.3268210462609739    0.28272880726680266    0.2721140846899531    0.2935620080688615    
  0.3355309138145759    0.3771737877336597    0.3944556684751687    0.3771738813626875    0.33553089293586447    
  0.29356195404905955    0.27211413942083923    0.28272877621436737    0.3268211251089896    0.3757625063699157    
  0.3690119881064171    0.30774097453973254    0.2737953653859646    0.3193056817195542    0.34507265101322326    
  0.3832012619982561    0.36840466169239344    0.31214115127070646    0.26776060652021966    0.2570404269697203    
  0.27723820494002205    0.31731281720706517    0.35712351998232045    0.3736007287112255    0.3571235705084982    
  0.3173128284628844    0.2772381666328403    0.257040324845497    0.26776061072296475    0.3121412093078835    
  0.3684046008923154    0.38320134108109355    0.3450726207316167    0.3193056817195542    0.41987720036940934    
  0.4207691519148385    0.4016683649602727    0.34360117109307786    0.2755420541185649    0.23191637432985704    
  0.22116953045523477    0.23819574342130775    0.2731451162343351    0.30820249025156676    0.3227968982383831    
  0.3082025624129488    0.27314514909282495    0.23819573197970778    0.22116952122018194    0.23191640770201682    
  0.27554212842321646    0.34360109531799077    0.40166841539471754    0.42076918366465704    0.41987720036940934    
  0.48537808620116146    0.4609711826748951    0.3938391688852434    0.3078182897605471    0.23545748733214603    
  0.19413503951063715    0.18362549563657513    0.19756861508199286    0.22694532643104412    0.2567400212436977    
  0.26936479103596456    0.25673996831602824    0.22694532151370986    0.19756868581731463    0.1836254652358317    
  0.19413504601520137    0.2354575424325969    0.307818221991041    0.39383920074447826    0.46097109506179607    
  0.48537808620116146    0.49200534562337156    0.4574454846234953    0.3735351126831472    0.2807602036359867    
  0.20978141231441605    0.1705552855656193    0.16027338315874795    0.1725723720495361    0.1984844337067237    
  0.2245580986732701    0.2356740905335066    0.22455820591328501    0.19848447884885323    0.1725723649316557    
  0.16027333320490464    0.17055524146980502    0.20978142737801714    0.28076015523702796    0.3735351576779801    
  0.45744538094836507    0.49200534562337156    0.49672915504739307    0.4608468134827289    0.374197437897736    
  0.27986659684531634    0.2089119056125138    0.1698311803449775    0.1593571761282198    0.1712557043820312    
  0.19635605168468553    0.2213886953375684    0.23202132759875763    0.22138879192125382    0.1963560732467285    
  0.17125566826975613    0.15935720158259592    0.16983116210761312    0.20891194411677744    0.2798666518664621    
  0.3741974495463893    0.4608466701245926    0.49672915504739307    0.5158752325234335    0.4855518887610981    
  0.40622253627909716    0.31210015274603764    0.23762780703365877    0.19582573606175524    0.1846016097138641    
  0.19726910227293604    0.22414112065086345    0.2508382893303801    0.2620328709565722    0.25083832278447205    
  0.22414114569772114    0.19726910233861444    0.18460160245403762    0.19582566870539192    0.23762785129539857    
  0.31210012053951985    0.4062224762160483    0.48555184768187026    0.5158752325234335    0.46175533560834453    
  0.45985870015791336    0.4328801154714409    0.36717604008862575    0.2952687151834458    0.2493866705685774    
  0.23678723084882883    0.25116285487108275    0.28059696909540843    0.30826154656749477    0.31915611095000157    
  0.30826164319521715    0.2805969199072003    0.25116290948944836    0.23678719501756298    0.24938663827588517    
  0.29526884955619115    0.367175972780416    0.43288022934774784    0.4598586869337264    0.46175533560834453    
  0.2694596396973423    0.3105051720478628    0.3906650232090181    0.41376026407016386    0.36886871233059176    
  0.3219693707597469    0.30743347508702473    0.32267595398737037    0.3506480663745013    0.37193202276701626    
  0.37857429685992916    0.3719321215896034    0.3506480480317703    0.3226759604396389    0.3074334420491659    
  0.32196941381607946    0.3688687696701546    0.4137601925095444    0.39066504985437533    0.3105051076503332    
  0.2694596396973423    0.10576261185799218    0.15489577760058632    0.2998576448774863    0.42645189302931374    
  0.43002932791765064    0.38851549467434704    0.37268059918875734    0.38643454535747745    0.40654021118608996    
  0.4136717598444056    0.4127736830284863    0.4136718782937835    0.4065401164109735    0.3864344267043663    
  0.37268048708276885    0.3885153245620726    0.43002941634842307    0.42645173144126214    0.2998576606984473    
  0.1548957703549619    0.10576261185799218    0.061001760346499415    0.10398130684358373    0.2564526904548914    
  0.42349771640190276    0.4530417735467804    0.4160340653342285    0.4000407362393333    0.4123869658387789    
  0.4271320617976882    0.4260852481932579    0.42119522535225856    0.4260853128099534    0.42713208295417143    
  0.4123870126235427    0.4000408264120718    0.4160340558351476    0.4530418921587345    0.42349784022257236    
  0.2564526861709418    0.10398121162511204    0.061001760346499415    0.10576264643513288    0.15489578504004256    
  0.29985758883938796    0.4264518588673598    0.43002941887003937    0.3885154481761822    0.3726805617718354    
  0.3864344688297759    0.4065401990222058    0.4136718614401593    0.4127735723367527    0.4136718604184066    
  0.40654019133172015    0.38643439955389547    0.3726805276466382    0.38851544309704705    0.43002941669334555    
  0.4264517396302119    0.2998576424559334    0.1548957471293402    0.10576264643513288    0.26945966168487967    
  0.31050517698263985    0.39066500554462263    0.4137602615155501    0.36886870690288787    0.3219693314308115    
  0.3074334673533935    0.32267595435702434    0.35064807156553707    0.3719321090046402    0.3785742923824337    
  0.37193207311022514    0.35064798937322034    0.32267593518448906    0.30743345204221206    0.32196936160834616    
  0.3688687364144753    0.41376023233085857    0.39066508849463016    0.31050522075239056    0.26945966168487967    
  0.46175533573271776    0.4598587204704208    0.43288007246616433    0.36717603210612515    0.2952687553637741    
  0.24938668937785918    0.2367871827055279    0.25116285913708786    0.2805969904718132    0.30826158931235853    
  0.31915613235686713    0.3082615957453782    0.28059697660537664    0.2511628383485918    0.23678717405127347    
  0.24938668216796614    0.29526884478888216    0.36717598848238325    0.43288017689801606    0.45985874249242864    
  0.46175533573271776    0.5158751932468759    0.4855519581751576    0.4062224931683368    0.3121001367690694    
  0.2376278362266776    0.19582572772090423    0.18460161581516374    0.19726909320041017    0.22414112169100298    
  0.25083826243656    0.26203287609174064    0.2508383343520391    0.22414115149619235    0.1972690801072016    
  0.18460157931970214    0.1958257083733626    0.23762785820906387    0.31210006006103985    0.4062225494981732    
  0.48555189436813756    0.5158751932468759    0.4967290894463414    0.4608467445304969    0.37419741897072945    
  0.27986658141749404    0.2089119118417545    0.16983119440872516    0.15935718388617992    0.17125569448832764    
  0.19635608126968052    0.22138871449991818    0.2320213696055988    0.2213887751450685    0.19635603993787107    
  0.17125567903618874    0.15935717057972668    0.16983117628339994    0.20891194302393643    0.27986662803322293    
  0.3741974826450553    0.46084666703112553    0.4967290894463414    0.49200541941550846    0.4574453486803662    
  0.3735351463971465    0.2807602090131518    0.20978137746344677    0.17055526277223693    0.1602733539884253    
  0.17257237817212476    0.19848440666062844    0.2245581873945106    0.23567416123625828    0.2245581664140696    
  0.19848440945584825    0.17257238902664196    0.1602733637432269    0.1705552430555524    0.2097814501568575    
  0.2807602344297074    0.37353513773477015    0.457445405611868    0.49200541941550846    0.4853780703334887    
  0.46097118905325024    0.3938391831604555    0.30781834710720224    0.23545746837552586    0.1941350314598747    
  0.18362549654848348    0.19756864877790953    0.226945332317126    0.25673998202691045    0.2693648540611317    
  0.256740063772996    0.22694530258360998    0.19756867471639047    0.18362549202414777    0.19413504910812587    
  0.23545753062815353    0.3078182126904966    0.39383922826294043    0.4609711559219878    0.4853780703334887    
  0.4198771241292256    0.4207691685861199    0.40166835013687624    0.3436011112295027    0.27554209975846883    
  0.23191636569073681    0.22116954442873887    0.23819574056199277    0.2731451767601824    0.3082024567726577    