#     DFTpy    
  CRYSTAL 
    
  PRIMVEC    
  2.206310399685378    -3.8214417095226705    0.0    
  2.206310399685378    3.8214417095226705    0.0    
  0.0    0.0    7.2934336139680624    
  PRIMCOORD    
  4    1    
  Si    2.206310399685378    1.2738139031742235    0.4595556052993191    
  Si    2.206310399685378    -1.2738139031742242    4.10627241228335    
  Si    2.206310399685378    1.273813903174224    3.1871612016847117    
  Si    2.2063103996853783    -1.273813903174224    6.833878008668743    
  BEGIN_BLOCK_DATAGRID_3D    
  3d_datagrid_density    
  BEGIN_DATAGRID_3D#0    
  19    19    33    
  0.0    0.0    0.0    
  2.206310399685378    -3.8214417095226705    0.0    
  2.206310399685378    3.8214417095226705    0.0    
  0.0    0.0    7.2934336139680624    
  0.034740705406827714    0.036227331014902935    0.04125792173868162    0.05164227048285894    0.07065568242787146    
  0.10248085223811122    0.14891737678114134    0.20438155799330632    0.252264992809451    0.2714012459996758    
  0.25226498839104794    0.20438155867038732    0.1489173509117814    0.1024808700403313    0.0706556874246447    
  0.05164227786363618    0.04125791781309487    0.03622732996801851    0.034740705406827714    0.03622733135709961    
  0.03622619779417738    0.03949505118140133    0.04733362236704437    0.06257252685187775    0.08953855833995518    
  0.13218648969516378    0.18904240114437534    0.24798945299585454    0.2867088442785448    0.2866790462823692    
  0.2480110717871545    0.18907469287000347    0.13215245544680088    0.08953641489324769    0.06258101088922324    
  0.047331367293631854    0.03949552050222604    0.03622733135709961    0.04125791715391516    0.03949506112901881    
  0.04125959570253325    0.047329721351893624    0.060412642476450944    0.08521573411463053    0.12746006673695573    
  0.18959043815958848    0.26211666745944834    0.32114278017795617    0.34352724428975695    0.3211484816662653    
  0.2620552867111992    0.1896037372408164    0.12749252475583792    0.08520930381834829    0.06040685995505499    
  0.047331374009688384    0.04125791715391516    0.05164227717213376    0.04733363485066646    0.04732972595509125    
  0.051646304383338705    0.062569943332276    0.08521248974766667    0.12692229083211784    0.19368182124584316    
  0.2776993171094813    0.3474819059378388    0.37844870660179225    0.3784925014007682    0.3475185390899313    
  0.27771016857307085    0.19366352151982166    0.1269091029678278    0.08520928396004182    0.06258098764681665    
  0.05164227717213376    0.07065568169454177    0.06257252628770106    0.060412654836708345    0.06256995201747488    
  0.07066620810609733    0.08953601837199524    0.12747101683272258    0.1936681036647205    0.28367658312369504    
  0.35299780970813166    0.3606745228404969    0.3490664475723795    0.36057866186053295    0.3530313870863383    
  0.2836715620414773    0.19366353439117362    0.1274925060179022    0.08953640934770504    0.07065568169454177    
  0.10248088452547163    0.08953857665198106    0.085215729635943    0.08521249871907381    0.08953600645565134    
  0.10247065331736681    0.13218669228383018    0.18958520897328568    0.2777079232479677    0.35303679596863113    
  0.34037227188968167    0.283156662221961    0.28324246217525745    0.34035082058010474    0.35303142172220986    
  0.27771020784742273    0.18960372244013474    0.13215243843870972    0.10248088452547163    0.14891734177681978    
  0.13218644245513678    0.12746006728684142    0.12692228015496887    0.12747099078949808    0.13218667461502726    
  0.14889082016337885    0.18908563730908642    0.2620657472246656    0.34751821087211293    0.3605798588828977    
  0.28324076156100464    0.23728308531729894    0.2832424677305592    0.3605787086863548    0.3475184871270991    
  0.26205527727374783    0.18907471079529878    0.14891734177681978    0.20438158064338072    0.18904240487920018    
  0.18959040918831013    0.19368180669820279    0.19366812172954112    0.1895852096415953    0.1890856351006166    
  0.2043574495379544    0.2480081653883269    0.32114360051522556    0.3784810845217196    0.3490492890836969    
  0.2832407627156911    0.28315666176748044    0.3490664954827986    0.3784925920726784    0.32114845952531135    
  0.24801107600310027    0.20438158064338072    0.25226496864621667    0.24798943232384874    0.2621166425961173    
  0.27769932685929244    0.2836765433502544    0.27770791716323945    0.2620657804910135    0.2480081649545039    
  0.2522783415322988    0.2866790127022504    0.3435368760917698    0.37848110080504727    0.3605798877802655    
  0.34037228521917173    0.36067457012943355    0.378448672060227    0.34352720839991024    0.2866790428778682    
  0.25226496864621667    0.2714012654205971    0.2867088861255386    0.32114274765598205    0.3474818894706821    
  0.352997807579126    0.35303678704846037    0.34751821074538725    0.32114353754689295    0.28667897755262556    
  0.2714163405847006    0.28667897775951956    0.32114354565536124    0.3475181853427684    0.35303680242996216    
  0.35299780391771524    0.3474819421009677    0.32114271495268343    0.28670888423035257    0.2714012654205971    
  0.2522650237060026    0.286679039904221    0.34352729326874964    0.3784486530943533    0.36067455926965725    
  0.34037223505381103    0.3605799207558526    0.378481096691608    0.3435369055701665    0.2866790200975103    
  0.2522783159008937    0.2480081894387959    0.2620657598996453    0.2777079150196478    0.28367654373248036    
  0.27769935920511785    0.2621165776541175    0.24798941437038494    0.2522650237060026    0.20438156108723596    
  0.24801108685492193    0.32114853307894753    0.3784924822112894    0.3490664790546942    0.2831566449165898    
  0.28324079286240733    0.34904928834384963    0.3784810615935025    0.32114359168237355    0.2480081805521659    
  0.2043574245924145    0.18908562181621658    0.18958519147725827    0.19366815893198222    0.19368181037383858    
  0.18959042643157506    0.1890424226188289    0.20438156108723596    0.14891733521284148    0.18907470523739325    
  0.26205531068144244    0.3475185378376469    0.3605786652872927    0.28324241477780865    0.23728313566743547    
  0.28324077677255444    0.3605798525707005    0.3475181818483032    0.2620657864761151    0.1890856013501327    
  0.1488908048083842    0.13218667254380095    0.12747100436391565    0.12692230160637108    0.12746004523897525    
  0.1321864527943692    0.14891733521284148    0.10248087156311224    0.1321524459341015    0.18960373516235277    
  0.27771018539488973    0.35303141874778293    0.34035077882585446    0.28324248533482055    0.28315659688678146    
  0.34037229482167014    0.3530368151839772    0.2777079100849804    0.18958519879322056    0.13218667561736222    
  0.1024706684160008    0.08953602010565179    0.08521249666343081    0.08521571680254997    0.08953856919947713    
  0.10248087156311224    0.07065568120079306    0.08953641865774112    0.127492537699267    0.19366354171318378    
  0.2836715333068037    0.3530313732621355    0.36057871725399787    0.3490664361925117    0.36067459573571353    
  0.3529978238098431    0.283676563934041    0.19366810968383427    0.1274710058472915    0.0895360208786724    
  0.07066622063959127    0.06256997048681115    0.060412643566703214    0.06257252713070748    0.07065568120079306    
  0.05164227287460899    0.06258098846374514    0.08520930741836369    0.12690908328696388    0.19366349657397364    
  0.27771014611229167    0.3475185421035048    0.3784925312584671    0.3784486626213303    0.3474819373526218    
  0.2776993364125741    0.1936818056069049    0.1269222975729534    0.08521249747032912    0.06256996280697742    
  0.05164630112148814    0.04732972564025768    0.04733362189390714    0.05164227287460899    0.04125791731685042    
  0.04733138238064146    0.06040686730226684    0.08520929429372555    0.12749254288710668    0.1896037134512045    
  0.26205531351814887    0.3211485170574323    0.3435272727425814    0.32114272803521    0.26211661761559696    
  0.18959039716976708    0.12746004263877567    0.08521574391299233    0.060412649987001334    0.04732974420676087    
  0.041259577991815836    0.039495054746649765    0.04125791731685042    0.03622733381896606    0.03949551829549009    
  0.04733138319237657    0.06258097852852386    0.08953641639263002    0.13215243409948818    0.18907474720074383    
  0.24801107845635392    0.2866790624570891    0.28670889409525835    0.24798944930584857    0.1890423734302514    
  0.13218648067589342    0.08953857980122497    0.06257252873271056    0.047333632649198265    0.03949505408027527    
  0.03622620090822369    0.03622733381896606    0.034740705406827714    0.036227331014902935    0.04125792173868162    
  0.05164227048285894    0.07065568242787146    0.10248085223811122    0.14891737678114134    0.20438155799330632    
  0.252264992809451    0.2714012459996758    0.25226498839104794    0.20438155867038732    0.1489173509117814    
  0.1024808700403313    0.0706556874246447    0.05164227786363618    0.04125791781309487    0.03622732996801851    
  0.034740705406827714    0.03425339335662657    0.035701013841155434    0.04060563431438354    0.05070658003216328    
  0.06910001609804195    0.09963166834937978    0.14387239644365132    0.19653193445788045    0.24177354381626665    
  0.25977399365055187    0.24172626384042686    0.19652881404121245    0.14393374342673762    0.09961763779014293    
  0.06908365915545167    0.05070917149059108    0.04060618907173094    0.03570118098710453    0.03425339335662657    
  0.0357011848320136    0.03570012393940013    0.038591296630183444    0.0455063871418636    0.05875789662652388    
  0.08198037611814792    0.11835896829423911    0.16629550216479116    0.21592622805263412    0.24871559438655583    
  0.24870886531478087    0.2159706983432467    0.16630117858828894    0.11830283654925769    0.08198931486474118    
  0.05877532460104923    0.045502985941582766    0.03859098486256464    0.0357011848320136    0.040606197007308754    
  0.03918522217823266    0.040607146973191836    0.045500362571592    0.05596993013752404    0.07555433599831027    
  0.1084500808768381    0.15650099964458583    0.2133722415323122    0.2616374885992435    0.28072698709534405    
  0.26164040175963654    0.21332820356940715    0.15649877194434067    0.10850251374149193    0.07554635769973123    
  0.055953860703121854    0.04550299973839629    0.040606197007308754    0.05070916197172328    0.04755035577816321    
  0.04754784935591403    0.050712850323270914    0.05875495302523714    0.07554479640389046    0.1062608459107826    
  0.1551555221013081    0.2195623246328355    0.28217903860450466    0.3192812603237997    0.31929405612667666    
  0.28217389235876283    0.2196022582425246    0.15515794166878877    0.1062139756391991    0.07554633195211526    
  0.058775301521084615    0.05070916197172328    0.06908365668314537    0.06387161840796311    0.06252990481577528    
  0.06386982271121432    0.06910517965220442    0.0819927933264401    0.1084498097464779    0.15516771017786865    
  0.2231401462769086    0.294717768314924    0.34053017873872804    0.3534942239343184    0.34051441650952347    
  0.2947318680903211    0.22310192491969374    0.15515795415705208    0.10850249171074103    0.08198932048206635    
  0.06908365668314537    0.0996176404229268    0.09268655625152811    0.09103902819283964    0.0910398149614971    
  0.0926616298894159    0.0996129420048957    0.11835980062814241    0.156485452927877    0.2195680588590483    
  0.29473692317549655    0.34425547115781946    0.3550105737052423    0.35502984541433774    0.3442457533551702    
  0.29473187334344647    0.2196022803988997    0.15649875244176525    0.1183028289493387    0.0996176404229268    
  0.1439337346946812    0.1381354482883385    0.13975773377041464    0.14123008932923128    0.13979274035340566    
  0.13813888516959155    0.14386921360835075    0.16632014461352812    0.21335914999324226    0.28216777131562076    
  0.3405139925320704    0.3550275750639217    0.3500833700160723    0.3550298415831181    0.34051441030049634    
  0.28217385323344524    0.21332818242379878    0.16630116463514058    0.1439337346946812    0.19652883263561532    
  0.1986067610778919    0.21096320036347974    0.22083512845158848    0.22078378166117504    0.21095677891541537    
  0.19868890133828013    0.19650618706706446    0.21593216293874273    0.2616554093823516    0.31928879181477215    
  0.3534918130304264    0.35502762007938554    0.35501055569422324    0.35349422530717933    0.3192941201454123    
  0.2616403786301724    0.21597070885124253    0.19652883263561532    0.2417263240365163    0.2605177018476721    
  0.29105189864983233    0.3133454552124326    0.3199222500384405    0.31336586037128233    0.2909472670521588    
  0.2605424275065556    0.24177175043201257    0.2486983843091863    0.28072279031346636    0.3192888300209261    
  0.3405140086283415    0.3442554620967858    0.34053027300307204    0.3192812611686581    0.2807269407570822    
  0.24870891378413287    0.2417263240365163    0.25977395760971217    0.30048490098665964    0.3512115741643991    
  0.3706694083947416    0.3576049822743727    0.35767129777394324    0.3707650921067564    0.35120807341298205    
  0.3004119682649776    0.2598015816008551    0.24869836958154473    0.2616553615254345    0.28216774788962873    
  0.29473692420261005    0.2947177710749317    0.2821790430332663    0.26163745889156526    0.2487155779689466    
  0.25977395760971217    0.24177357775835095    0.3004208914131705    0.37223778037000327    0.37884617153353883    
  0.3024896809393051    0.2570198135014922    0.3023240366393869    0.3788784535261992    0.3723014052100568    
  0.3004119503781166    0.24177166221707946    0.21593212029161363    0.21335912209254895    0.21956805945894187    
  0.2231401083522409    0.2195623980618199    0.21337217206642692    0.21592620564066678    0.24177357775835095    
  0.196531977988027    0.26051396374788166    0.3512326684790832    0.37891819515209574    0.262976412124335    
  0.15244555462627518    0.1525431899666189    0.2629755507322109    0.3788784250702227    0.3512081045434743    
  0.260542478690027    0.1965061796518093    0.16632013883168933    0.15648543859388742    0.1551677395934747    
  0.15515554087673714    0.15650097864671078    0.16629549742993083    0.196531977988027    0.14387239760541726    
  0.19868837856209381    0.29094557743725613    0.3707648135087457    0.30232217538406086    0.15254413459211    
  0.0970402511301292    0.1525431867946119    0.3023239490389595    0.3707650389580402    0.29094730981189615    
  0.19868887264339583    0.1438692112060248    0.11835978484136171    0.10844981966941368    0.10626083335442758    
  0.10845004957975794    0.11835893696085963    0.14387239760541726    0.09963168097333863    0.1381127096489631    
  0.21098687324721271    0.3133424263584173    0.35763789481899644    0.2570168715314692    0.15254418336733913    
  0.1524455108565887    0.2570198278930387    0.3576713520366215    0.31336580652695983    0.21095678576208504    
  0.13813890107609852    0.09961294560768512    0.08199280311848094    0.07554480506737753    0.07555431504840787    
  0.08198037960770524    0.09963168097333863    0.06910001716830369    0.09266445599613883    0.13979344187086437    
  0.22077439162198162    0.3199779237301218    0.3576378421638049    0.3023222299997563    0.26297637885117514    
  0.3024897398185847    0.3576049531827866    0.31992227829890413    0.2207837737866454    0.13979274336385458    
  0.09266162907311037    0.06910519505437404    0.058754969056504236    0.055969921377236005    0.05875790360699439    
  0.06910001716830369    0.050706582816898764    0.06387876151280074    0.09103025114909472    0.1412492914346725    
  0.2207743773222457    0.31334242432148396    0.3707648317224065    0.3789182431307919    0.3788461638183468    
  0.3706693926652093    0.3133454972471704    0.22083513239631106    0.1412300997956901    0.09103981462163366    
  0.0638698283930175    0.05071285221670645    0.04550036215150649    0.04550640217291277    0.050706582816898764    
  0.04060562748225125    0.04754861277700885    0.06252940079949908    0.09103023974671712    0.1397934332423769    
  0.2109868495078337    0.29094560608182146    0.3512326386562852    0.372237772750942    0.35121158002632386    
  0.2910518614981721    0.21096317566862333    0.13975772513496498    0.09103902603045064    0.06252990508763401    
  0.04754785541259979    0.04060712421206139    0.038591294190087236    0.04060562748225125    0.03570101982328381    
  0.03918617295375989    0.04754861803218326    0.06387876886955954    0.09266446290956795    0.13811271423128552    
  0.19868836773455134    0.26051394616212514    0.3004209491639222    0.3004849415740959    0.2605176994811467    
  0.1986067645399684    0.13813545005234976    0.09268654860903493    0.06387162152368585    0.0475503543828016    
  0.03918521436674026    0.03570011527994452    0.03570101982328381    0.03425339335662657    0.035701013841155434    
  0.04060563431438354    0.05070658003216328    0.06910001609804195    0.09963166834937978    0.14387239644365132    
  0.19653193445788045    0.24177354381626665    0.25977399365055187    0.24172626384042686    0.19652881404121245    
  0.14393374342673762    0.09961763779014293    0.06908365915545167    0.05070917149059108    0.04060618907173094    
  0.03570118098710453    0.03425339335662657    0.03287220262901574    0.034224067363555474    0.03878583556964308    
  0.04807202969479568    0.0647227890430701    0.09175211998398747    0.13018780511226874    0.17527706201214635    
  0.21351771748363288    0.2285948704717187    0.21345621046836177    0.1752696500108817    0.1302625006603964    
  0.09173857246160183    0.06469821395786583    0.04807595807922513    0.038786533656229666    0.03422461678183258    
  0.03287220262901574    0.03422461588118759    0.03422575392244272    0.036648435115645625    0.042456343300852406    
  0.053358818441654444    0.07202693223564761    0.10059417885874461    0.13740629891047873    0.17488316686749034    
  0.1994173752395734    0.19941411591754488    0.17493582443805747    0.1374079721247158    0.10053484095419997    
  0.0720341353742536    0.05338348345416652    0.04245066766054374    0.036649307799076616    0.03422461588118759    
  0.03878654047331868    0.03774021902745051    0.03878676224899619    0.04244743179979662    0.05026600197213483    
  0.0645699623215729    0.08805773614091952    0.12166155214459715    0.16090743755275516    0.19419660169259492    
  0.20745636120913247    0.19419858019711597    0.1608646094884292    0.12165558971623257    0.0881139547194045    
  0.06456282929181452    0.05024458316213393    0.04245067946712661    0.03878654047331868    0.048075948687248106    
  0.04606774052196141    0.046063589362026966    0.04808194110318201    0.05335641787873918    0.06456272903158163    
  0.08492665323579388    0.11678148134138197    0.15878881686297194    0.2014936910889019    0.22881029825462226    
  0.2288195613176381    0.20148018776842072    0.1588364768866507    0.11678465435839411    0.08487625263516145    
  0.06456280762223196    0.0533834652603378    0.048075948687248106    0.06469821697651906    0.062158549036183425    
  0.06161179112386751    0.06215746351327913    0.06472511761799793    0.07203814719297759    0.08805579299494466    
  0.11679455447158844    0.15939336779090982    0.20885219567093163    0.24907637584368747    0.2643660437810326    
  0.24907571652148852    0.2088620025345413    0.1593501370454692    0.11678468491006382    0.08811395035601946    
  0.07203413035790258    0.06469821697651906    0.0917385828628387    0.09025485350653299    0.09102205047604782    
  0.09102478884275524    0.09021786576989159    0.09173698208443187    0.1005951825309523    0.12164745928955724    
  0.15879241303803585    0.20887209697957176    0.2567391188686453    0.2846417666802455    0.2846400518692852    
  0.25673808459331127    0.20886199115607004    0.1588365194801942    0.12165555887405537    0.10053485613353667    
  0.0917385828628387    0.13026247329256532    0.13396423681105937    0.14099837724875025    0.14420822870124472    
  0.14104603626582882    0.13397130249246825    0.1301870168225785    0.13742453590336587    0.16090283681551618    
  0.20147149675517775    0.24907537471101016    0.28463761747566385    0.29679027173854544    0.2846400222764861    
  0.24907572882107573    0.20148013350249772    0.16086457154389128    0.13740797045241945    0.13026247329256532    
  0.17526964174322987    0.1913477003959659    0.21315633350471    0.2276964756751515    0.22762707754578604    
  0.2131453027248863    0.19143914454517819    0.17525583904894443    0.1748838607757253    0.19422090760300548    
  0.2288114506118463    0.2643726735430262    0.2846376193908537    0.28464173682364863    0.26436608040811554    
  0.22881963562385071    0.19419855548757767    0.1749358310343922    0.17526964174322987    0.21345627053308885    
  0.24908938973602465    0.2918617868741898    0.3198766868490041    0.32752527040151236    0.31990754575374053    
  0.2917442019238193    0.24910730028117165    0.21351546118834955    0.19939699749767176    0.20745323772707303    
  0.228811455723497    0.24907536107644684    0.25673909690645935    0.24907645317780383    0.2288102798601403    
  0.20745631024794942    0.1994141255162392    0.21345627053308885    0.22859489655958906    0.2857154286562103    
  0.34758275679414674    0.3657048606313844    0.34523581121482794    0.3453073682572577    0.36580748195117097    
  0.3475949540430439    0.2856146619255809    0.22863639406668454    0.19939697196535097    0.19422088045578573    
  0.20147149405078768    0.20887207604444083    0.20885219883175    0.20149371189946386    0.19419657517889172    
  0.19941740095229485    0.22859489655958906    0.21351772918662912    0.28563485306682523    0.36584131007961296    
  0.36019844716535004    0.26309317891006684    0.2115664599136234    0.26293290150159454    0.3602063322218032    
  0.3659410269508814    0.2856146489751745    0.21351541629104936    0.17488389318040742    0.16090283045220388    
  0.15879242955280237    0.15939334307939057    0.15878883484375778    0.16090742225735005    0.17488311352664807    
  0.21351772918662912    0.17527708019615346    0.24907623192456982    0.3476171254761028    0.36027098890559894    
  0.21518294878614522    0.10276895830337744    0.10283310875424105    0.21520911309563567    0.36020631243577356    
  0.34759496329657535    0.2491073585206986    0.1752558488426834    0.1374245376342079    0.12164746257618604    
  0.11679461000254458    0.11678149368974736    0.12166154835399055    0.13740630416223906    0.17527708019615346    
  0.13018778933555258    0.1914395039348877    0.2917445804742475    0.36580760954846814    0.2629319070074054    
  0.10283326085655191    0.05469520811711243    0.102833114206432    0.2629327925452053    0.36580745373372453    
  0.2917442008914753    0.19143910599251632    0.13018702717079333    0.1005951722320519    0.08805577105010118    
  0.08492663843508368    0.08805771058007689    0.10059414697183452    0.13018778933555258    0.09175212855585782    
  0.13395136123746437    0.21317358266079336    0.3198862628703593    0.3452452291710098    0.2115924733402644    
  0.10283328111517276    0.10276893873315204    0.211566485959857    0.3453073634631792    0.3199075144770501    
  0.21314528382401723    0.13397128593246663    0.09173698931452291    0.07203815682555408    0.06456274981185135    
  0.06456994820962016    0.07202692991727289    0.09175212855585782    0.06472278743800813    0.09021902994014235    
  0.14104540518750128    0.22760879734252637    0.32761825314662835    0.34524519475092247    0.2629319771255291    
  0.2151829668148238    0.2630931994852553    0.34523580353360395    0.32752526257880193    0.2276270885823106    
  0.14104603811473307    0.09021786456710745    0.06472512209156506    0.053356432628935094    0.050266002920747364    
  0.05335881102820813    0.06472278743800813    0.04807203070742829    0.06216929209222566    0.0910105457438971    
  0.14424048693398522    0.22760880904971165    0.31988622788882876    0.3658076195550257    0.3602710216067742    
  0.3601984379056811    0.3657048428419991    0.31987667953123233    0.22769646923354953    0.14420823115157677    
  0.09102478835922358    0.062157462406301184    0.04808193676404875    0.042447425357092734    0.0424563503739142    
  0.04807203070742829    0.038785834814182726    0.04606377362396079    0.061612538843917895    0.09101052641848371    
  0.14104538887971232    0.213173556872003    0.29174456086831924    0.3476171023561728    0.3658413330918244    
  0.34758274331775163    0.29186172314005404    0.2131563151461109    0.14099836088590714    0.09102205312793549    
  0.061611786585288354    0.04606360895796798    0.03878673341920127    0.03664843531639307    0.038785834814182726    
  0.034224072937328126    0.03774373572350174    0.046063774347877    0.06216928025366208    0.09021905396460078    
  0.13395133366436718    0.19143951552270094    0.2490762434440343    0.285634875535253    0.28571541590061367    
  0.24908936814279337    0.19134771263913322    0.13396426795591093    0.0902548533288967    0.06215855344190011    
  0.04606774271335976    0.03774021490313799    0.03422575603914327    0.034224072937328126    0.03287220262901574    
  0.034224067363555474    0.03878583556964308    0.04807202969479568    0.0647227890430701    0.09175211998398747    
  0.13018780511226874    0.17527706201214635    0.21351771748363288    0.2285948704717187    0.21345621046836177    
  0.1752696500108817    0.1302625006603964    0.09173857246160183    0.06469821395786583    0.04807595807922513    
  0.038786533656229666    0.03422461678183258    0.03287220262901574    0.03084274597349297    0.032071990031213755    
  0.03613216041392269    0.044217104593517596    0.05836348135421953    0.08065598229061705    0.11137267205987354    
  0.1465263795064023    0.1757514669437031    0.18714661593742374    0.1757098532728867    0.14652218501099185    
  0.11143169615644763    0.08064252312845148    0.05834612666042631    0.04421904174871191    0.03613262103732704    
  0.03207289221936255    0.03084274597349297    0.03207288991713958    0.032071974290884396    0.034087474046164884    
  0.03881694427886877    0.04743874972018166    0.06165258169655269    0.08261948467004132    0.10877452805973857    
  0.13475992614446572    0.15148029443538857    0.15148147600197992    0.1347908850249016    0.10877814743843642    
  0.08257124947436387    0.061663495332140314    0.047453561743539145    0.038815613452225096    0.03408573741251195    
  0.03207288991713958    0.036132620426143076    0.03537436577958169    0.03613287268409929    0.03881305818425198    
  0.04442101536192919    0.05434751733795203    0.07008715760328478    0.09185438134562904    0.11653357459857151    
  0.13707213574631857    0.14517874748150816    0.13707328333244484    0.11650721443396637    0.091850201923598    
  0.070128003197533    0.05434075346419595    0.0444059238842882    0.03881562003988746    0.036132620426143076    
  0.04421903020387724    0.043055240665345204    0.04305290758983966    0.04422218506442659    0.04743630944215543    
  0.054338115979579146    0.06681258707518564    0.08586518157335164    0.11035674863905212    0.13496977195827164    
  0.15078306166105346    0.15078616805881967    0.13496360833476073    0.11038345155144494    0.08587096651201712    
  0.0667741423891335    0.054340738194974036    0.04745353452565541    0.04421903020387724    0.05834611715351601    
  0.05765388517816433    0.05765387251751371    0.05765320642563742    0.05836514594091149    0.06166588830599263    
  0.07008568926025667    0.08588009146380242    0.10922520163590779    0.13653640997308303    0.15963881994619453    
  0.16880996378276578    0.15963949506157257    0.13654158702517002    0.10919928866604638    0.08587097672959465    
  0.07012799787415651    0.06166350625148387    0.05834611715351601    0.08064253218539146    0.08267946641650299    
  0.08489586854230162    0.0848967071749325    0.08265462331989769    0.08064013460730077    0.08261949944307377    
  0.091838699866935    0.11035952628865017    0.13654387644473084    0.16355463701798711    0.18108315369556813    
  0.181084410272284    0.1635511125080566    0.13654158714948272    0.11038342964427991    0.09185019601482713    
  0.08257123622131704    0.08064253218539146    0.11143170612893559    0.1207767551676374    0.13057036321159135    
  0.13461440797554194    0.13060432976400121    0.1207800838416316    0.111373267076356    0.10879334264038062    
  0.11653027546317524    0.134959520998991    0.15963950458462808    0.18108286346064575    0.18949972577301707    
  0.18108441510671403    0.15963951036302904    0.134963580351963    0.11650719289864607    0.10877812688196302    
  0.11143170612893559    0.1465221865680611    0.16979315529826977    0.19587633538149532    0.21261249427751125    
  0.21256163792043775    0.19587180609166316    0.169868456842021    0.14650381727152403    0.134762077306381    
  0.13708309244825356    0.15078386051454234    0.16881088525426763    0.18108289932491833    0.18108315617113194    
  0.16880997663879407    0.15078622439989928    0.13707329138554872    0.13479086246852526    0.1465221865680611    
  0.1757098335475935    0.21835146716973886    0.267185206550684    0.30136131423800705    0.312118694862266    
  0.3013801310437808    0.26708369945993066    0.21837561583378967    0.17574598050829024    0.15147179742307001    
  0.14517681113219622    0.15078387663437556    0.15963951848399593    0.1635546140797504    0.15963885588895155    