#     DFTpy    
  CRYSTAL 
    
  PRIMVEC    
  1.7004546180410687    -2.9452737944122602    0.0    
  1.7004546180410687    2.9452737944122602    0.0    
  0.0    0.0    5.749378034137931    
  PRIMCOORD    
  2    1    
  Si    1.7004546180410687    0.9817579314707532    1.4373445085344827    
  Si    1.700454618041069    -0.9817579314707532    4.312033525603447    
  BEGIN_BLOCK_DATAGRID_3D    
  3d_datagrid_density    
  BEGIN_DATAGRID_3D#0    
  15    15    25    
  0.0    0.0    0.0    
  1.7004546180410687    -2.9452737944122602    0.0    
  1.7004546180410687    2.9452737944122602    0.0    
  0.0    0.0    5.749378034137931    
  0.0344674993882325    0.035948517618242956    0.040387419917607435    0.04775428377916374    0.057622481636379896    
  0.06834327435879932    0.0769909888856916    0.08038681559123696    0.07699100426448298    0.06834326790674511    
  0.057622481511173905    0.04775427395346499    0.04038742759765754    0.03594852513337254    0.0344674993882325    
  0.03594853625283622    0.0359482828761423    0.03891906532469188    0.04489852461226417    0.05376798641586964    
  0.06455538934223964    0.07486747023080854    0.08139792616940611    0.0813981042044637    0.07486840159915051    
  0.06455583646920098    0.05376747416605848    0.044898226089053125    0.038919315565492545    0.03594853625283622    
  0.040387433589061876    0.03891907074450299    0.04038749450674338    0.044898499518246406    0.05257515061916789    
  0.06299271872685036    0.07439079727870174    0.08363919388591554    0.08727537853724547    0.0836385903200553    
  0.07439037783156761    0.06299221962287051    0.05257682017489867    0.04489822225713429    0.040387433589061876    
  0.04775428008522471    0.044898514409857294    0.04489849227651674    0.0477541304866246    0.0537676001470955    
  0.06299221395698182    0.07443930614360177    0.08546795664109322    0.09241232725494353    0.09241114466791103    
  0.08546861420771162    0.07444008429639584    0.06299224970049665    0.05376747578519759    0.04775428008522471    
  0.05762248007425374    0.053767985264780604    0.052575137812092235    0.053767604248213884    0.05762212868190007    
  0.06455604475946156    0.0743911156427461    0.08546764247441102    0.09448259571744928    0.09798904707480761    
  0.09448336290713494    0.08546858583520568    0.07439038554940167    0.06455583882485422    0.05762248007425374    
  0.06834327818642089    0.06455537913482708    0.06299270091739131    0.0629922132600992    0.06455606460847642    
  0.06834239606927679    0.07486741972169747    0.08363879636755    0.09241222668376303    0.09798907025567136    
  0.09798905231696459    0.0924111498201556    0.08363861273301226    0.07486838803563461    0.06834327818642089    
  0.07699100365750826    0.07486746868160633    0.07439080152337986    0.07443931591593032    0.07439110057393224    
  0.07486741713196891    0.07699130763758874    0.08139742342810666    0.08727511449145625    0.09241224331836162    
  0.0944826080199744    0.09241232676262381    0.08727538710304984    0.08139810940291893    0.07699100365750826    
  0.08038682268959642    0.08139791530677015    0.08363920005975871    0.08546795996745553    0.08546765472552714    
  0.08363880132206344    0.08139742369548486    0.0803878898686936    0.08139743438240421    0.08363879486578465    
  0.08546765794810916    0.08546795514459596    0.08363921131116277    0.08139792108309048    0.08038682268959642    
  0.07699101037670805    0.08139810407226782    0.08727536627424803    0.09241234045047983    0.09448259188010996    
  0.09241223560066422    0.08727511223698768    0.08139743861582653    0.07699129536038102    0.07486741878554812    
  0.07439111665613342    0.07443929337216557    0.07439078837035298    0.0748674805945332    0.07699101037670805    
  0.06834327585177914    0.07486840630847476    0.08363858990830966    0.09241114424746553    0.09798904232002058    
  0.09798908563436377    0.09241224694318127    0.08363878561640102    0.07486740663076723    0.06834239535032684    
  0.06455606316342248    0.06299220419128682    0.0629927230764553    0.06455537941589207    0.06834327585177914    
  0.057622489688073285    0.06455581794105326    0.07439035982913933    0.08546862476810228    0.09448336488185706    
  0.09798903308734284    0.09448259179923649    0.08546765222331196    0.07439112229428653    0.06455605628412193    
  0.057622134212494305    0.05376759342736305    0.052575146837136655    0.05376798074299796    0.057622489688073285    
  0.04775428190927766    0.05376747597089293    0.06299223211860398    0.07444009267160215    0.08546860513869782    
  0.09241113240681278    0.0924123298474459    0.08546795616856456    0.07443929851067686    0.06299221245764997    
  0.05376761322816545    0.04775412913704762    0.04489850470968084    0.04489852168007551    0.04775428190927766    
  0.04038743393174203    0.04489822065367763    0.05257680284474693    0.06299225017085272    0.07439037908777302    
  0.08363860347658449    0.08727537071256997    0.08363920854432672    0.07439078478852451    0.06299271299030325    
  0.05257515341991712    0.044898490889283424    0.04038750203677539    0.038919068149332034    0.04038743393174203    
  0.035948527046994194    0.03891931348510516    0.044898232169245225    0.0537674810856643    0.06455581735243628    
  0.0748684053602923    0.08139810117978337    0.08139793004500619    0.07486747846792048    0.06455538431022004    
  0.0537679889853555    0.04489851667600887    0.03891906828942432    0.035948279706913715    0.035948527046994194    
  0.0344674993882325    0.035948517618242956    0.040387419917607435    0.04775428377916374    0.057622481636379896    
  0.06834327435879932    0.0769909888856916    0.08038681559123696    0.07699100426448298    0.06834326790674511    
  0.057622481511173905    0.04775427395346499    0.04038742759765754    0.03594852513337254    0.0344674993882325    
  0.035912741977115595    0.03757271190730482    0.04265059012015214    0.05124934936553487    0.06289296506946053    
  0.07564896950998089    0.08598431214480337    0.09003441209903296    0.08598410367355748    0.07564841419030187    
  0.06289342543030303    0.05124924434851156    0.042650414118310345    0.03757252112228294    0.035912741977115595    
  0.037572530524761574    0.037572355770963295    0.04008943894501104    0.04515017015794332    0.05264192978383495    
  0.06169996476776921    0.07031827663467682    0.07580324714470679    0.07580364610303664    0.07031920792341317    
  0.061699789500311894    0.05264173428898383    0.045149872929872596    0.04008995884677556    0.037572530524761574    
  0.0426504154178568    0.041834467090254304    0.042650597741072674    0.04515000410324479    0.0494202558116102    
  0.05525880721608712    0.061643084678650775    0.06683567409980291    0.06889864734446116    0.0668352999021816    
  0.06164285584616963    0.05525885154945178    0.049420842606670415    0.04514986308647598    0.0426504154178568    
  0.05124926039173691    0.05073992698460451    0.05074016488922638    0.05124910747159784    0.05264159660086325    
  0.05525861531463111    0.058961845996924146    0.06277206809208354    0.06524408333511252    0.06524332422381429    
  0.06277207055703662    0.05896236221297441    0.05525887016531107    0.05264174336994633    0.05124926039173691    
  0.06289341914786788    0.06435231666716787    0.06501907917061775    0.06435217789652085    0.06289275430447183    
  0.06170018377712588    0.06164347461338559    0.06277139835264911    0.06417896923228933    0.06480340745385914    
  0.06418013090475358    0.06277204762612819    0.06164286834865113    0.061699782311176454    0.06289341914786788    
  0.07564841017032839    0.08132865848796939    0.08505985712048558    0.08505952338108183    0.08132940143122078    
  0.07564828616930377    0.07031823528914655    0.06683512922497378    0.06524405791275152    0.06480393613633241    
  0.064803412901692    0.06524332945695217    0.06683530824537355    0.07031918372718503    0.07564841017032839    
  0.08598409634743424    0.09785997068412425    0.10771181313774007    0.11155761161572827    0.1077109795347872    
  0.09786000482691072    0.08598430439459966    0.075803240571868    0.06889837951202311    0.06524408903021534    
  0.06417897484960135    0.06524407578254933    0.06889864038520657    0.07580363832025268    0.08598409634743424    
  0.09003442724097079    0.10829626034245929    0.12636187330396287    0.1377718188317084    0.13777349745423517    
  0.12636255590510176    0.10829555563971185    0.09003517476545114    0.07580325210271632    0.06683512816331244    
  0.06277140878840581    0.0627720520036681    0.06683568312139114    0.07580320940130986    0.09003442724097079    
  0.08598431952843406    0.10829598955814194    0.13364375349981664    0.15443219465179708    0.16251071335876685    
  0.15443200953199224    0.13364441530155172    0.10829556066010229    0.08598430283121258    0.07031823454752689    
  0.0616434847228164    0.05896182387118553    0.061643079262216315    0.07031828946114874    0.08598431952843406    
  0.07564896588098524    0.09786040093754834    0.12636185241491776    0.1544315455186949    0.17214895276708594    
  0.17214564608247732    0.15443201619368296    0.1263625467435104    0.09785999240828211    0.07564827095968235    
  0.06170018693830402    0.055258613866573894    0.05525881434528219    0.06169994531674569    0.07564896588098524    
  0.06289297997994539    0.08132939415842329    0.10771128945151212    0.13777357512612903    0.16250851703642033    
  0.17214895356263338    0.16251072392473487    0.13777350369145383    0.10771100403191168    0.08132939974065817    
  0.06289275135097029    0.052641589244566876    0.04942025036075106    0.05264192902405109    0.06289297997994539    
  0.05124935052532353    0.06435187119812502    0.0850596573582837    0.11155765587775268    0.13777356946590966    
  0.15443152422028905    0.15443222119391467    0.13777183074333044    0.11155757789274223    0.08505952989123189    
  0.06435217656857353    0.051249096750549235    0.04515001065318664    0.045150174693335654    0.05124935052532353    
  0.04265060013642544    0.050740015286722374    0.06502066868717529    0.0850596782600271    0.10771130932897643    
  0.12636185982964487    0.1336437724955036    0.12636189401712575    0.10771179728889947    0.08505988404639499    
  0.06501909147108273    0.05074016542512653    0.04265060816488666    0.04008943885987795    0.04265060013642544    
  0.037572723235319495    0.041834302289423086    0.050740025303032704    0.06435187888918795    0.0813293890923237    
  0.09786036876713924    0.10829598825005078    0.10829627380843439    0.09785998988575192    0.08132864770764495    
  0.06435231748820947    0.050739935036081596    0.041834454996117265    0.037572354567047966    0.037572723235319495    
  0.035912741977115595    0.03757271190730482    0.04265059012015214    0.05124934936553487    0.06289296506946053    
  0.07564896950998089    0.08598431214480337    0.09003441209903296    0.08598410367355748    0.07564841419030187    
  0.06289342543030303    0.05124924434851156    0.042650414118310345    0.03757252112228294    0.035912741977115595    
  0.04000713145709351    0.04225405103762661    0.049307078498684716    0.06165136122040079    0.07881609382422751    
  0.09804176072718623    0.11380093703191917    0.11996318450559185    0.11380066147227025    0.09804107517723772    
  0.07881679673461181    0.06165123750777525    0.0493071380196736    0.042253830740071184    0.04000713145709351    
  0.04225383525234338    0.04225339877045988    0.04498999134263352    0.05068557812680212    0.059333138096502765    
  0.06996485521257093    0.08014997807210364    0.08656793575129235    0.08656869211372681    0.08014954799083933    
  0.06996427616411428    0.05933273776334725    0.05068572847737319    0.04499013383931476    0.04225383525234338    
  0.049307150788158796    0.048908886547745514    0.049307585020172705    0.05068581736321161    0.05336645800530882    
  0.057424002994370296    0.06216416422938642    0.06609976555967076    0.06765409156983014    0.06610008688897985    
  0.062164491713052154    0.057424905222590125    0.053366147460997625    0.05068572884751137    0.049307150788158796    
  0.06165124670390246    0.0632880415154566    0.06328820040040543    0.06165040650790373    0.059332742023096664    
  0.05742508836240024    0.05663377390779903    0.056805702423691706    0.05719669552396737    0.05719651785906801    
  0.0568050062086448    0.05663403213271141    0.057424928981127055    0.059332740900207265    0.06165124670390246    
  0.07881678639023931    0.08615007349006218    0.08907860615936586    0.08615115256438925    0.07881612329109142    
  0.06996387341007528    0.06216455144406223    0.05680523751424596    0.05393060820467346    0.05305897977358781    
  0.05393180121238662    0.05680497822693849    0.062164500166663465    0.06996427458475998    0.07881678639023931    
  0.09804108815272299    0.1156649305702114    0.12692612384805482    0.12692510555414369    0.11566629092482957    
  0.0980419150819052    0.08014956337003129    0.06609906209607357    0.05719690663623405    0.05305923855509981    
  0.053058985139871014    0.0571965163416319    0.06610009112608661    0.08014952788369722    0.09804108815272299    
  0.11380064393010741    0.14510206539471532    0.17098116943153377    0.18105019655211926    0.17097712124729758    
  0.14510178087174677    0.11380134781197218    0.08656911184791463    0.06765395031696216    0.05719691263636857    
  0.0539306220243715    0.05719668957180424    0.06765409458989255    0.08656869531895121    0.11380064393010741    
  0.11996319494167625    0.1637915673532653    0.20740662769602328    0.23466863053418996    0.23467478658290986    
  0.2074123259427352    0.16379086642844098    0.11996183941818993    0.08656911336663652    0.06609904780672941    
  0.056805241549494935    0.05680568671361005    0.06609978076245425    0.08656790490096553    0.11996319494167625    
  0.11380097135753495    0.16379073297365712    0.22145641445259137    0.26767463200854047    0.284940706311011    
  0.2676735677857632    0.22146140792357977    0.16379088282719625    0.1138013248798649    0.08014958652652543    
  0.06216456053061167    0.05663375286163047    0.062164172922480686    0.08014999264384656    0.11380097135753495    
  0.09804177244453095    0.14510054190652094    0.2074114213972374    0.2676756967108809    0.3034094179033902    
  0.3033963469718431    0.267673591513689    0.20741229606715889    0.14510179011732474    0.09804190429217839    
  0.06996387207370006    0.05742508607862617    0.057424007685575845    0.06996484765155558    0.09804177244453095    
  0.07881609437134093    0.11566592762129545    0.17098067886448112    0.23466970982543714    0.2849311401987213    
  0.3034094034085838    0.2849407085317225    0.2346747879426071    0.17097713397661288    0.1156662798920217    
  0.07881613017884267    0.05933272990575421    0.05336646588421149    0.05933313400935972    0.07881609437134093    
  0.061651356638152265    0.08615055363134899    0.12692695314042038    0.18104909164570554    0.23466970210041363    
  0.26767566250366204    0.26767463587097057    0.23466861328702054    0.18105017068514437    0.12692510916990024    
  0.08615115948010689    0.06165039063977415    0.05068582173628125    0.050685582400405584    0.061651356638152265    
  0.04930709620638553    0.06328886909794286    0.08907803879844772    0.1269270020320319    0.1709806902421026    
  0.20741142844544863    0.22145641524127385    0.20740664911687567    0.17098116459550458    0.126926157452222    
  0.0890786292304268    0.06328819169007201    0.049307593256219716    0.04498999408708984    0.04930709620638553    
  0.04225406393679686    0.04890868292732566    0.06328887475497608    0.0861505541862593    0.11566593766838879    
  0.14510054209626155    0.16379073827511784    0.16379156030656605    0.14510207583733578    0.11566492172643715    
  0.08615007880056375    0.06328804602270985    0.04890887667615038    0.04225339944973585    0.04225406393679686    
  0.04000713145709351    0.04225405103762661    0.049307078498684716    0.06165136122040079    0.07881609382422751    
  0.09804176072718623    0.11380093703191917    0.11996318450559185    0.11380066147227025    0.09804107517723772    
  0.07881679673461181    0.06165123750777525    0.0493071380196736    0.042253830740071184    0.04000713145709351    
  0.04603373867440681    0.04927009185519047    0.0595657334890561    0.07806248436474209    0.10455080336021971    
  0.13484931465697608    0.159909440221048    0.16970904825795352    0.1599125685012351    0.13484870613744696    
  0.10454767912732352    0.07806323067972237    0.05956572394464689    0.049270244072994705    0.04603373867440681    
  0.04927025405980348    0.04927065948024168    0.05282544985001313    0.06039624004342468    0.07214388820854256    
  0.08689978505222426    0.10123282196516743    0.11024544502715906    0.11024562390070554    0.10122905210234741    
  0.08689881113373416    0.07214582120634384    0.06039617773817856    0.05282573519067234    0.04927025405980348    
  0.05956572916047895    0.0594064851818021    0.059566376536964005    0.06039621876681592    0.06254485480586934    
  0.06636951198435086    0.07125209191986216    0.07543797627622652    0.07709478717988535    0.07543870207001643    
  0.07125403813967066    0.06637130766124355    0.06254173505293902    0.06039617507927407    0.05956572916047895    
  0.07806323623236003    0.0819051718244793    0.08190425147048844    0.07806159505144926    0.07214361615325592    
  0.06637223883838798    0.06230964382202753    0.06021146509711254    0.059469460110115856    0.05946980326751103    
  0.06021069191465259    0.06230860258289433    0.06637133230510317    0.0721458289858314    0.07806323623236003    
  0.10454767528390042    0.11910897116422658    0.12486078311457742    0.11911300459704013    0.10455042368944185    
  0.08689679926088617    0.07125303872541049    0.060211633251026006    0.05405121308889033    0.05212250231627217    
  0.05405207149615406    0.060210659592059186    0.07125404935706717    0.08689880211236978    0.10454767528390042    
  0.13484870665584836    0.16844483466664614    0.18988735641839094    0.18988324746842095    0.16844263176023777    
  0.13485192713032018    0.10123098169228685    0.07543639354651696    0.05947012232694574    0.052122329536241026    
  0.05212250152273609    0.05946979888815934    0.07543872372384698    0.10122904390410413    0.13484870665584836    
  0.1599125650442764    0.21765832634305096    0.2642508212007824    0.28172937260081016    0.2642474170852059    
  0.2176555459357711    0.1599122883926253    0.11024887237941897    0.07709429441115251    0.05947014652323849    
  0.05405121734566479    0.059469459796244066    0.07709479632356916    0.11024561237983758    0.1599125650442764    
  0.16970905597981592    0.2483248430470924    0.3210078374997856    0.36030134172457007    0.3603059885632424    
  0.3210303139720103    0.24832749869596316    0.16970258969401947    0.11024888305537864    0.07543639336439018    
  0.06021163783828844    0.060211450664169865    0.07543798791455616    0.11024543733498382    0.16970905597981592    
  0.15990947765534097    0.24832894866940736    0.34095375947230283    0.3967566625522323    0.4107050062732087    
  0.3967508459362543    0.34097007697829296    0.24832754081595088    0.15991226421669036    0.10123098066220153    
  0.07125304169004858    0.06230962667483353    0.07125208368470207    0.10123284581660195    0.15990947765534097    
  0.13484932045691522    0.21765199113249623    0.32102686487303606    0.3967613094371786    0.42003198067892417    
  0.4200162199351815    0.396750886709396    0.32103031789874076    0.2176555613456241    0.13485194192926128    
  0.08689680366938504    0.06637222976973929    0.06636951779607442    0.08689975958167999    0.13484932045691522    
  0.10455081561368078    0.16844078539835391    0.2642610930874047    0.36027977316174153    0.41069862449333133    
  0.42003191370770077    0.41070504049042694    0.3603059796569523    0.26424744248303844    0.16844262347620118    
  0.10455044458858445    0.0721435992017324    0.06254485539680955    0.07214388875207202    0.10455081561368078    
  0.07806248229319364    0.11911358699909996    0.1898855226608338    0.28173647628380916    0.36027974138006447    
  0.39676127214383294    0.39675665068044513    0.360301331774658    0.28172934455373355    0.18988323685454436    
  0.119113016098426    0.07806158449906579    0.0603962232384974    0.060396235452186295    0.07806248229319364    
  0.059565746539113174    0.0819051389663358    0.12485871563497565    0.18988556325221645    0.2642611340037635    
  0.32102689234336773    0.3409537831873961    0.321007874563672    0.264250810211923    0.18988738194260146    
  0.12486081351466838    0.08190425090587633    0.05956638622009259    0.052825459507533486    0.059565746539113174    
  0.04927009695068892    0.05940806110248396    0.08190515899785378    0.11911358922513958    0.16844080153910923    
  0.21765200200288157    0.24832895340577926    0.24832485951201724    0.21765831007290817    0.1684448558304066    
  0.1191089872411519    0.08190516237800988    0.05940647730662867    0.04927065501120989    0.04927009695068892    
  0.04603373867440681    0.04927009185519047    0.0595657334890561    0.07806248436474209    0.10455080336021971    
  0.13484931465697608    0.159909440221048    0.16970904825795352    0.1599125685012351    0.13484870613744696    
  0.10454767912732352    0.07806323067972237    0.05956572394464689    0.049270244072994705    0.04603373867440681    
  0.05266645563473223    0.05705634651591004    0.07118474817860965    0.09719005694431479    0.13536805461412382    
  0.17937983806041638    0.21551695305695542    0.229527805742888    0.2155564168488432    0.179382406571547    
  0.13533290302649748    0.09719654541279495    0.07118757219221557    0.0570570580819225    0.05266645563473223    
  0.05705707032929473    0.0570576101424226    0.061730599482134954    0.07186221887634613    0.0878421022626827    
  0.10827434678539119    0.12835708903540163    0.1410141546694012    0.14101572153587036    0.12832729231753434    
  0.1082743571427082    0.08786563307432972    0.07185860054099392    0.06172782443843375    0.05705707032929473    
  0.07118758247448587    0.07114990210208456    0.07118556353264625    0.07185601424991656    0.07418800514191813    
  0.07867499444601525    0.08460510706473429    0.08981992080870853    0.0919051925709874    0.089818906091527    
  0.08462370671365013    0.07867770425264792    0.074165058908434    0.07185860161031069    0.07118758247448587    
  0.09719656546158394    0.10317472600200024    0.10317740243668956    0.09719562671554713    0.0878413799050306    
  0.07868108484418199    0.07195321233303047    0.0680844692132821    0.0665502474239423    0.06655051397653072    
  0.0680867674248915    0.07193744264213432    0.07867772755587932    0.08786564919111813    0.09719656546158394    
  0.135332895366361    0.15767417389747576    0.16637155501964124    0.15767853292817546    0.13536812061991366    
  0.10826732051296592    0.0846069817414304    0.06809142169062642    0.058908333499359006    0.056048165919121026    
  0.05890884472969397    0.06808675729441421    0.08462370022921699    0.10827436284615369    0.135332895366361    
  0.17938241504592814    0.23005287765635968    0.2613673953509934    0.2613527295323831    0.23000971034170067    
  0.17938991848904012    0.12835214878218562    0.0898103032258572    0.06655128651209243    0.05604733945452511    
  0.05604815917087645    0.06655052505134254    0.08981890274081794    0.12832727982104333    0.17938241504592814    
  0.2155563917379126    0.298561910079274    0.3574715423397138    0.3763819357502879    0.357526431082251    
  0.2985500766639349    0.2155276759166259    0.1410288192931975    0.09190455541423802    0.06655131360876819    
  0.05890834345993174    0.0665502544089678    0.09190518976157756    0.14101570834697333    0.2155563917379126    
  0.22952781839478037    0.33745044786247175    0.4095268847970334    0.4245554476358614    0.424514155937668    
  0.4095597214814398    0.3375108522709356    0.22949217579137762    0.1410288060462528    0.08981029554221641    
  0.06809143609498348    0.06808446233459199    0.0898199233643155    0.14101412462116752    0.22952781839478037    
  0.21551699501980998    0.33750788208603816    0.4199315697270443    0.4061700097931186    0.3789228189113592    
  0.40616083639024436    0.41993564036397196    0.33751086265220137    0.21552767027204559    0.12835214230225292    
  0.08460699586183955    0.07195321037267496    0.08460511970341486    0.12835709385015126    0.21551699501980998    
  0.17937986436454365    0.298552409367969    0.4095657976583094    0.40615370709182114    0.3378684297850683    
  0.3379065662153925    0.4061608779522192    0.40955972037834754    0.2985500925197095    0.1793899083259717    
  0.10826731370399559    0.07868108111464255    0.07867500624086642    0.10827434212957969    0.17937986436454365    
  0.13536807568215875    0.23001015359415547    0.35754127492895343    0.4244356220683564    0.3790069851663206    
  0.3378684229572732    0.37892283344040556    0.424514180590127    0.35752643041668847    0.23000969910342578    
  0.1353681248921705    0.0878413776369729    0.07418799114507582    0.08784209796681751    0.13536807568215875    
  0.09719005733803734    0.15768797768870238    0.2613514763325164    0.3764393266430539    0.4244356060458552    
  0.4061536246818712    0.4061700368113456    0.42455546524748283    0.3763818811514565    0.2613527384448303    
  0.15767853741082163    0.09719561395862807    0.07185602323276939    0.07186222044499968    0.09719005733803734    
  0.0711847646422648    0.10317785999580747    0.16636536434026913    0.26135152066927886    0.35754125776214973    
  0.40956583825474285    0.4199315975078725    0.4095269383370985    0.35747151732158755    0.2613674327380739    
  0.1663715923096872    0.10317740588341139    0.07118556900560469    0.06173059330148155    0.0711847646422648    
  0.057056351871522554    0.07115331659668053    0.10317786184873591    0.15768799621489044    0.23001015660563792    
  0.2985523728693264    0.33750786370730335    0.33745046945215956    0.2985619374595571    0.2300528669953272    
  0.15767418435410152    0.10317472148409881    0.07114989166999501    0.0570576155964771    0.057056351871522554    
  0.05266645563473223    0.05705634651591004    0.07118474817860965    0.09719005694431479    0.13536805461412382    
  0.17937983806041638    0.21551695305695542    0.229527805742888    0.2155564168488432    0.179382406571547    
  0.13533290302649748    0.09719654541279495    0.07118757219221557    0.0570570580819225    0.05266645563473223    
  0.057864078728773916    0.0632147949719988    0.0805845354002692    0.11304759340362923    0.1613411813925036    
  0.21684764875766435    0.2614326645813454    0.27832068189671016    0.26155337061673706    0.21685584238962022    
  0.16124363831900784    0.11306365629933332    0.08059610227052597    0.06321541838253047    0.057864078728773916    
  0.06321542495541957    0.06321580720966952    0.06891104104645954    0.08136227790796624    0.10113196437056514    
  0.12674615977636566    0.1520733303733326    0.16790280959682255    0.16790521707298617    0.15199195375437896    
  0.12674455106701368    0.10120123584254875    0.08135145751573677    0.06889952877515612    0.06321542495541957    
  0.08059610678531841    0.08058173148916145    0.08058465298468329    0.08134140369885186    0.08415752352863055    
  0.08949988813346066    0.09661602245034272    0.10296449396845316    0.10548862104386783    0.10295806412708794    
  0.09667154715191205    0.08950521828558478    0.084092026983183    0.08135145915883965    0.08059610678531841    
  0.11306366588712058    0.12063568430752308    0.12065044389362486    0.1130711275026113    0.10112997186881746    
  0.08951086831186097    0.08089135600347863    0.0757765583187256    0.0737186698554982    0.0737204329405247    
  0.07578572061666453    0.0808412586496439    0.08950524103303827    0.1012012519976577    0.11306366588712058    
  0.16124359842453168    0.18955767985545877    0.2004530686954396    0.18955158649828494    0.161343223773112    
  0.12673235901887128    0.09661861339322093    0.0757967926818523    0.06427284944651389    0.06069891677894909    
  0.06427096655434095    0.07578569870044674    0.09667155056569765    0.12674455006296886    0.16124359842453168    
  0.21685586596932793    0.2792099230988412    0.3156880932864408    0.31566472647825106    0.2790797643750536    
  0.21687005799729342    0.15206671010222958    0.10293846030655558    0.07372089600649796    0.06069619590595263    
  0.06069892565684731    0.07372042552270351    0.10295806862793576    0.15199194307672947    0.21685586596932793    
  0.2615533778147595    0.35643072941268444    0.4081313297434681    0.4186315896583727    0.4083042819436067    
  0.3564117794346719    0.26145190135674734    0.1679381800485854    0.10548790184492787    0.07372091269841995    
  0.064272867439271    0.0737186515366132    0.10548861011195829    0.16790522369728592    0.2615533778147595    
  0.27832069511657404    0.39287686309125336    0.4211502388111054    0.38141285099204714    0.38130353620210833    
  0.4211601524701091    0.39306686443953637    0.27822712727947035    0.1679381866693386    0.10293847312105289    
  0.0757967983755796    0.07577653522135813    0.10296452303205819    0.1679027668942969    0.27832069511657404    