#     DFTpy    
  CRYSTAL 
    
  PRIMVEC    
  8.212997436981684    6.550848733268965e-07    1.081487705103448e-06    
  6.550850289682757e-07    8.213000253399116    1.0933158433062068e-06    
  1.081487843423448e-06    1.093315868409655e-06    8.212999684125482    
  PRIMCOORD    
  16    1    
  Si    1.211912085007233    7.001086862679678    2.8945881670305025    
  Si    7.001085928146372    1.2119146924829236    5.318410339507415    
  Si    1.2119133196085572    1.2119136228937721    1.2119140494089478    
  Si    2.8945924183880734    2.894593620451318    2.8945933180277836    
  Si    7.001083936573888    2.894588369013634    1.2119126908258693    
  Si    1.2119118141689287    5.3184149545252755    7.001086798627949    
  Si    2.8945872852095875    1.2119149409528478    7.001087459528058    
  Si    5.318410040674235    7.0010887614455335    1.2119127895037127    
  Si    5.318409625717235    2.894594103797096    7.001091284832889    
  Si    2.894589426764179    5.318407740402563    1.2119088045820927    
  Si    5.318406901831163    5.3184118257883775    5.318410227018844    
  Si    7.00108616076636    7.00109003024873    7.001088497422711    
  Si    2.8945927403510527    7.001093747828154    5.318410517148994    
  Si    5.318405686340469    1.211908354647037    2.8945905306094115    
  Si    7.001089096990647    5.318411074799861    2.894593512711145    
  Si    1.2119087089006018    2.894591525440555    5.3184076716462245    
  BEGIN_BLOCK_DATAGRID_3D    
  3d_datagrid_density    
  BEGIN_DATAGRID_3D#0    
  37    37    37    
  0.0    0.0    0.0    
  8.212997436981684    6.550848733268965e-07    1.081487705103448e-06    
  6.550850289682757e-07    8.213000253399116    1.0933158433062068e-06    
  1.081487843423448e-06    1.093315868409655e-06    8.212999684125482    
  0.02968196639114038    0.030666157405478824    0.03343318842543456    0.03734451707227516    0.04132197210477327    
  0.044278952667723415    0.04571369742367888    0.04581645142701218    0.045314428994529705    0.045030071213560556    
  0.04531448086673003    0.04581649755326629    0.04571379524327374    0.04427908064894282    0.0413220808624383    
  0.037344669721556874    0.03343330380786547    0.030666283630435127    0.02968206773405308    0.03066635747945626    
  0.0334334115249945    0.037344827556989466    0.04132229588726798    0.04427929528345106    0.045713990310251224    
  0.04581670059898398    0.04531463771197067    0.04503021666106023    0.04531459049013378    0.04581658079936781    
  0.04571385767636721    0.04427911882178116    0.041322103732134366    0.03734462825713539    0.033433265304798405    
  0.030666200482966616    0.02968196639114038    0.03066616001449593    0.03518384659722998    0.04196634421389999    
  0.05016132140932428    0.058065436596516626    0.06381349323577436    0.06644739969844518    0.06643351855554135    
  0.06537817068294292    0.06484206110280649    0.06537824083277198    0.06643359011475372    0.06644754903857535    
  0.06381361108132305    0.05806561375676056    0.05016146725925669    0.04196652985511533    0.03518395066917379    
  0.030666299966485216    0.028490801889184788    0.028248400478327506    0.029275339531605302    0.03079162527920914    
  0.032102881775164294    0.03281805573077091    0.03294840692290748    0.03276418107738671    0.03263691974386105    
  0.032764152267313995    0.0329483442481325    0.03281797027353056    0.032102782598258967    0.030791488340316246    
  0.029275238765703863    0.02824826300900966    0.028490726978101524    0.03066616001449593    0.033433204354451726    
  0.04194300310827817    0.053868347588228206    0.06793820921899803    0.0814476038962237    0.0912933323964052    
  0.09575561115304755    0.09569768674932393    0.093930883707474    0.09303341660665661    0.09393095747300083    
  0.09569784117195686    0.09575586030683739    0.0912936243734915    0.0814478382277055    0.06793845367062097    
  0.05386854499436103    0.041943161243787906    0.033433304052803425    0.028273401072588977    0.025718444558071783    
  0.024870235229268813    0.02495554408612604    0.025359196065431234    0.025661694876464528    0.025752028228980258    
  0.02570341855999036    0.025656001740119946    0.025703434388870128    0.025751970371505523    0.02566166231198966    
  0.02535912404144487    0.024955478961345864    0.024870160771641475    0.025718390817049755    0.028273301252672675    
  0.033433204354451726    0.03734455889491735    0.04993830988145126    0.06755035114352437    0.08850578763051015    
  0.10880378573526316    0.12367150563586404    0.13046549122582007    0.1305722595317095    0.12805225778408713    
  0.12671273011480383    0.1280524130083142    0.1305724394514141    0.13046585226164167    0.12367187516970654    
  0.10880418167469325    0.08850610869515123    0.06755063421608463    0.049938430606329    0.037344676848523    
  0.029463397300133413    0.025131792007033624    0.023095951678222246    0.022381348928718    0.02231076832123797    
  0.022408966348855232    0.022473652471608957    0.022472266309580588    0.022452489025327642    0.022472252247939657    
  0.022473649902092583    0.02240892495238797    0.02231076532037784    0.022381299504978254    0.023095915261564    
  0.025131710802539148    0.029463340051005097    0.03734455889491735    0.041322009965044953    0.05721576516427118    
  0.07970769816433226    0.10679323617716431    0.13329880458370358    0.15287629698622227    0.16200472867705384    
  0.16244680227375277    0.15934945904923606    0.1576407223166328    0.1593496494109246    0.1624470987842904    
  0.16200508568149102    0.15287681139592268    0.13329918497521206    0.10679368206030898    0.0797080004902015    
  0.057215981722367554    0.04132210005673679    0.03144193931398025    0.02598550479547634    0.02333098609317925    
  0.0222784302175247    0.022045871966706727    0.022092888048815783    0.022157192904770962    0.02216686595031309    
  0.022151238085078854    0.02216689384858367    0.022157180790357795    0.022092920483987137    0.022045854276377137    
  0.02227840878070331    0.023330955041975094    0.025985498128195193    0.03144182818442398    0.041322009965044953    
  0.04427897133443746    0.061628505582075    0.08651435575635405    0.11672632132755444    0.14648626524959316    
  0.16869377523450022    0.17928991197153007    0.18006338000873892    0.17678292174756544    0.17497486698064904    
  0.17678313085572436    0.1800636324838626    0.17929033673762299    0.16869419993501408    0.14648674937858727    
  0.11672669678814507    0.08651474226470933    0.06162865951593757    0.044279125589335964    0.033708928185657294    
  0.028022735573959758    0.025394813188204718    0.024489050540077578    0.024414572719566336    0.024556690123432985    
  0.02464504677686271    0.024642890678538167    0.024617693748655682    0.02464291583996572    0.024645080772870774    
  0.0245567032715906    0.0244145982269141    0.0244890765702801    0.02539482399430834    0.02802267661870083    
  0.033708886811528165    0.04427897133443746    0.04571372118647167    0.061935283415262755    0.08553688287768525    
  0.11445354962006495    0.14317105982033296    0.16476510463130994    0.17518378480889757    0.17600096672436505    
  0.17287656077698513    0.17117665548487204    0.1728766949546132    0.176001294511566    0.17518421636491777    
  0.16476567470418196    0.1431714731043709    0.11445397682856673    0.08553716158020407    0.06193550910495486    
  0.045713811387068676    0.036117830491001514    0.03132797714449468    0.02956314125605543    0.029433786144908745    
  0.02993954504745155    0.030396336403017105    0.03056229133351557    0.030505266846277083    0.030434902843972267    
  0.03050531485089464    0.030562330303434065    0.030396416372307035    0.029939578513309927    0.029433854263231016    
  0.029563136879930233    0.03132797762515839    0.03611775096305905    0.04571372118647167    0.04581647205749142    
  0.05853187251039954    0.07756692243372199    0.1012143624643573    0.12489012007212652    0.14280035524108636    
  0.15149797220849523    0.15220302779790287    0.14956478448607868    0.1481148211934833    0.14956492206912544    
  0.1522032366707947    0.15149832836708    0.14280073004244434    0.12489054703808138    0.10121466895216248    
  0.0775672473534315    0.05853200933388146    0.04581663668580191    0.03888494301629055    0.03633244451501922    
  0.036602275717806464    0.03822792012320175    0.039993656482288836    0.04108589282354469    0.04134834554929462    
  0.04111849734916351    0.04093546443583935    0.04111859051694344    0.04134843724867421    0.04108601472360449    
  0.03999375772006281    0.038227958434121787    0.03660231382452717    0.03633240042421145    0.03888487938473833    
  0.04581647205749142    0.04531444943758436    0.05304706810585528    0.06581979399215372    0.08218051501404808    
  0.09876373252404033    0.11146674971827869    0.11773753274556013    0.11830832294325967    0.11640687510995512    
  0.11532335583308023    0.1164070006235002    0.11830848578858234    0.11773772118435041    0.11146703565732141    
  0.09876395406270116    0.08218080736505382    0.06582000816187454    0.05304725509217442    0.04531458088219881    
  0.04247989608256197    0.04366891121160117    0.04754032831220572    0.05238489341199957    0.05648355423877047    
  0.05868054952583908    0.05900048456157778    0.05839352656786726    0.058005038338366274    0.058393604302985375    
  0.05900060722852153    0.05868072794015135    0.056483625357896736    0.052384970467757204    0.0475402836748554    
  0.04366888586810174    0.0424797676838673    0.04531444943758436    0.04503009551508476    0.04729471184071112    
  0.053736008063106994    0.06304863176276657    0.07292169951504673    0.08071485848407088    0.08465856118642415    
  0.08506725277593141    0.08388222436122404    0.08318231682254493    0.08388231494949717    0.08506731018970218    
  0.08465867941471826    0.08071502967643479    0.07292192016623894    0.06304881221367444    0.053736239969876726    
  0.04729485805575525    0.04503027894575125    0.0472948849704229    0.05373630178517424    0.06304883941082902    
  0.07292193437393694    0.08071491179886287    0.08465851594651387    0.08506704189317173    0.08388201820302832    
  0.08318211520998191    0.0838821601263808    0.0850672392741654    0.08465860251398394    0.08071501578066421    
  0.07292187528251542    0.06304879245202098    0.05373613898682734    0.04729474172934805    0.04503009551508476    
  0.045314492878901165    0.042479798777017054    0.043668828225005084    0.04754023661707963    0.052384909043604495    
  0.05648358499229101    0.058680705739574165    0.059000688113130216    0.05839372285518197    0.058005227284274166    
  0.058393740354766896    0.05900072219465999    0.058680785075802475    0.05648370192529726    0.05238499579418513    
  0.04754039363588661    0.04366899360800924    0.04247999299253901    0.04531471931021801    0.05304747584460725    
  0.0658203002835055    0.08218115539199142    0.09876420980632661    0.11146724590674556    0.11773772686410176    
  0.11830843612686119    0.11640685622245951    0.11532328689170906    0.11640696518672258    0.11830846554956713    
  0.1177378088063132    0.11146710804107143    0.09876401969077189    0.0821807916594301    0.0658200087757696    
  0.05304715520818187    0.045314492878901165    0.0458165820595726    0.03888494011414524    0.036332400999268995    
  0.036602296469712844    0.0382279569933439    0.03999376426830259    0.041086031912976884    0.04134849351522504    
  0.04111867077753164    0.04093559915428842    0.04111869773421312    0.04134852931719599    0.04108613126549625    
  0.039993798437039894    0.03822805118173704    0.03660240150623114    0.036332635272429886    0.03888512718267971    
  0.04581692261044378    0.058532461142445265    0.07756785211554351    0.10121540768674045    0.12489133505100458    
  0.14280138053931563    0.151498833897917    0.15220356594416387    0.14956511946008152    0.1481150293135635    
  0.14956514388508244    0.1522034740637268    0.15149852908420008    0.14280097740797473    0.12489074566404666    
  0.10121479791371335    0.07756728003546846    0.05853206095920601    0.0458165820595726    0.04571385812463241    
  0.03611784329978414    0.03132797555951928    0.02956315088203237    0.029433838350058687    0.029939608579188055    
  0.030396428460832972    0.0305624053548237    0.030505370422034977    0.030435006818822094    0.03050538817328894    
  0.030562432806644883    0.030396445619557493    0.029939705551219865    0.029433912086309404    0.029563312481727156    
  0.03132815373776614    0.036118123054501614    0.04571424178837608    0.061936165459176094    0.0855380766505284    
  0.11445524644664881    0.14317285103223426    0.16476698445669063    0.17518530797911389    0.1760022692590191    
  0.17287734394691212    0.1711772872129596    0.1728772344694036    0.1760017620293633    0.17518461844249722    
  0.16476605867135521    0.143171839711154    0.11445419322918078    0.08553728847387647    0.06193554795076338    
  0.04571385812463241    0.04427914351305585    0.03370896134572395    0.02802270263697008    0.02539483222774781    
  0.024489092100438956    0.024414617119982187    0.024556744766258996    0.024645109077483768    0.02464297947022764    
  0.024617758488196355    0.024642982229100784    0.024645116294208437    0.024556798522390687    0.02441465881801615    
  0.024489189150221823    0.025394973430435508    0.02802294033857503    0.03370922937958836    0.04427965904993215    
  0.06162948541379419    0.08651596185075414    0.11672833530629137    0.14648870804286887    0.1686961119230241    
  0.1792920683486962    0.18006513966033283    0.17678436273035517    0.174975909135187    0.17678403609641233    
  0.18006440595418483    0.17929099034011323    0.16869479019527708    0.1464872151180057    0.11672706621681884    
  0.08651488867522797    0.06162876994415268    0.04427914351305585    0.04132214700494439    0.03144196702976923    
  0.025985499227563    0.02333096571906436    0.02227843202972979    0.02204587790082473    0.022092918554428173    
  0.022157222086700592    0.02216691380884765    0.022151294004856697    0.02216692202731528    0.022157257818307796    
  0.02209296565303128    0.02204597978682344    0.0222785148078257    0.02333115202591645    0.025985716723012194    
  0.03144228157552215    0.041322628010509864    0.057216876107188806    0.07970925352612263    0.10679546371804696    
  0.13330128202110475    0.1528789568370069    0.1620070668662345    0.1624488613971333    0.15935110101298575    
  0.15764204100338652    0.15935065039772137    0.162447949328988    0.1620058684899215    0.15287746949699582    
  0.1332997162215176    0.10679399033391963    0.07970819179076279    0.057216074896675705    0.04132214700494439    
  0.03734471452142176    0.029463420330337584    0.025131770583502074    0.023095917848627936    0.022381321995677425    
  0.02231074202895525    0.022408938280679812    0.022473634443073074    0.02247228261679732    0.02245251811319255    
  0.022472354602799914    0.02247372996489265    0.022409075752543663    0.02231089160286984    0.022381514294180702    
  0.023096123918677432    0.02513203553524373    0.029463726895898594    0.03734521805107791    0.049939215796026164    
  0.06755185296056229    0.08850765530495452    0.10880610195308402    0.12367381555434784    0.13046781940095264    
  0.13057408501847978    0.12805382169505658    0.12671386894832662    0.12805341952118246    0.13057325186007657    
  0.13046658454057394    0.12367242411635176    0.10880462237013508    0.08850639797999593    0.06755081909368274    
  0.049938544636219856    0.03734471452142176    0.033433304566409985    0.02827339161373384    0.025718379925361513    
  0.024870178846858087    0.024955457834787132    0.02535912468314084    0.02566162655250826    0.025752014558780796    
  0.025703418199238364    0.025656070316425552    0.025703514582586438    0.025752164412708778    0.02566185643540081    
  0.025359401952071432    0.024955713774253027    0.024870492445004545    0.025718695650565827    0.028273751663457584    
  0.033433759315553764    0.04194387882733395    0.05386942822100252    0.06793978750337079    0.08144932290298848    
  0.09129523739377725    0.09575730333236392    0.09569922697342696    0.09393204137778685    0.0930344113594434    
  0.09393171200486518    0.09569853489514608    0.09575636427930978    0.09129410933624527    0.08144820193454429    
  0.06793870288202931    0.05386864851755959    0.041943247482632534    0.033433304566409985    0.030666263102483136    
  0.028490759211326964    0.02824829404778547    0.02927520013597144    0.030791480797303795    0.0321027369459118    
  0.03281794613404528    0.03294829534473538    0.03276418181484013    0.03263697818201821    0.03276434942733746    
  0.03294859523368742    0.032818353471479    0.03210315316898855    0.03079194539689396    0.02927563672827658    
  0.02824873697101573    0.02849112455416373    0.030666724760553706    0.035184456331863484    0.041967230433056835    
  0.05016233489589624    0.05806666301223049    0.06381467340578742    0.06644859294340476    0.0664344686936424    
  0.0653790410099358    0.06484268759807407    0.06537878638189618    0.0664340263445206    0.06644792599565058    
  0.06381392439217756    0.058065849545012344    0.050161612741022876    0.04196661316197913    0.0351839930747146    
  0.030666263102483136    0.029682021871514048    0.030666278831171838    0.03343326267762358    0.037344616263671686    
  0.04132203108010643    0.04427903903320768    0.04571373713105023    0.04581655773622532    0.0453145451916854    
  0.04503035422894929    0.04531486877350518    0.04581708091748056    0.04571444270826302    0.044279840364455265    
  0.04132278333255568    0.037345347251010845    0.033433807961507515    0.030666757676655408    0.029682421791992958    
  0.03066673108682199    0.03343374391353951    0.037345239063428334    0.04132269680998284    0.04427973482085953    
  0.045714388321971826    0.04581710852361246    0.045314915580292776    0.045030494967727326    0.04531477278027691    
  0.04581680300584908    0.045713972317818805    0.04427926487202932    0.041322195549925056    0.03734474304270533    
  0.033433317620278485    0.03066629367905713    0.029682021871514048    0.030666277111603177    0.03518396775186453    
  0.041966505041508104    0.050161439912636094    0.058065591759638484    0.06381355960927716    0.06644748959897717    
  0.06643358763465916    0.0653784124837545    0.06484244207965917    0.06537891259510256    0.06643446428956515    
  0.06644870308273591    0.06381483414610513    0.05806685153696466    0.050162493979105355    0.04196735658225378    
  0.03518452540766972    0.030666757756170546    0.028491135880486653    0.02824870305263851    0.029275604944025254    
  0.030791915729780506    0.03210312831908048    0.03281833118554287    0.03294861210057496    0.032764387797912894    
  0.03263705630774083    0.03276430280561913    0.03294842886690349    0.03281807301613669    0.03210283633926414    
  0.030791573369639    0.029275279935636028    0.028248352627546113    0.02849078081863708    0.030666277111603177    
  0.033433317615917384    0.04194322195319947    0.05386852532451983    0.06793847913515734    0.08144779655052437    
  0.09129352198892929    0.09575569225207885    0.09569783258366706    0.09393111847375302    0.09303398248754918    
  0.09393183270385017    0.09569924025699118    0.09575751641391991    0.09129552072343422    0.08144961225385476    
  0.06794000084700241    0.05386962240046313    0.0419439747327592    0.03343380387219491    0.028273763394843367    
  0.025718686939923085    0.02487046979482511    0.024955692899574614    0.025359378905818884    0.025661841329474546    
  0.02575218525471415    0.025703521000598247    0.025656117101049456    0.025703471326179107    0.02575205579978898    
  0.025661702540586362    0.02535921490064687    0.024955515918824063    0.024870223968889212    0.025718443528288525    
  0.02827341930055073    0.033433317615917384    0.037344736046930116    0.04993854189855401    0.06755068838061508    
  0.08850608153359452    0.10880407473781166    0.12367166986450541    0.13046560765125845    0.1305722830572556    
  0.12805256039861956    0.12671333047219732    0.1280535626264248    0.13057409689206068    0.13046808815102134    
  0.12367427340465499    0.1088065557466816    0.08850802896045264    0.06755212294347762    0.04993937373680246    
  0.037345302047537644    0.02946375737634443    0.025132054911638085    0.023096123886970743    0.02238149081938779    
  0.022310870910896778    0.022409087224873944    0.022473717777673815    0.022472356311985662    0.022452537204936396    
  0.022472334401376564    0.02247365992807856    0.022408973123889668    0.022310781959801834    0.02238136976570335    
  0.02309595111423296    0.025131805850460792    0.029463440927839278    0.037344736046930116    0.04132218537732899    
  0.05721610052958716    0.07970806332052673    0.10679368138540168    0.13329911118190635    0.15287651960821672    
  0.1620046664459346    0.16244683590385986    0.15934961911474346    0.15764132378292586    0.1593507373050828    
  0.16244894701771123    0.1620074501010512    0.15287955544940163    0.1333018343307896    0.10679593073352601    
  0.07970959616904416    0.05721705759767945    0.04132272014786845    0.03144234685786324    0.025985724039064576    
  0.023331161943303008    0.02227852292101996    0.022045978512384354    0.02209296517115582    0.02215727513395197    
  0.02216691731849507    0.022151310517198108    0.02216691961536504    0.022157213295232202    0.022092902714425135    
  0.022045889144981744    0.02227842823215641    0.023330999066749448    0.025985563242726717    0.03144198498809743    
  0.04132218537732899    0.044279206892638985    0.061628841143320436    0.08651482853473381    0.11672675047852671    
  0.14648665660306673    0.16869384898277784    0.1792898510929178    0.18006315383758723    0.1767829017601477    
  0.1749751044393003    0.17678398621204097    0.1800651409913827    0.17929249362954963    0.16869667455811366    
  0.1464892910665596    0.11672884444016832    0.0865163000148647    0.061629691560653885    0.0442797729528027    
  0.033709283179031574    0.028022980605461253    0.025394969518624265    0.02448918689454112    0.024414645595402393    
  0.0245567899590111    0.02464510878197319    0.024642968140650028    0.02461773949742273    0.024642982807299478    
  0.024645087173772357    0.024556725432981184    0.02441459340408167    0.02448909119674264    0.025394849044129583    
  0.02802276003225241    0.03370900430507147    0.044279206892638985    0.04571393776349153    0.06193563773920644    
  0.08553725879497043    0.1144539997342489    0.14317136813181094    0.16476522396279045    0.1751835934761074    
  0.17600067509350364    0.1728762089359307    0.1711766218945074    0.1728770412504759    0.17600234500440484    
  0.17518568884723992    0.16476759355204396    0.14317343224789889    0.1144557276148939    0.0855384653988077    
  0.061936405561578166    0.04571435080438221    0.03611818907597911    0.03132818635601103    0.029563327428627665    
  0.02943391180564149    0.029939680002605988    0.0303964395764375    0.030562407444749345    0.030505335140556592    
  0.030434988225911296    0.030505335568608162    0.030562336948236898    0.030396387312406244    0.029939576150711526    
  0.029433836034560578    0.02956317416981422    0.03132802675304819    0.03611787566118458    0.04571393776349153    
  0.04581666704047561    0.058532126814629985    0.07756727889114778    0.10121467931507369    0.12489038645525957    
  0.1428003777122377    0.15149771913550403    0.15220260506134273    0.14956437122077165    0.14811447299879593    
  0.1495649376002883    0.1522036029197044    0.15149916609714884    0.14280185845480808    0.1248918234898582    
  0.10121581232586767    0.07756816331569732    0.0585326475768398    0.045817068869722394    0.03888521268045109    
  0.03633267088958198    0.03660245662898273    0.03822808457998703    0.039993795830986396    0.041086073953545243    
  0.04134848853143814    0.041118629123568146    0.04093553032380427    0.041118612334318294    0.04134839110326988    
  0.04108597565166276    0.03999369266977877    0.038227914518313734    0.036602289360831965    0.03633246143209694    
  0.03888495852808032    0.04581666704047561    0.04531457941470679    0.053047266183802406    0.06582004651956987    
  0.08218075004522048    0.09876383887809949    0.11146674697155837    0.11773729058883563    0.11830791636842197    
  0.11640641203153572    0.11532294182480904    0.11640675217928427    0.1183084966212448    0.11773802777652129    
  0.11146753669473987    0.0987645491220341    0.08218144205188817    0.0658205285099457    0.05304765698127257    
  0.04531483545954463    0.042480103241898215    0.0436690733333844    0.04754049526660743    0.05238504819179268    
  0.05648377331301133    0.05868073735370151    0.05900068988753147    0.058393674386949854    0.05800511561981772    
  0.05839362435281866    0.05900054514644247    0.05868057697568247    0.05648349373993388    0.05238482590097073    
  0.04754022631150755    0.0436688728931189    0.04247984137801419    0.04531457941470679    0.045030171647758424    
  0.04729483537698254    0.05373618418808219    0.06304878098481649    0.07292179978872909    0.08071484547136541    
  0.08465836528571087    0.08506692715848731    0.08388184814531077    0.08318191793405322    0.08388198813460078    
  0.08506710202696398    0.08465866076821106    0.08071513905127527    0.07292215735242984    0.0630490556466853    
  0.053736485042032725    0.04729505015028551    0.045030434364218296    0.04729498978107194    0.05373639238005306    
  0.0630489301517461    0.07292205448399602    0.08071508308777968    0.08465872143089992    0.08506725925714516    
  0.08388218760164683    0.08318218547959108    0.08388210741096319    0.08506709005043656    0.08465837779173462    
  0.08071475361529311    0.0729216539225428    0.06304863266391639    0.053736065832083325    0.04729473720462504    
  0.045030171647758424    0.045314521835197824    0.0424798400422255    0.043668902213026564    0.047540310483421055    
  0.05238494628939122    0.05648355060045278    0.05868057415485522    0.059000453148324174    0.05839343778454479    
  0.05800494891614693    0.05839348351273417    0.0590005255142462    0.058680623021134394    0.056483670914361614    
  0.05238500679761279    0.047540468854261955    0.04366904172089661    0.04248005167124553    0.045314724337497454    
  0.053047440363904914    0.06582025937133747    0.08218109654670415    0.09876422438943937    0.11146730246056084    
  0.11773782409287975    0.11830858409973723    0.11640695714341134    0.11532325098606229    0.11640682542507705    
  0.11830814088029552    0.11773737634922188    0.1114666733997318    0.09876364553810149    0.08218050460953844    
  0.06581987027208354    0.0530470913217825    0.045314521835197824    0.04581654035413427    0.038884944836061704    
  0.03633244267337114    0.03660232963316675    0.038227958388587724    0.03999371788340769    0.04108596351362887    
  0.04134837120948229    0.04111850854479038    0.040935418254663146    0.0411185039770438    0.04134833488736859    
  0.04108595522602394    0.039993694137009136    0.038227987623544714    0.03660235665289929    0.03633257691826374    
  0.03888507872397936    0.04581681013660751    0.058532283134091125    0.07756760648010323    0.10121512521408906    
  0.12489106713517736    0.14280116649356303    0.15149862420612348    0.15220341233169454    0.14956499023081715    
  0.14811476942197346    0.149564749128621    0.15220296482212484    0.1514979349203167    0.1428003884098701    
  0.12489019246284684    0.10121439606059997    0.07756706193239528    0.058531935952406446    0.04581654035413427    
  0.045713802687169236    0.03611780396118303    0.03132801349686759    0.029563172346928984    0.029433847944261907    
  0.029939614496445714    0.03039639938451985    0.030562325167080205    0.030505262232008744    0.03043487957165485    
  0.03050526274194754    0.03056228936818079    0.03039635471025583    0.02993959351854334    0.029433824767053085    
  0.029563209600248528    0.03132807004981106    0.03611797915587703    0.04571404559903322    0.06193582821621538    
  0.08553760859478125    0.11445463287036302    0.14317218028213516    0.16476629761604766    0.17518473785667013    
  0.17600173524075233    0.17287693865930853    0.17117670328401258    0.17287669310939352    0.1760010644747181    
  0.17518395110006615    0.16476531258860308    0.14317121896391327    0.11445374907070252    0.08553702080149952    
  0.06193538097152136    0.045713802687169236    0.04427905791989596    0.03370892104743829    0.028022679810249727    
  0.025394850851930523    0.02448906668821605    0.02441459811462849    0.024556702784392415    0.024645087224870764    
  0.024642903758038584    0.02461769927892986    0.02464289271130903    0.024645032181199334    0.024556679462914982    
  0.024414581514114176    0.024489095311885214    0.02539486803517647    0.028022812416316312    0.03370906539370196    
  0.0442793563770987    0.061629054320865115    0.08651532287607756    0.11672749457762745    0.14648763961045666    
  0.16869507221173408    0.17929105733577785    0.18006426866123476    0.17678353844918537    0.17497516865200527    
  0.17678324453135702    0.18006362192518083    0.179290186160479    0.168694088736571    0.14648655659137455    
  0.11672665413636359    0.08651459149763585    0.061628628416596935    0.04427905791989596    0.04132208273860162    