#     DFTpy    
  CRYSTAL 
    
  PRIMVEC    
  2.166676081128156    -3.7527930560581924    0.0    
  2.166676081128156    3.7527930560581924    0.0    
  0.0    0.0    7.162413848447679    
  PRIMCOORD    
  4    1    
  Si    2.166676081128156    1.2509310186860638    0.4513001153837626    
  Si    2.166676081128156    -1.2509310186860647    4.032507039607602    
  Si    2.166676081128156    1.2509310186860645    3.1299068088400768    
  Si    2.1666760811281565    -1.2509310186860645    6.711113733063916    
  BEGIN_BLOCK_DATAGRID_3D    
  3d_datagrid_density    
  BEGIN_DATAGRID_3D#0    
  19    19    31    
  0.0    0.0    0.0    
  2.166676081128156    -3.7527930560581924    0.0    
  2.166676081128156    3.7527930560581924    0.0    
  0.0    0.0    7.162413848447679    
  0.038497083717828035    0.04012617283724419    0.045625814240606556    0.05696758412412952    0.07763663625729648    
  0.11201946512019782    0.16184713660522695    0.2207208156257847    0.2712035787079661    0.2913896466817501    
  0.27120359965362295    0.22072081368895072    0.16184713377712645    0.11201946982020411    0.07763663656980897    
  0.05696759093521674    0.045625810712310734    0.04012617353740321    0.038497083717828035    0.04012617663682807    
  0.040126056508824705    0.04370086312210642    0.052259049006299255    0.06881719072399324    0.09788188863254024    
  0.1434714647944293    0.20369047655232736    0.2653765554467467    0.30555552741522546    0.3055320097884911    
  0.2653951304168541    0.2037199326334962    0.14344201542094834    0.09787750194572158    0.06882458572309419    
  0.052258274762109175    0.04370120696650325    0.04012617663682807    0.04562580920259053    0.04370085200101097    
  0.04562643817052316    0.05225780650307669    0.06644400291182848    0.09303623639881087    0.13768826998779185    
  0.2024140630657718    0.2767242432655216    0.3359864679605671    0.3580961840097957    0.33598926534174495    
  0.2766693530041495    0.20242426118800763    0.13771953527283337    0.0930328859117517    0.06643756603420158    
  0.052258276239605723    0.04562580920259053    0.056967590498776935    0.05225904280793683    0.052257804705564195    
  0.05696822593071246    0.06881691710861439    0.09303304321807747    0.13685468832504713    0.20538408305031447    
  0.2891336260698474    0.3557207587586304    0.38350464816926527    0.38353429670392725    0.35576333617118305    
  0.2891393443843719    0.20536947067982086    0.1368370902232439    0.09303289583234232    0.06882459363334904    
  0.056967590498776935    0.0776366438135033    0.06881718096024306    0.06644402010228039    0.06881692180101444    
  0.07764595270587532    0.0978754917221061    0.13770072238784326    0.20537194344006876    0.2938209965591874    
  0.3565049062122236    0.3573390026744962    0.34365956264239766    0.35725858899612517    0.3565257787164245    
  0.29382302465677773    0.20536943554497553    0.13771953789429614    0.09787750001245532    0.0776366438135033    
  0.11201945785684228    0.09788189577948452    0.09303624706638718    0.09303304062641124    0.09787547428284582    
  0.11201547195710082    0.1434713785411168    0.2024089485949129    0.2891381555745971    0.3565368943149059    
  0.33461363572734754    0.27483979752728627    0.27490574477385876    0.334605048514866    0.35652576818303455    
  0.28913932338369164    0.20242425318783294    0.14344201756300742    0.11201945785684228    0.16184714229738836    
  0.14347147704465718    0.13768827822163873    0.1368546675645481    0.1377007123652522    0.1434714027094182    
  0.16181998699645747    0.2037295179103093    0.27667937970217    0.35576086969599685    0.3572575541075536    
  0.2749058474829167    0.22914535674999928    0.27490577224938095    0.35725864347597364    0.3557633478636244    
  0.2766693866352656    0.20371996053777844    0.16184714229738836    0.22072080959098953    0.2036904755451716    
  0.20241408348291628    0.2053840724040948    0.20537194656819677    0.20240896630256916    0.20372950568609152    
  0.2207022507800104    0.2653935082947166    0.33598271402989244    0.3835253523639957    0.34365146641335187    
  0.27490585322183636    0.2748398029516007    0.34365955890533095    0.38353428459378375    0.33598925816338265    
  0.26539513952620003    0.22072080959098953    0.27120360242422287    0.26537656179264335    0.27672425600489925    
  0.28913362425233946    0.29382102474170874    0.2891381777995881    0.2766793682646003    0.2653934707897195    
  0.2712122779912006    0.3055306908880939    0.35811006587306715    0.38352536537310505    0.3572575397529521    
  0.3346136478152759    0.35733900926307294    0.3835046428329526    0.35809619415225613    0.30553199344839466    
  0.27120360242422287    0.2913896544654761    0.305555537918348    0.33598651083636016    0.3557207556141719    
  0.3565048910074811    0.35653693314895707    0.3557608443734754    0.3359827217922477    0.305530728578106    
  0.2914046184270229    0.3055307225875233    0.3359827409775642    0.3557608653667604    0.3565369281957905    
  0.35650487029694244    0.35572077430126187    0.3359865310388895    0.30555555504792187    0.2913896544654761    
  0.27120360850733516    0.3055319929434635    0.3580962129807746    0.38350465359706065    0.3573390037893144    
  0.33461366505097545    0.3572575220099762    0.3835253448475979    0.358110080684646    0.3055307143801317    
  0.27121226755415195    0.2653934795731722    0.27667933400193034    0.28913814556873396    0.2938210164435744    
  0.289133614303742    0.2767242385470672    0.2653765743652929    0.27120360850733516    0.22072080683543666    
  0.2653951297019756    0.3359892570295925    0.3835342668877573    0.3436595400030352    0.2748398210088893    
  0.27490585063487166    0.34365146382301415    0.38352539937965474    0.33598272054330597    0.26539347212843406    
  0.22070224667798624    0.20372950925852332    0.20240894761172581    0.2053719551049132    0.20538406785302954    
  0.20241408343599746    0.20369047857467606    0.22072080683543666    0.1618471522329516    0.20371993592624288    
  0.27666935229469497    0.35576333364475526    0.3572586159051111    0.2749057686422859    0.22914535057594473    
  0.2749058562872805    0.3572575519156031    0.35576087777584964    0.2766793497879009    0.2037295215670215    
  0.16182001276718935    0.14347139895436606    0.13770073427147694    0.13685468159623868    0.13768829106325625    
  0.14347146364704977    0.1618471522329516    0.1120194657623497    0.14344200880089633    0.20242427562209797    
  0.2891393298325677    0.35652576376355605    0.33460505005540064    0.27490575576286524    0.2748397785017605    
  0.334613644172784    0.35653689113158366    0.2891381414947997    0.20240896782089374    0.1434713871930154    
  0.11201545483469022    0.09787548516044091    0.0930330278350103    0.0930362379363221    0.09788189701634596    
  0.1120194657623497    0.07763664513219555    0.09787750017897374    0.13771953652310953    0.2053694338157356    
  0.29382302332745897    0.3565257919119862    0.35725860934306447    0.3436595655566885    0.3573390050066621    
  0.3565049091193989    0.2938210305591115    0.2053719504963905    0.13770073483898398    0.09787547198160355    
  0.07764596065802573    0.06881691973359975    0.0664440083935984    0.06881719034358749    0.07763664513219555    
  0.05696758828273727    0.06882459077336936    0.09303289652900892    0.13683707958682675    0.20536944736187743    
  0.28913934640059746    0.3557633070051981    0.3835342934581767    0.3835046723805804    0.35572075042973755    
  0.28913363508623413    0.20538409384210168    0.13685468037474338    0.0930330485235219    0.06881692846078591    
  0.05696822796954114    0.05225780814856167    0.05225904728755637    0.05696758828273727    0.045625817105711355    
  0.05225827521642555    0.06643757166258756    0.0930328914867536    0.13771952517442537    0.20242429322060734    
  0.27666934509921287    0.33598925551439546    0.3580962067432252    0.33598647751841143    0.2767242331500962    
  0.20241406653253968    0.1376882716029812    0.09303623324033287    0.06644401379205149    0.052257799854103365    
  0.045626439345936284    0.04370086017228905    0.045625817105711355    0.0401261711028851    0.0437011992179492    
  0.05225828135615606    0.06882458946826644    0.0978775005952949    0.14344202535411016    0.2037199388367112    
  0.2653951299946916    0.3055320122948331    0.30555552465508395    0.2653765574483948    0.20369050615233433    
  0.14347146423018878    0.09788189173641308    0.06881718798680617    0.052259038434080585    0.043700854011780435    
  0.04012605734880271    0.0401261711028851    0.038497083717828035    0.04012617283724419    0.045625814240606556    
  0.05696758412412952    0.07763663625729648    0.11201946512019782    0.16184713660522695    0.2207208156257847    
  0.2712035787079661    0.2913896466817501    0.27120359965362295    0.22072081368895072    0.16184713377712645    
  0.11201946982020411    0.07763663656980897    0.05696759093521674    0.045625810712310734    0.04012617353740321    
  0.038497083717828035    0.037901137536267775    0.03947756139105244    0.04481694839345628    0.055808209055620464    
  0.07571945475045411    0.1084975490044217    0.15562044853361529    0.21109974719045144    0.258427426886433    
  0.27725326508444126    0.2583856096241624    0.21109286969017085    0.15567423725618476    0.10848960375812923    
  0.075703085897488    0.05581142012528058    0.044816911257748296    0.039477944754896986    0.037901137536267775    
  0.039477945426874834    0.039478355224243096    0.04260328567799767    0.05006964609680821    0.06434683006316605    
  0.08918007174793054    0.1277465756797637    0.17817422400457672    0.22983661065225472    0.2636984465242482    
  0.26369550759868104    0.22987638090323048    0.17818013752222855    0.12769699550759248    0.08918538789493545    
  0.06436272320804055    0.050066852672985274    0.04260369233346581    0.039477945426874834    0.04481691327104625    
  0.043290368470891925    0.04481727098460908    0.05006510406324298    0.06124322737570659    0.08196456886944643    
  0.11636622312902138    0.16606808116565502    0.22424337377302195    0.27302891997334405    0.2921538728769983    
  0.27302858652305206    0.22420415328931972    0.16606766377009596    0.1164121786921368    0.08195969788548703    
  0.06122801359591283    0.05006684867282254    0.04481691327104625    0.05581141964466403    0.05243891447198924    
  0.05243825773064974    0.05581247883187283    0.06434616929789486    0.08195692364339176    0.113694059792441    
  0.16341986659633848    0.22783317377716525    0.289386135239138    0.32550842754655784    0.3255139871561778    
  0.28939072660406895    0.22786245982969575    0.1634219171603054    0.11365103543341515    0.08195970593953629    
  0.06436272595279983    0.05581141964466403    0.07570308445962715    0.07017224875508705    0.06873693408561471    
  0.07017211648906649    0.07572256367059481    0.08918720412647241    0.11636770888204193    0.1634285966755699    
  0.23045695826217216    0.29928129640677553    0.34233058791030924    0.35445109157404375    0.34231629851927053    
  0.2992890483645137    0.23042941119071808    0.16342189515558503    0.1164121719367538    0.08918538598376756    
  0.07570308445962715    0.1084896033499959    0.10115097776433207    0.09935029439171761    0.09935002865666676    
  0.10112627726205106    0.10848719733441511    0.1277458920617159    0.16605766064474828    0.2278345530997143    
  0.29929759003565853    0.3446531231377825    0.35394799867559923    0.35396073385992244    0.34465133881539084    
  0.29928904871979756    0.22786244595614163    0.16606768552430898    0.12769699503874932    0.1084896033499959    
  0.15567423507344705    0.14946893742091985    0.15077794463110938    0.15220052633462747    0.15081110426746475    
  0.14947409078505175    0.15561757554456068    0.1781924997838423    0.22423266532333797    0.28938274394686675    
  0.34231547013578373    0.3539601459946074    0.34885310800979036    0.35396075685276035    0.34231633049168664    
  0.2893907529563047    0.22420416743872257    0.17818016025906372    0.15567423507344705    0.21109283817795588    
  0.2129820251497646    0.224425503479229    0.2335057967599484    0.23346307615610049    0.22441361237272336    
  0.21305112490678524    0.21107939430128128    0.2298444230025783    0.2730391950425657    0.3255106622158702    
  0.3544520662110843    0.35396015705271294    0.35394797043635373    0.3544510908605289    0.32551395724856025    
  0.2730285856655451    0.22987639367568397    0.21109283817795588    0.2583855960217035    0.27708082648963417    
  0.3051282697294193    0.32352756272763394    0.3282991552647767    0.3235472617608851    0.30504826405673563    
  0.2770936680072114    0.25842418590982397    0.263683161209888    0.2921563585051045    0.325510661647574    
  0.34231546496637305    0.34465311247947594    0.34233060061074977    0.325508446798304    0.2921538909998099    
  0.2636954791742964    0.2583855960217035    0.27725327850704284    0.3179713780109039    0.3635740136919329    
  0.3734686255205385    0.35378430637507785    0.3538357664057911    0.373539563035854    0.36357732588557035    
  0.3179091585078179    0.27728064455480084    0.2636831854018563    0.273039229134837    0.28938273803063175    
  0.2992975875262499    0.2992813245052923    0.28938612884898524    0.2730289687954519    0.2636984562721874    
  0.27725327850704284    0.2584274401690738    0.3179198432638657    0.3832990649028417    0.3756343589851409    
  0.290252582145006    0.2435948820541066    0.2901324175325726    0.37564976950416507    0.38335635187160677    
  0.3179091430975965    0.2584241870585244    0.22984440406441986    0.22423264546364383    0.22783454992347446    
  0.23045698498933137    0.2278331603161737    0.22424338302564717    0.22983662699180551    0.2584274401690738    
  0.21109974052683972    0.2770707693293192    0.3635941550076005    0.3756866044452635    0.24957935353627467    
  0.1410432378411854    0.14110518182826576    0.24958925488876044    0.3756497769517757    0.36357732545223714    
  0.27709366940375835    0.21107939673695697    0.17819248593376802    0.16605767768714347    0.16342861063151076    
  0.16341984890214584    0.16606810899940436    0.17817422772117353    0.21109974052683972    0.15562043447341928    
  0.21304884895311021    0.30504828638321063    0.3735401025201536    0.29013280049112655    0.1411048663203661    
  0.0887064792639635    0.14110517574418244    0.29013245051850994    0.37353957935797927    0.3050482500601066    
  0.2130511568211126    0.15561758407924253    0.12774590879414816    0.11636771544300682    0.11369405449844017    
  0.1163662465333921    0.12774657600437567    0.15562043447341928    0.10849755617069631    0.14945771258912957    
  0.22443516798222432    0.3235315901825194    0.35379864187653537    0.2436056155207266    0.14110485019573094    
  0.1410432451238521    0.24359489091823416    0.353835736986303    0.32354721745754406    0.2244136202352186    
  0.14947407533962334    0.1084871851396149    0.08918720376920379    0.0819569182983374    0.08196457497639374    
  0.0891800754035931    0.10849755617069631    0.07571945538747246    0.1011284794770667    0.1508109198764478    
  0.23345384001688693    0.32835207794999105    0.3537986783500978    0.2901328009472015    0.24957937787972184    
  0.29025258057320696    0.3537843215711809    0.32829915540952515    0.23346309545831426    0.15081111972350406    
  0.10112627932551836    0.0757225632053033    0.06434617394939902    0.06124322918131785    0.06434682669265547    
  0.07571945538747246    0.055808211744187604    0.0701790869858992    0.09934273940261652    0.1522162277215871    
  0.2334538300842233    0.3235315966360293    0.37354009692798285    0.3756866095983148    0.37563437395824956    
  0.3734686456872313    0.32352758309687785    0.2335058326017375    0.1522005292663802    0.0993500314812196    
  0.07017212040568939    0.05581248039765558    0.050065106545399835    0.050069648592559066    0.055808211744187604    
  0.04481694971303721    0.05243747307326702    0.0687368619428475    0.09934273550305267    0.1508109018643047    
  0.22443516829987223    0.30504827944447566    0.36359414021440484    0.38329906777815476    0.3635740104132483    
  0.30512824813288786    0.224425495497625    0.15077793430162661    0.09935028642374495    0.06873692245851684    
  0.05243825030904106    0.044817269113145104    0.0426032800613609    0.04481694971303721    0.039477561810878435    
  0.04329203596460984    0.052437476873879646    0.07017907754424693    0.1011284769046151    0.1494577162340571    
  0.21304884272532185    0.27707076125501395    0.3179198620174378    0.3179713656425922    0.27708082021034497    
  0.21298204394516723    0.14946893108564904    0.10115097251748824    0.07017226900428913    0.05243891445445049    
  0.04329037365309536    0.0394783601638407    0.039477561810878435    0.037901137536267775    0.03947756139105244    
  0.04481694839345628    0.055808209055620464    0.07571945475045411    0.1084975490044217    0.15562044853361529    
  0.21109974719045144    0.258427426886433    0.27725326508444126    0.2583856096241624    0.21109286969017085    
  0.15567423725618476    0.10848960375812923    0.075703085897488    0.05581142012528058    0.044816911257748296    
  0.039477944754896986    0.037901137536267775    0.036198090987750606    0.03765964131356682    0.04258008326870021    
  0.05257052094290922    0.07033713635968099    0.09887528105066276    0.13901893969636037    0.18554502379882146    
  0.2246533680826405    0.24002776616906787    0.22460364945823652    0.18553494426133468    0.13908113502440458    
  0.09886725632142558    0.07031582683938008    0.052575053376230266    0.04257983473636329    0.03766014562895807    
  0.036198090987750606    0.03766014309578917    0.03766160772714226    0.04025306743461361    0.04642966042174046    
  0.05798152892876206    0.07759214528170207    0.10729328673789273    0.14522964939942062    0.18346722267427307    
  0.20826102218051862    0.20826073313098906    0.1835097361663733    0.14523260120650994    0.10724275512383241    
  0.07759756108887544    0.058001065021910575    0.04642529913951527    0.040254499274607454    0.03766014309578917    
  0.042579834471932546    0.04147574644029509    0.04257989905556425    0.04642358608302589    0.05457684837402686    
  0.0693923953548289    0.09345109522439901    0.127464498680178    0.1667850829482591    0.19983675336914092    
  0.2128964648902738    0.19983654644685953    0.16675009677286337    0.12746088496311148    0.09349783964267389    
  0.06938711890274613    0.054559402469379924    0.04642529945592063    0.042579834471932546    0.05257505550886538    
  0.05050251491728979    0.0505021249309309    0.052576345339795806    0.057981387432224196    0.06938414020836453    
  0.08987964626741142    0.12151026056858352    0.16263793002595447    0.2039489293773306    0.23027513323606194    
  0.23027758242660865    0.20394550719837293    0.16267116091140948    0.12151381954025396    0.08983538711677355    
  0.06938712619289873    0.058001068193404635    0.05257505550886538    0.07031582691485151    0.06780392771339387    
  0.06724891335154523    0.0678037829621058    0.07033865626193501    0.07760087380200191    0.09345132497444372    
  0.12151998975243224    0.16252791296734237    0.2094398696073963    0.24726740571957675    0.26169145681205297    
  0.2472660168177478    0.20944472545333628    0.16249686240509104    0.12151380565477236    0.09349783797796717    
  0.07759755224080649    0.07031582691485151    0.09886725239631185    0.09760176665458595    0.09846368427808727    
  0.09846351541478449    0.0975714739809199    0.09886408000720198    0.10729248811848438    0.12745483486524115    
  0.16263792074922453    0.2094544914494321    0.2537952929469933    0.27973315878525973    0.27973037734776357    
  0.25379844830791015    0.20944471542705084    0.16267114059452553    0.12746088124337213    0.10724275060786645    
  0.09886725239631185    0.1390811433097883    0.14328181596136785    0.15049974155163037    0.1537628807126392    
  0.15054077340600686    0.1432898021444989    0.1390208932671843    0.14524180322534877    0.16678286277322701    
  0.20393629635594288    0.24726654191893244    0.279729318387071    0.290962209899274    0.2797303860227627    
  0.24726604936362087    0.20394550979138212    0.16675010435597465    0.14523261954349284    0.1390811433097883    
  0.18553494093606893    0.20232617851462403    0.22388239991710324    0.237870807801913    0.23781823711086789    
  0.22386423089280752    0.20240013089211092    0.18552757580708662    0.18346970215994063    0.19985120258110226    
  0.2302723700154461    0.26169740060594965    0.27972930966581255    0.27973314691932977    0.2616914405692298    
  0.23027755554094137    0.19983653996506426    0.18350973201584125    0.18553494093606893    0.22460367098555786    
  0.26077931956422046    0.30155235846183287    0.32616632492493997    0.332200058921907    0.32619477223838517    
  0.30146956258991336    0.26078262815321    0.22465285457421383    0.20824472907370412    0.21289980484142157    
  0.2302723519375812    0.2472665214273932    0.2537952943678932    0.2472674138650779    0.23027511601176226    
  0.21289646092731607    0.20826072380740432    0.22460367098555786    0.2400277732783676    0.2973360411479554    
  0.35441717863451033    0.3646913509472878    0.3398380116498215    0.33988934085037964    0.36476070768683316    
  0.35443293960159233    0.29725940458834377    0.24006013125582884    0.20824476436936326    0.1998512354647342    
  0.20393628660401447    0.2094545136167765    0.20943988310388564    0.20394893113515822    0.19983678865356025    
  0.20826103311910607    0.2400277732783676    0.22465335658139024    0.2972787353449059    0.3710892938799666    
  0.3547995214819505    0.2548307395455284    0.204396593721558    0.2547205112517447    0.3547976433495457    
  0.3711687408866046    0.29725937990739826    0.22465285605528784    0.18346968394842023    0.16678283800143973    
  0.16263790727742994    0.16252791511777917    0.16263791530026397    0.16678509510315526    0.1834672148910368    
  0.22465335658139024    0.1855450212442247    0.260758628329413    0.3544467138047572    0.3548512151595955    
  0.20803951425112088    0.10016028751386881    0.10020139267543786    0.20806573384283772    0.3547976358939558    
  0.3544329205118746    0.2607826329627766    0.1855275653168977    0.1452417845344773    0.12745484227584833    
  0.12151998885154949    0.12151024334979944    0.12746451200146508    0.14522964414915018    0.1855450212442247    
  0.13901893449623615    0.202400909596635    0.3014696032042698    0.3647608612897634    0.2547211038463789    
  0.10020114958055507    0.054369915752378165    0.10020138341920157    0.25472054650527626    0.3647607136305824    
  0.3014695662686209    0.20240014792871483    0.13902090282545732    0.10729250062636811    0.09345133517076026    
  0.08987964025539666    0.09345110261158734    0.10729328744436903    0.13901893449623615    0.09887528549308323    
  0.1432760855806333    0.22388505924579527    0.326182142419278    0.3398351304870233    0.20442323552185918    
  0.10020115043807364    0.10016027882202322    0.20439661776437176    0.3398893039795029    0.32619472021328644    
  0.22386423708469522    0.14328977640171214    0.09886406489948446    0.07760087189438414    0.06938412300175334    
  0.06939239857151748    0.07759214619720858    0.09887528549308323    0.07033714375710669    0.09757239015425241    
  0.15054017724090793    0.237800728530036    0.33227701702904194    0.33983515526989583    0.2547211114222397    
  0.20803951860254788    0.2548307331626223    0.33983802559889437    0.33220006856704215    0.23781826506223164    
  0.1505407859967565    0.09757147491338895    0.07033866663970688    0.05798138957717755    0.054576856312644216    
  0.05798152740559745    0.07033714375710669    0.05257052289357268    0.06781237839033634    0.09845201783025118    
  0.15379019121063472    0.23780073590446713    0.32618215471203266    0.36476087106744687    0.3548512026602315    
  0.35479952683495225    0.3646913435671682    0.3261663420053599    0.23787083765256883    0.1537628874316283    
  0.09846352323621316    0.06780379288875803    0.05257634504001697    0.04642358716908415    0.04642966117651661    
  0.05257052289357268    0.042580080988649766    0.05049992056626638    0.06725176494200308    0.09845201801834678    
  0.15054017344310192    0.22388504722799032    0.30146960237247    0.35444670590395183    0.37108929648132066    
  0.3544171634410854    0.30155235231351624    0.22388240106810556    0.15049973128529354    0.09846367233028874    
  0.0672489008265655    0.050502113425261015    0.04257989487272396    0.040253067873605254    0.042580080988649766    
  0.03765963807142486    0.04147868877820056    0.0504999303600333    0.06781237328538654    0.09757239120812257    
  0.1432761014624348    0.20240090865006435    0.26075863886198264    0.29727876598088404    0.2973360218105711    
  0.26077931062407606    0.20232618640572556    0.14328181277053909    0.09760176593322349    0.06780393716420301    
  0.05050251169218517    0.04147574707698733    0.03766161089156252    0.03765963807142486    0.036198090987750606    
  0.03765964131356682    0.04258008326870021    0.05257052094290922    0.07033713635968099    0.09887528105066276    
  0.13901893969636037    0.18554502379882146    0.2246533680826405    0.24002776616906787    0.22460364945823652    
  0.18553494426133468    0.13908113502440458    0.09886725632142558    0.07031582683938008    0.052575053376230266    
  0.04257983473636329    0.03766014562895807    0.036198090987750606    0.033740716234689445    0.03505548794863592    
  0.039376051466754616    0.047911026036700305    0.06265858703840575    0.08563102247628271    0.11688679175436943    
  0.15207909751065632    0.18101538183535917    0.1922377390657818    0.18098285675021947    0.15207569484666023    
  0.1169320336695437    0.08562258210401899    0.062645541361005    0.04791363844777315    0.03937631099520534    
  0.03505540963966678    0.033740716234689445    0.03505540627775816    0.03505526675635099    0.03719316089858092    
  0.04215177478234693    0.05107624678096793    0.06565998893915033    0.0869273270722107    0.11313395439583113    
  0.13886757183797627    0.15526596118990282    0.15526566018623988    0.13889389488822984    0.11313425354212336    
  0.08689161090626518    0.06566545591681362    0.05108796045731503    0.04214956716951007    0.03719335641577987    
  0.03505540627775816    0.039376310028539134    0.03858260070453201    0.03937664121113815    0.04214821493567095    
  0.047855662187629065    0.05786625717958791    0.07358069436163364    0.0949942722607548    0.11899903694501313    
  0.13880993259640423    0.14655771524589795    0.13880997184068222    0.11897827243235651    0.09499252899505456    
  0.07361272343488848    0.05786258095869926    0.047844241878183175    0.04214956571451589    0.039376310028539134    
  0.047913640223046707    0.046757564369352946    0.0467577742596077    0.047913993138979045    0.05107568078482045    
  0.05785983028583701    0.07000979243704625    0.08834298431147607    0.11158148728556537    0.13463967489507125    
  0.14933536571396835    0.14933458795275456    0.1346392378213685    0.11159947184367827    0.08834674751686232    
  0.06997801553901832    0.05786258778759067    0.051087961914002326    0.047913640223046707    0.06264554664040596    
  0.06213402196484254    0.06217772456018794    0.06213359195109701    0.06266081981528317    0.06566724407188941    
  0.07358014318962693    0.08835146263333106    0.11001877996178662    0.13501038917756977    0.1558383281870479    
  0.164066085144935    0.1558386446726871    0.13501223039950205    0.11000128617420656    0.08834674389942024    
  0.07361272693826072    0.06566545340458596    0.06264554664040596    0.08562257350415098    0.08805732021802079    
  0.0904696755758232    0.09047031087168446    0.08803689573867525    0.0856214864402622    0.08692740587885292    
  0.09498622779346556    0.11158227694533866    0.13501534222301656    0.1588868959051518    0.17427953090287057    
  0.17427903016543556    0.15888679571905145    0.13501221855966958    0.11159947491386099    0.0949925283753226    
  0.08689160802312827    0.08562257350415098    0.1169320440321976    0.1268491166226196    0.1368794220619176    
  0.1409892805715902    0.13690709762015543    0.12685221835576135    0.11688726669828517    0.1131443304824317    
  0.11899556393439907    0.13463521717987587    0.15583820006862742    0.17427879062631335    0.18154490146378754    
  0.17427903832345124    0.15583868347880703    0.13463926613803695    0.11897828558499403    0.1131342612205186    
  0.1169320440321976    0.15207568663697088    0.17587481149040993    0.20166921632687201    0.21797950330674484    
  0.21794129868752843    0.20166202409400233    0.17593224380978795    0.15206445633652044    0.13887164982478725    
  0.13881657589940305    0.1493342906705195    0.1640672461113413    0.17427880338901233    0.17427952715768513    
  0.16406608234488523    0.149334576939826    0.13880996896606593    0.13889388781034984    0.15207568663697088    
  0.1809828661998441    0.22363047176256443    0.27082778750512476    0.30306580788374277    0.3131185487731454    
  0.3030810148961816    0.2707564007750345    0.22364329609654396    0.18101070222351057    0.1552591360374663    
  0.14655713783065413    0.14933428327740617    0.15583819998298132    0.15888689850771393    0.15583834749866293    