#     DFTpy    
  CRYSTAL 
    
  PRIMVEC    
  1.6514299398842653    -2.8603605610199634    0.0    
  1.6514299398842653    2.8603605610199634    0.0    
  0.0    0.0    5.459156896682683    
  PRIMCOORD    
  4    1    
  Si    1.6514299398842656    0.9534535203399875    0.3439787464815264    
  Si    1.6514299398842656    -0.9534535203399882    3.0735571948228677    
  Si    1.6514299398842656    0.9534535203399881    2.3855997018598147    
  Si    1.6514299398842658    -0.9534535203399881    5.115178150201157    
  BEGIN_BLOCK_DATAGRID_3D    
  3d_datagrid_density    
  BEGIN_DATAGRID_3D#0    
  15    15    25    
  0.0    0.0    0.0    
  1.6514299398842653    -2.8603605610199634    0.0    
  1.6514299398842653    2.8603605610199634    0.0    
  0.0    0.0    5.459156896682683    
  0.12356766226051488    0.13569323269147723    0.17624895354500644    0.25679158415511905    0.38781547446291587    
  0.5570458697197855    0.7077694689043124    0.7677802100111493    0.7077693617312192    0.5570458848315812    
  0.3878155762745398    0.25679151716108867    0.1762489547302676    0.13569322957600957    0.12356766226051488    
  0.1356932214738777    0.13569494941721386    0.16193759739750957    0.22199821374658887    0.3263222450179898    
  0.47089320229258524    0.614448268988062    0.6980434671779372    0.6981315520966639    0.6143747936455914    
  0.47083650551632894    0.32637963485859867    0.22200473680124477    0.1619273961397427    0.1356932214738777    
  0.17624900627396875    0.1619376201930113    0.17623655573425143    0.22199512222277332    0.3048276784067764    
  0.41590651239430876    0.5069835140048953    0.5328594822963315    0.5280736130882857    0.5328762580832215    
  0.5071066011658698    0.41590091251811345    0.3047652990945979    0.22200474161990755    0.17624900627396875    
  0.2567914989784598    0.22199815016951732    0.22199510706685838    0.2568135827508593    0.32631553320109163    
  0.4158972864716294    0.46104990570442345    0.4022530558569853    0.320825635857319    0.32080961215874493    
  0.4021805668565128    0.46104479137604865    0.4159008714208941    0.32637969803476025    0.2567914989784598    
  0.38781557813271156    0.32632224947181687    0.30482771930107294    0.32631555468266704    0.38787465049301706    
  0.4708188662889753    0.5070513343746589    0.4022420017686996    0.24164674068959893    0.17885577147376766    
  0.24170924549825548    0.40218058546840807    0.507106521339439    0.470836505499488    0.38781557813271156    
  0.5570458685411004    0.4708932637624543    0.4159064706895174    0.41589731797001367    0.47081876388361044    
  0.5570680758467906    0.6144359779420479    0.5328451464602861    0.3208265298464407    0.1788789657817851    
  0.1788557946651295    0.3208096522684104    0.5328762455990061    0.6143747858208047    0.5570458685411004    
  0.7077692898978171    0.6144481796298012    0.5069835571543787    0.4610500249999382    0.5070513236096157    
  0.6144360671074323    0.7076981064442891    0.6981743553105538    0.5280553341028321    0.3208264889657473    
  0.24164671146804936    0.320825592146979    0.5280735805824045    0.6981314632029578    0.7077692898978171    
  0.7677804538607175    0.6980434075969534    0.5328593799157412    0.4022531586703812    0.4022419352046441    
  0.532845188857389    0.6981744042613017    0.767637742879147    0.6981745126867523    0.5328451672739261    
  0.4022419934388224    0.40225310398738234    0.5328593860531075    0.6980434099032802    0.7677804538607175    
  0.7077692391113715    0.6981314003220396    0.5280735761949322    0.3208256515072477    0.2416466775321708    
  0.32082652066457157    0.5280553291250477    0.6981744176318879    0.7076981101764533    0.6144360246983077    
  0.507051291559349    0.46104995797118087    0.5069834652447381    0.6144482794451687    0.7077692391113715    
  0.5570459123237215    0.6143748163241626    0.5328760901998014    0.3208096287459327    0.17885580403516368    
  0.17887896711701776    0.3208265047681833    0.5328452429139091    0.6144359972488196    0.5570681654414406    
  0.47081885732515094    0.4158972434586796    0.4159065728803397    0.4708932953212679    0.5570459123237215    
  0.3878154996380867    0.4708365152701776    0.5071065392278234    0.40218063424280387    0.2417091856453755    
  0.17885580422752848    0.24164668958294297    0.40224196608436996    0.5070513481789128    0.47081873018738984    
  0.38787469155807225    0.32631559299866086    0.3048277019569238    0.32632221384832844    0.3878154996380867    
  0.2567915311122007    0.3263797284107266    0.4159009195183566    0.46104476378558584    0.4021805991460546    
  0.32080969060509745    0.32082556736842804    0.40225311475613823    0.4610499949687444    0.4158972334385653    
  0.32631556509755877    0.2568135779400803    0.22199508732377668    0.22199819103312982    0.2567915311122007    
  0.17624896555726657    0.2220047357296292    0.3047651877857974    0.4159009310525177    0.5071064919208692    
  0.5328761621973098    0.5280735879682921    0.5328594053984731    0.506983559534545    0.41590654392369747    
  0.3048277432340501    0.22199511999939397    0.17623660006693548    0.16193759077318048    0.17624896555726657    
  0.1356932357786568    0.16192735555594295    0.22200475282783336    0.32637973758004696    0.4708365304026433    
  0.6143748261466606    0.6981313667877421    0.6980433066101183    0.6144483614868681    0.47089321453767924    
  0.3263222554989589    0.2219981924350653    0.1619376092414034    0.1356949433891798    0.1356932357786568    
  0.12356766226051488    0.13569323269147723    0.17624895354500644    0.25679158415511905    0.38781547446291587    
  0.5570458697197855    0.7077694689043124    0.7677802100111493    0.7077693617312192    0.5570458848315812    
  0.3878155762745398    0.25679151716108867    0.1762489547302676    0.13569322957600957    0.12356766226051488    
  0.12182460764403996    0.13315328251214759    0.17096716726640862    0.24565062903284715    0.3659451379069726    
  0.5199952846893282    0.656802635504387    0.7113424775166707    0.6568823771726829    0.5200165789401016    
  0.36589556594437445    0.24565010489335468    0.17098291832959273    0.1331512218712014    0.12182460764403996    
  0.133151216203365    0.13314948850267772    0.15617185602567624    0.20876400261628733    0.30027307166941253    
  0.430371106101795    0.5694424691516123    0.659750737557265    0.6597718328011101    0.5693486800970963    
  0.4303459345633577    0.3003409003335218    0.20876153426882058    0.15615362961506346    0.133151216203365    
  0.1709829481517036    0.15913905895996253    0.1709650434341442    0.20874748622736033    0.27811270802150223    
  0.3775105597997216    0.4819046662932921    0.551432324909972    0.5724066342851403    0.5514406305133299    
  0.4820004322615717    0.3775083412212092    0.2780476795236935    0.20876152190967123    0.1709829481517036    
  0.24565008995946017    0.21834871325178398    0.2183651065403215    0.24566764921750162    0.30027514409848227    
  0.37750653149629965    0.44735403028324444    0.4671318175395235    0.450323986452667    0.45033099798293774    
  0.4671119546591559    0.44730557540617044    0.3775083190016999    0.3003409810477279    0.24565008995946017    
  0.36589555889463227    0.31963015081151724    0.30277301300374665    0.31961179403111056    0.36596886768723746    
  0.4303396892000038    0.48191507961903757    0.4671559441729449    0.3951689250865897    0.3557745720946338    
  0.39518163119555083    0.467111962631676    0.4820003797863451    0.4303459200854906    0.36589555889463227    
  0.520016664469434    0.45394552508787683    0.40789442369664064    0.4078930418393749    0.4538559305970514    
  0.5200215655546624    0.5694402014503674    0.5514225699485513    0.45032126672408496    0.35577909640118743    
  0.3557746041136038    0.4503310576919947    0.5514406133379268    0.5693486813231207    0.520016664469434    
  0.6568824359392665    0.5749028046681506    0.4685109099194394    0.42050506816342687    0.46859375325286845    
  0.5748992804574821    0.6567809017735071    0.6598082717999325    0.5724104764620911    0.45032122339149716    
  0.39516887662873257    0.4503239342148716    0.5724065416236918    0.6597717510000565    0.6568824359392665    
  0.7113425550095361    0.6356156025092954    0.44816948528625    0.3055457319841598    0.3055195586958035    
  0.4481597407096129    0.6357658017655932    0.7112253893089938    0.6598083755940484    0.5514225881322009    
  0.4671559225127208    0.4671318618461617    0.5514323045237002    0.6597507181179192    0.7113425550095361    
  0.6568026244885697    0.6357213408385544    0.4224701446296758    0.19966512350267376    0.12851373240175443    
  0.1996742872467484    0.4224340380759996    0.6357658242460127    0.6567809417570368    0.569440206805128    
  0.48191517755020097    0.4473540303892282    0.48190467113908514    0.5694424575103343    0.6568026244885697    
  0.5199952120959229    0.574888735192435    0.448197005014316    0.19963801196277636    0.0759973093194208    
  0.07600466661473285    0.1996742640032862    0.44815966875775304    0.5748992517711474    0.5200216273743832    
  0.43033969818949375    0.37750650106625416    0.3775106611290456    0.4303711497287969    0.5199952120959229    
  0.3659451569081172    0.4538815761707073    0.4685943702984778    0.30547548995235335    0.12856454511735171    
  0.07599729180463721    0.12851373522209103    0.30551962099871427    0.46859365020011995    0.4538558698687274    
  0.36596895286504355    0.3002751466802807    0.27811271806883797    0.3002730189437553    0.3659451569081172    
  0.2456505633653452    0.3196443009031864    0.407911033074146    0.4205266342095837    0.30547546701011574    
  0.19963800859580944    0.19966507267390646    0.3055456894133332    0.42050516229394086    0.4078929647026916    
  0.3196118244680064    0.24566761855184974    0.20874744289125596    0.2087639562931013    0.2456505633653452    
  0.17096717621719587    0.2183745803977492    0.30272188495800995    0.40791107437796337    0.46859439211824855    
  0.44819702167877457    0.4224701711033253    0.44816951286849055    0.4685108375587383    0.4078944647183396    
  0.30277300331891377    0.21836507650550027    0.17096507294198174    0.15617187296136226    0.17096717621719587    
  0.13315329319404867    0.15912905663390536    0.21837458581122954    0.31964427358471387    0.45388160091195145    
  0.5748886649467562    0.6357214075982751    0.635615501034493    0.57490292404209    0.4539455126654061    
  0.31963015527904076    0.21834868875414962    0.15913902543887729    0.13314950716983187    0.13315329319404867    
  0.12182460764403996    0.13315328251214759    0.17096716726640862    0.24565062903284715    0.3659451379069726    
  0.5199952846893282    0.656802635504387    0.7113424775166707    0.6568823771726829    0.5200165789401016    
  0.36589556594437445    0.24565010489335468    0.17098291832959273    0.1331512218712014    0.12182460764403996    
  0.11729483672421573    0.12659078312454783    0.1575018799089691    0.2178400938146482    0.3133046265642408    
  0.4334891821923934    0.5393261025564393    0.5815326871032345    0.5394136997867907    0.4335109136359914    
  0.31324417915731534    0.21784218572749678    0.1575177103648924    0.12658937341835413    0.11729483672421573    
  0.12658938144550513    0.12658600779853696    0.14399021853669167    0.18362445387421575    0.25203913527087446    
  0.349579940310121    0.45642896704551045    0.5283580028417829    0.5283576126891715    0.45634760930833357    
  0.3495733346375409    0.25209618520578464    0.18362178107637148    0.1439713901854738    0.12658938144550513    
  0.15751771107186344    0.14934508717971923    0.15750157732007247    0.18360883359463745    0.23190025972074846    
  0.3035096723266202    0.38761925761027033    0.4570511313583023    0.4834544494147893    0.45705287790248    
  0.38768308940158547    0.3035117894868472    0.23184339229492593    0.18362176484386047    0.15751771107186344    
  0.21784219038144356    0.20079741039072055    0.20081643156696785    0.21785454309549762    0.2520405706129586    
  0.3035112866009747    0.362689868516984    0.4097481083443227    0.4320445338567096    0.43205696980683195    
  0.40975719933962024    0.3626349227618746    0.3035118005078123    0.252096209732452    0.21784219038144356    
  0.31324416774232294    0.2876532370565231    0.2779259644668999    0.28763566881575153    0.3133105755444019    
  0.3495697439440027    0.38760885821574437    0.409782140246116    0.40879074272427995    0.40343188889819603    
  0.40877470930365933    0.40975725103127014    0.38768304368850187    0.3495733077588134    0.31324416774232294    
  0.43351086447977016    0.4001509596524568    0.37346718298426984    0.3734668603979941    0.400070462524799    
  0.43351058814738064    0.4564298786717634    0.45703877909434226    0.4320429509902986    0.4034214216408785    
  0.40343194513021013    0.4320570566728964    0.457052913954806    0.4563476387269288    0.43351086447977016    
  0.5394136639422229    0.4979676389125293    0.42627807833702985    0.3907126656637027    0.42635953314290514    
  0.49796532813839683    0.5393242706905649    0.5283841544644057    0.4834606313268618    0.4320428660139658    
  0.4087907282679851    0.43204454859688257    0.4834543150752526    0.5283576567708693    0.5394136639422229    
  0.581532808188635    0.5452715158942516    0.4043042434413971    0.2862815812894279    0.2862500970957481    
  0.40429549440929474    0.5454023992990897    0.5814478572632578    0.5283842356521682    0.4570388366194022    
  0.4097821083058904    0.4097481067574161    0.4570511006380098    0.5283580590628283    0.581532808188635    
  0.5393259965180637    0.5453670942173875    0.3795864876860736    0.18756695295926087    0.1236817651661224    
  0.18757634345717128    0.3795519418130017    0.5454023452941326    0.5393243456022019    0.45642988545750396    
  0.3876088589780762    0.362689817078775    0.3876192404603608    0.45642901949555814    0.5393259965180637    
  0.4334891428537622    0.49797453253717683    0.40432770136565865    0.18754053982080784    0.0741993177179222    
  0.07420682406902096    0.187576312988439    0.4042954830008314    0.49796528641221605    0.43351065609024286    
  0.3495697598802562    0.30351126303453363    0.3035097127550137    0.34958003396658727    0.4334891428537622    
  0.3133046697054047    0.4000905541171798    0.42634353086616505    0.2862120400043037    0.12373155426537984    
  0.07419931846914375    0.12368175633493135    0.2862501694159101    0.42635939575927634    0.40007040306199765    
  0.3133106435712257    0.25204062291682017    0.23190024872249404    0.2520390817094397    0.3133046697054047    
  0.21784003520198375    0.2876538191460988    0.37348418037477704    0.3907438682072574    0.2862120314191064    
  0.18754058032082768    0.18756690219157487    0.2862815181495663    0.39071269337805775    0.3734667828513135    
  0.287635676949662    0.21785454385526157    0.18360882020538585    0.18362440934113475    0.21784003520198375    
  0.15750187643340943    0.20082386265426513    0.27788882339725335    0.373484208364813    0.4263435322872192    
  0.4043277054586138    0.37958658818751245    0.40430430455287186    0.42627810494915386    0.3734672422979082    
  0.2779259856373839    0.20081640255875371    0.1575016194474437    0.14399020316407757    0.15750187643340943    
  0.12659077590881648    0.14933655138009466    0.2008238626964137    0.2876538220546647    0.40009059971405575    
  0.49797450748086886    0.5453671711769187    0.5452714859633262    0.49796776747345206    0.40015091472680653    
  0.28765328527532186    0.2007974088120007    0.1493450866851141    0.12658602871632185    0.12659077590881648    
  0.11729483672421573    0.12659078312454783    0.1575018799089691    0.2178400938146482    0.3133046265642408    
  0.4334891821923934    0.5393261025564393    0.5815326871032345    0.5394136997867907    0.4335109136359914    
  0.31324417915731534    0.21784218572749678    0.1575177103648924    0.12658937341835413    0.11729483672421573    
  0.1117227111865434    0.11856915683612064    0.14119661039992823    0.18498410585781683    0.25381850952491036    
  0.3398879070243072    0.4156233418517902    0.4460202658605371    0.41568058943064085    0.3398980054954581    
  0.2537741725920608    0.1849918197333841    0.14120285226074197    0.11856970125894152    0.1117227111865434    
  0.11856967346044815    0.11857094438510776    0.1298446346372372    0.155867916894424    0.20092223109435883    
  0.2651120939267823    0.33525938232369823    0.38240237937100086    0.3824026691590315    0.33520570381427356    
  0.2651096834017208    0.20096090967845184    0.1558631012734948    0.12983738081465074    0.11856967346044815    
  0.14120285176468508    0.13679321376859077    0.14119462053886875    0.15585684679995068    0.18400473613097573    
  0.22711476156447052    0.2804044643503428    0.3272268519021138    0.34589666010222947    0.3272289248218453    
  0.28044529718127664    0.22711654423994698    0.18396754428502932    0.1558631024542163    0.14120285176468508    
  0.1849917877546853    0.17760866796535763    0.1776163613243628    0.18499695603814237    0.2009219508241084    
  0.22712003374230852    0.261664023971765    0.29636675322042416    0.31835013146510766    0.31835723338348126    
  0.29637054277558633    0.2616298382007428    0.2271164989887109    0.2009609412756264    0.1849917877546853    
  0.253774132329681    0.24668725662668473    0.2440168138487043    0.2466826628828775    0.2538211926150988    
  0.2651030934014915    0.2804005813675857    0.29638486755043547    0.30755994122540903    0.31120804054270523    
  0.3075527543484502    0.2963705403646243    0.2804452128828171    0.2651096947343521    0.253774132329681    
  0.33989800659636593    0.33846865640602225    0.3338056982063586    0.3337977093399938    0.3384100346989935    
  0.33990324650422277    0.3352549451821689    0.3272186332108442    0.31834882840126966    0.3112047679111392    
  0.31120806621582897    0.3183572621587429    0.32722892965349654    0.3352057500917423    0.33989800659636593    
  0.4156806911754339    0.4244743117098547    0.4061134543433139    0.39263707473160514    0.4061840265527754    
  0.4244645465002106    0.415628219618015    0.3824189398763687    0.34589763233928433    0.31834879545806605    
  0.30755990900638674    0.31835009722847957    0.34589663301911705    0.38240263289839027    0.4156806911754339    
  0.4460204132204048    0.47232029284470756    0.4239637189282479    0.35926188392538216    0.3592234269217073    
  0.4239632203713513    0.4724053615647607    0.4459685840335548    0.3824190490577552    0.32721866342698147    
  0.29638486263781433    0.29636679477068173    0.32722686558421393    0.38240240693469335    0.4460204132204048    
  0.4156232760751666    0.4723913546560119    0.41871420310810553    0.2945095730439952    0.23798826850380495    
  0.2945096457660102    0.4186992600871349    0.4724054226759891    0.4156282514338842    0.3352549603889826    
  0.28040059024422403    0.26166397436837296    0.2804044498602907    0.33525942242512186    0.4156232760751666    
  0.33988789989064805    0.4244741224909645    0.42397771170763604    0.29449473389156683    0.1844639515443021    
  0.18449527221647952    0.294509629871575    0.4239631686197129    0.42446454285305113    0.3399033550477292    
  0.26510307573789854    0.227119983816245    0.22711482901531474    0.2651121444362865    0.33988789989064805    
  0.2538185119387302    0.33841824635667084    0.4061796284624537    0.3591754734491902    0.23805731668716537    
  0.18446393978076875    0.23798824724756748    0.35922347190882603    0.4061839842316073    0.33841003601190495    
  0.25382124376137655    0.20092195146720113    0.1840047364895359    0.20092218106601956    0.2538185119387302    
  0.18498405395996212    0.2467007260812095    0.3337988769217755    0.3926802242343099    0.35917546223504876    
  0.2944947577536384    0.29450948751844147    0.3592618752083267    0.3926370708397364    0.3337976241694371    
  0.24668267333859215    0.1849969627550392    0.15585684486130544    0.1558678979158133    0.18498405395996212    
  0.14119660460089128    0.17761806427173227    0.24399954025234363    0.33379891560849845    0.4061796042008344    
  0.4239777663254002    0.4187142308819302    0.4239637626001652    0.4061135013107333    0.3338056999773534    
  0.2440168800805843    0.17761636208285028    0.14119465922782945    0.12984463020230896    0.14119660460089128    
  0.1185691747367016    0.13679308183182187    0.17761808060983328    0.246700713435668    0.33841825110459    
  0.4244741383835646    0.47239133908878744    0.47232021324541174    0.4244744240696238    0.338468624061086    
  0.24668726012410466    0.17760866913820877    0.1367932053736574    0.11857095880469845    0.1185691747367016    
  0.1117227111865434    0.11856915683612064    0.14119661039992823    0.18498410585781683    0.25381850952491036    
  0.3398879070243072    0.4156233418517902    0.4460202658605371    0.41568058943064085    0.3398980054954581    
  0.2537741725920608    0.1849918197333841    0.14120285226074197    0.11856970125894152    0.1117227111865434    
  0.10680179471631888    0.1115027996943945    0.1270331222208411    0.15729254255205138    0.20542865472198335    
  0.26646481246772363    0.3212790568474259    0.3437316072065663    0.32129671696845147    0.26646835308089895    
  0.20541270742887197    0.1572962891224943    0.12703497694768282    0.11150384591097187    0.10680179471631888    
  0.11150380240737333    0.11150581001059134    0.11777427797669146    0.13309468090326668    0.16076159080821034    
  0.20096484279543816    0.24522145935056824    0.275292566616029    0.27529210737495763    0.24520266338847077    
  0.20096520860048558    0.16077237180501489    0.13309387970892445    0.11777261531247325    0.11150380240737333    
  0.12703498812762454    0.12557455961924663    0.12703264118375665    0.13309344538388176    0.14696276905785063    
  0.170446312514663    0.20110516589983204    0.2289616444580145    0.24035436950959696    0.2289637914465273    
  0.20111718860757752    0.170448441901249    0.14695148513677064    0.13309386409372573    0.12703498812762454    
  0.1572962790566709    0.15703974468975032    0.15704134672169126    0.15729382312670961    0.16076214105883002    
  0.1704487712900101    0.18688659757069306    0.20611724394321318    0.21952965347977954    0.2195319507625691    
  0.20611956521021163    0.18687476714102866    0.17044845740961265    0.16077239189190193    0.1572962790566709    
  0.2054126742959289    0.2111540007657048    0.2137628779179957    0.21115743446414403    0.20542724766300327    
  0.20096115814261117    0.20110458845885076    0.20612410493843566    0.21239727494973823    0.21513318122057018    
  0.21239363370547165    0.20611958432303357    0.20111709855906626    0.20096520977194113    0.2054126742959289    
  0.2664683811006341    0.2866331541103    0.2987540823635091    0.29874645335572975    0.28661591604513    
  0.2664707752808283    0.24521741842950967    0.2289577724548308    0.21952888305506327    0.21513149889652086    
  0.2151331942362935    0.21953200922710228    0.2289637868952519    0.24520270762132662    0.2664683811006341    
  0.3212966962063039    0.3650899713965089    0.39210268509831187    0.4000453411604259    0.3921217201838008    
  0.3650851341246961    0.3212821942812368    0.2752988945193718    0.24035486531817493    0.21952885441611147    
  0.21239726066903555    0.2195296003247317    0.24035434899696584    0.2752920757303422    0.3212966962063039    
  0.3437316884591359    0.4154464703589615    0.4570017140201462    0.46391747605315936    0.46390300426506054    
  0.4570166812332785    0.41547019527887596    0.3437132236080224    0.2752989679732624    0.22895775985284406    
  0.20612411255262672    0.20611726342368417    0.22896164611370384    0.2752925833388368    0.3437316884591359    
  0.3212790188833086    0.4154698374466295    0.4775460748791418    0.47575131162473594    0.4608668904284544    
  0.47574514825382647    0.4775517297731147    0.4154701167564003    0.3212823240870899    0.24521738166033286    
  0.2011046144259684    0.18688657595241456    0.20110518547253153    0.24522149161131707    0.3212790188833086    
  0.26646480056424016    0.3650852892406733    0.4570183385401385    0.47574849211524106    0.4428865957582147    
  0.44289469568321715    0.47574511609254866    0.45701666803189556    0.3650851090775178    0.2664708227848122    
  0.20096112854838322    0.170448748485357    0.1704463816883708    0.20096486216837572    0.26646480056424016    
  0.20542865887693715    0.28661584445920674    0.3921292105464149    0.4638711740824306    0.4608971110371227    
  0.4428865787395997    0.4608668830024909    0.46390308950632936    0.39212167047572377    0.2866158369725149    
  0.20542730126469075    0.16076214361596472    0.14696276925854057    0.16076152906096633    0.20542865887693715    
  0.15729249113040272    0.21116048436707507    0.29874970531581657    0.40006204602528644    0.4638711212740136    
  0.4757484394293744    0.47575119201782406    0.4639173567289032    0.40004533789781155    0.298746416966852    
  0.21115744888770774    0.15729380238405277    0.1330934247785754    0.1330946549212395    0.15729249113040272    
  0.12703311546644191    0.15704161636224623    0.21375737825328703    0.29874975289687344    0.3921292164897637    
  0.45701833881312925    0.47754614702227927    0.4570017487894411    0.3921026887307997    0.2987541440491369    
  0.21376289800466172    0.15704134183431992    0.1270326957397933    0.11777427012696556    0.12703311546644191    
  0.1115027884817045    0.12557742301986022    0.1570416328845827    0.2111604609298559    0.2866158832431388    
  0.3650852745723314    0.4154698607219574    0.4154464229432982    0.3650900463749757    0.2866331164518142    
  0.21115399820831235    0.15703974834386047    0.1255745345831036    0.11150583252490762    0.1115027884817045    
  0.10680179471631888    0.1115027996943945    0.1270331222208411    0.15729254255205138    0.20542865472198335    
  0.26646481246772363    0.3212790568474259    0.3437316072065663    0.32129671696845147    0.26646835308089895    
  0.20541270742887197    0.1572962891224943    0.12703497694768282    0.11150384591097187    0.10680179471631888    
  0.10365680559210355    0.10685614333512419    0.11783644816618807    0.14007164895536897    0.1762728751816503    
  0.22300684704548143    0.2658806562199807    0.283759478101995    0.2658856918769469    0.22300884060555107    
  0.17626780946461182    0.14007264534026903    0.11783735306463454    0.10685718156723978    0.10365680559210355    
  0.10685716480834231    0.10685814753024184    0.110057636807343    0.11900797896774992    0.13678065056260752    
  0.16387989813218842    0.19447794239241878    0.21585405878957248    0.21585229185962054    0.1944737486980024    
  0.16388069576725625    0.13678115635856816    0.1190088489279093    0.11005727636680389    0.10685716480834231    
  0.11783734757466854    0.11799312792865045    0.11783737067675205    0.11900962053599398    0.12489577502818536    
  0.1379677508523183    0.15681780092084    0.17469009809911612    0.182240367305837    0.17468978916283942    
  0.15681849574536763    0.13797059357098046    0.12489388778993171    0.1190088457170671    0.11783734757466854    
  0.14007263770228476    0.14355840457724228    0.14355758424586879    0.14006975993338328    0.13678039521892965    
  0.13797078290696524    0.14529070402800814    0.15604309156733584    0.1642487226981679    0.16425035931516668    
  0.15604579481469366    0.14528758256884605    0.13797057827089643    0.13678117558422653    0.14007263770228476    
  0.17626777953080117    0.18855443551137646    0.19373361551974458    0.18855824390294376    0.17626963620813618    
  0.16387841601166686    0.1568180984124246    0.1560459819292611    0.15871035183033408    0.16036958806254084    
  0.15870751138924533    0.15604581991528205    0.1568184568838392    0.16388068546048265    0.17626777953080117    
  0.22300883009962788    0.2534684846391617    0.2735440787494043    0.2735419547893701    0.25346751593683875    
  0.2230096317787618    0.1944748604374051    0.1746861483563031    0.16424965781780573    0.16036822401985273    
  0.16036961640123132    0.16425039256345814    0.1746898283379213    0.1944737573197843    0.22300883009962788    
  0.26588569824636116    0.3249785495279532    0.3744478402693076    0.3936004052900444    0.37443874280777795    
  0.3249793792169695    0.2658830936581556    0.21585672225101737    0.18224008689623428    0.16424958725614666    
  0.15871036475724082    0.164248739699544    0.18224033544217683    0.21585229535200565    0.26588569824636116    
  0.2837595382415475    0.3738603998957239    0.4633966129095235    0.5181332957811668    0.5181317940449605    
  0.46341946840725806    0.3738588004249469    0.28375426868623776    0.21585678737660824    0.17468617343893095    
  0.1560459845517048    0.15604311396556902    0.17469005482823596    0.2158541393559861    0.2837595382415475    
  0.2658806250268922    0.3738637855566698    0.49885751396630784    0.5954427285845385    0.6294973289866731    
  0.5954363843769228    0.4988659126777751    0.37385877010371676    0.2658831487617418    0.1944748408045521    
  0.15681812707616288    0.14529068464369244    0.15681777908928302    0.1944779715512242    0.2658806250268922    
  0.22300682734567662    0.32497697423997274    0.4634141277149794    0.5954447315958069    0.6683129449433569    