#     DFTpy    
  CRYSTAL 
    
  PRIMVEC    
  1.4006349527973478    -2.4259709011018424    0.0    
  1.4006349527973478    2.4259709011018424    0.0    
  0.0    0.0    2.636447796206896    
  PRIMCOORD    
  1    1    
  Si    0.0    0.0    0.0    
  BEGIN_BLOCK_DATAGRID_3D    
  3d_datagrid_density    
  BEGIN_DATAGRID_3D#0    
  13    13    13    
  0.0    0.0    0.0    
  1.4006349527973478    -2.4259709011018424    0.0    
  1.4006349527973478    2.4259709011018424    0.0    
  0.0    0.0    2.636447796206896    
  0.056873106217248996    0.10113414867661372    0.2530568956007657    0.3821719490051624    0.34872836539024077    
  0.27429648558804587    0.24525418467293283    0.2742965104941566    0.3487284247379558    0.3821719325923064    
  0.25305684538276646    0.10113413578169435    0.056873106217248996    0.10113413027870022    0.10110804148614184    
  0.20418616999606282    0.3541760362115552    0.37448279337953205    0.2990717527667476    0.24543745157087118    
  0.24542367884694472    0.29908976100109463    0.37447601328586694    0.35411386427670244    0.20422455158266187    
  0.10113413027870022    0.2530568616898178    0.20418618581440232    0.2531450792224542    0.3541266102020358    
  0.3796765479104505    0.3122734554612466    0.24528743334001385    0.221309524515977    0.24528822448669402    
  0.3122544905623027    0.37975945648048937    0.3541139333429579    0.2530568616898178    0.3821720247855984    
  0.35417606490669595    0.35412671014171    0.3821229186566595    0.37444851804680956    0.3123381772776428    
  0.2449351965875877    0.2079934666783864    0.20797496179132882    0.24496770452069855    0.3122545640364137    
  0.3744760936369016    0.3821720247855984    0.34872830314599157    0.37448284720464775    0.3796765262767805    
  0.374448445991798    0.3488059643906155    0.29909054068064006    0.24523571230032848    0.20798464259999952    
  0.19533028124643217    0.2079749059460767    0.24528817773719944    0.29908976871165    0.34872830314599157    
  0.27429646500972205    0.2990717191157726    0.312273442222461    0.31233809191211553    0.29909048962527457    
  0.27422154966414575    0.24542719339166938    0.22135915595576616    0.207984668793774    0.2079934262481949    
  0.22130950132980212    0.24542369719939763    0.27429646500972205    0.24525420148068625    0.2454374984797972    
  0.24528750513822165    0.24493521269400184    0.24523575812121415    0.24542723783958018    0.24532661604888326    
  0.24542723775024763    0.24523576523235577    0.24493520341924027    0.24528746042380187    0.2454374948667537    
  0.24525420148068625    0.2742964763412147    0.2454236390678536    0.22130951953498032    0.20799342929653936    
  0.20798460692953763    0.22135914491371197    0.2454272178880964    0.2742215635087204    0.2990905434728651    
  0.3123381165035562    0.31227338089420925    0.29907181602833666    0.2742964763412147    0.348728317832643    
  0.29908971557496017    0.24528821273714538    0.20797490709589272    0.19533026937440862    0.20798463868682687    
  0.24523571866847577    0.2990905265779003    0.348805979417347    0.3744484143590887    0.3796764636722772    
  0.37448289600038775    0.348728317832643    0.38217199329579726    0.37447610478260235    0.3122546027502827    
  0.24496773348086304    0.20797496255851633    0.2079934445432325    0.24493523206150333    0.31233816476473364    
  0.37444850973614013    0.3821229057866624    0.35412666613174004    0.35417613727638236    0.38217199329579726    
  0.2530568127219022    0.35411393413707526    0.379759539574993    0.3122545179278066    0.24528817060718305    
  0.22130953072071768    0.24528743089217925    0.3122734373900684    0.37967654732878564    0.3541266439762587    
  0.2531450397481078    0.20418622856949986    0.2530568127219022    0.10113413651561483    0.20422450907914125    
  0.3541139220097201    0.3744760348480515    0.2990897425529192    0.24542366780204772    0.24543743221249942    
  0.2990717599261383    0.3744828835283508    0.35417604952873327    0.2041861604992686    0.10110803604184591    
  0.10113413651561483    0.056873106217248996    0.10113414867661372    0.2530568956007657    0.3821719490051624    
  0.34872836539024077    0.27429648558804587    0.24525418467293283    0.2742965104941566    0.3487284247379558    
  0.3821719325923064    0.25305684538276646    0.10113413578169435    0.056873106217248996    0.09684413076402144    
  0.14746943704999502    0.29106416057767187    0.3830264565966635    0.33306298418566294    0.2597878249991228    
  0.2323446898803185    0.25978782705778997    0.3330630214214534    0.38302640710330016    0.29106406861099815    
  0.14746942490419365    0.09684413076402144    0.14746942892228496    0.14741607883914842    0.24846258364459103    
  0.36802467839248554    0.3619227881515539    0.2836557506047313    0.2324720019025877    0.23245595157311386    
  0.28367614891700277    0.3619094634425152    0.36798557707663254    0.24847906953157636    0.14746942892228496    
  0.29106411725151543    0.24846259738634335    0.2911659671064563    0.3679793936453878    0.36930586740265675    
  0.2968883626888286    0.23239310797767584    0.20974619019562876    0.2323927641498898    0.29687576613956046    
  0.3693637320858504    0.3679856769343799    0.29106411725151543    0.3830265086205999    0.3680247487174216    
  0.36797949738833885    0.38296939834020827    0.3618976034604305    0.29693707792163404    0.23219464998169723    
  0.19727740652341086    0.19726252879367387    0.23221983180549663    0.2968758110527052    0.36190954243038936    
  0.3830265086205999    0.33306292370719437    0.36192279883363676    0.36930585519695475    0.36189750215557476    
  0.33313788251524207    0.2836701234189904    0.23235573545378185    0.1972690370837372    0.18538379773030714    
  0.19726247608915864    0.23239271684874696    0.2836761602276086    0.33306292370719437    0.25978777532673203    
  0.2836557378271988    0.29688833954328064    0.29693702152806284    0.2836700773458414    0.2597195564652817    
  0.23246011488655907    0.2097846169090708    0.1972690490790854    0.19727735664546397    0.2097461457553494    
  0.2324559579947444    0.25978777532673203    0.23234470566242676    0.2324720310661564    0.23239318795967806    
  0.23219466534548758    0.23235580654616678    0.23246014245811836    0.23241407482348378    0.23246019997669287    
  0.2323557856643061    0.23219464910756388    0.2323931532669328    0.2324720614788769    0.23234470566242676    
  0.25978780387367145    0.23245592137278384    0.2097461882492217    0.19727737262638204    0.19726898399000667    
  0.20978459532138793    0.23246014066293022    0.25971958234429104    0.2836700988620446    0.2969370128913826    
  0.29688828533121    0.2836558373273463    0.25978780387367145    0.33306295136666425    0.2836760992204809    
  0.2323927692893815    0.19726246418035154    0.1853837994245095    0.19726902224837933    0.23235576551785866    
  0.28367009282188416    0.33313791624432426    0.3618974822526865    0.36930582763523934    0.3619228403766576    
  0.33306295136666425    0.38302644635453637    0.36190952092680945    0.2968758624811397    0.232219849204616    
  0.19726249939392754    0.19727741797400455    0.2321946626394056    0.2969370911217044    0.36189758312217085    
  0.3829693472594792    0.3679794171588099    0.3680247828862724    0.38302644635453637    0.2910640594892257    
  0.36798565060291827    0.3693638123341219    0.2968757668672612    0.23239273215256592    0.209746178583822    
  0.23239311421867323    0.2968883579419472    0.3693058985449497    0.36797939492627113    0.29116598869517285    
  0.24846264989550965    0.2910640594892257    0.14746940730619146    0.24847899962061135    0.36798565680986284    
  0.36190947312638744    0.28367614039896305    0.2324559573204884    0.23247200521865352    0.28365581551509284    
  0.3619228241069719    0.36802470319545105    0.24846258488978282    0.14741608558191466    0.14746940730619146    
  0.09684413076402144    0.14746943704999502    0.29106416057767187    0.3830264565966635    0.33306298418566294    
  0.2597878249991228    0.2323446898803185    0.25978782705778997    0.3330630214214534    0.38302640710330016    
  0.29106406861099815    0.14746942490419365    0.09684413076402144    0.2413769740712611    0.28573272439889275    
  0.36658170583647876    0.3674926592748157    0.2901551308908483    0.22262595009707456    0.1992867136386706    
  0.2226259460321756    0.29015514419603194    0.3674926383401547    0.36658163606874095    0.285732720244436    
  0.2413769740712611    0.28573269442853333    0.2856697651605519    0.34827654134309477    0.3796124108086517    
  0.3227566151147588    0.24381346608993956    0.1994153479684487    0.19940646239744977    0.2438248219548542    
  0.3227457761044726    0.3796059972234116    0.34826804756195945    0.28573269442853333    0.36658164506895397    
  0.34827653994099667    0.36665247569113885    0.3795917345378273    0.3335260203323259    0.25640099738777494    
  0.1996561491089129    0.18045647607457446    0.19965512009652078    0.2563986741865565    0.3335422469336141    
  0.3796060913607667    0.36658164506895397    0.36749271544851925    0.3796124907149442    0.3795918187038986    
  0.3674527736779762    0.32274858276139246    0.25641827970230613    0.19978963986605008    0.1701817704837475    
  0.1701765622707428    0.19979805641646473    0.25639870813636384    0.3227458254864048    0.36749271544851925    
  0.29015506756833576    0.3227566088597726    0.33352601254115344    0.322748494869003    0.2901961495458106    
  0.24381719799221976    0.19964447065591004    0.17017794856744484    0.16022835343336755    0.1701765168274229    
  0.1996550761329635    0.24382481351466465    0.29015506756833576    0.22262592271233936    0.24381343892355445    
  0.25640098861872734    0.25641824031754296    0.24381716777515114    0.22259255235999628    0.1994089857118876    
  0.1804701159035059    0.17017799058362057    0.17018169008220763    0.18045645799725896    0.19940645330317658    
  0.22262592271233936    0.19928673769631075    0.19941537596425657    0.1996562131665403    0.19978962477439433    
  0.19964451797057486    0.19940899097417422    0.1993220266844677    0.19940901910154238    0.1996445333164818    
  0.19978962281635276    0.19965616402914416    0.1994153771506775    0.19928673769631075    0.22262595167904062    
  0.19940642430426142    0.18045647321310423    0.17018170652142334    0.17017791673239013    0.180470088007507    
  0.1994089966051258    0.22259257634999435    0.24381718785397266    0.2564182231163581    0.256400938345709    
  0.2438135322763082    0.22262595167904062    0.29015509242644805    0.24382477170926362    0.1996551154106302    
  0.17017652427756963    0.16022836120308673    0.170177959703548    0.19964448465153797    0.24381718781589326    
  0.29019614195169263    0.3227484424404591    0.3335259838733347    0.322756675559877    0.29015509242644805    
  0.36749264316632235    0.3227458253090671    0.2563987555067883    0.19979808870566532    0.17017653548279385    
  0.17018175292944218    0.19978966401082732    0.25641828548197587    0.3227485619480491    0.3674527330644747    
  0.3795917454632595    0.3796125288077258    0.36749264316632235    0.366581606869058    0.379606075634874    
  0.33354234723283377    0.25639867043996584    0.19965507609055289    0.1804564916666389    0.1996561172887489    
  0.2564009991274033    0.3335260694456112    0.3795917239831488    0.36665243273750053    0.34827659423671964    
  0.366581606869058    0.2857326982676177    0.3482679771127342    0.3796060705076819    0.3227457895238228    
  0.24382477355133472    0.19940644819926243    0.19941532822160746    0.24381348734391983    0.32275665146859417    
  0.3796124447379279    0.34827647543787144    0.28566978228026474    0.2857326982676177    0.2413769740712611    
  0.28573272439889275    0.36658170583647876    0.3674926592748157    0.2901551308908483    0.22262595009707456    
  0.1992867136386706    0.2226259460321756    0.29015514419603194    0.3674926383401547    0.36658163606874095    
  0.285732720244436    0.2413769740712611    0.40301157008120253    0.4065648228263585    0.3867390224978217    
  0.31702748708847617    0.23372263477933194    0.1779344734393328    0.15967592854744575    0.17793449509010686    
  0.23372267394410132    0.317027460746797    0.3867389623678765    0.406564805081797    0.40301157008120253    
  0.4065647795075502    0.40654957576543327    0.3968735367127849    0.345590806891102    0.2640345643902681    
  0.195048806292212    0.1599146632956803    0.15991319533476284    0.19504964773001468    0.2640332132323852    
  0.3455924130548139    0.3968689945649422    0.4065647795075502    0.38673896590950246    0.3968735552487119    
  0.3867510823559109    0.3455907113374938    0.2752257684088381    0.20563021551215638    0.16046564635484484    
  0.1455501067684743    0.16046680972149802    0.20562979221439753    0.2752260669950856    0.3455924829478994    
  0.38673896590950246    0.31702754467912225    0.3455908351161123    0.3455907955039102    0.31701805270800876    
  0.2640341626312466    0.20563095112048096    0.16078699773624314    0.13780599716647748    0.13780393616021827    
  0.16078783862360707    0.20562983384944505    0.26403326162782614    0.31702754467912225    0.23372259797255251    
  0.26403462074367784    0.27522574806953737    0.26403409233365843    0.23373043115418396    0.19504813107101382    
  0.1604664784353984    0.1378034854754829    0.1301099971635551    0.13780390775012566    0.16046677099822917    
  0.19504966642918736    0.23372259797255251    0.17793445269108285    0.1950487871214462    0.2056302102573687    
  0.20563090873982615    0.19504808838793627    0.17792969866566907    0.15991248102818123    0.1455526037406507    
  0.1378035283865476    0.13780598506570027    0.14555008832008803    0.1599132184446437    0.17793445269108285    
  0.15967595051144615    0.15991470238657002    0.160465679782474    0.1607870202278691    0.16046652904823847    
  0.15991251666943979    0.1596830477134296    0.15991251470067339    0.1604665231495094    0.16078700473917407    
  0.16046566881338462    0.15991469100360228    0.15967595051144615    0.17793447561509806    0.15991317831470872    
  0.14555009166861854    0.13780597454959173    0.1378034825624741    0.1455526316111202    0.15991249146576852    
  0.177929699108229    0.19504811569301006    0.20563092885501477    0.20563015437115012    0.19504886905382554    
  0.17793447561509806    0.23372260264185865    0.19504960984590164    0.16046682290659614    0.13780390871126025    
  0.13010997475932295    0.13780349864742197    0.16046648173076836    0.19504810478408802    0.23373043629227602    
  0.2640340746291493    0.2752257323844977    0.26403462707261177    0.23372260264185865    0.3170274915607902    
  0.26403326958041345    0.20562985702707304    0.16078785321609368    0.13780394030134585    0.13780600425750295    
  0.1607870157574503    0.20563096299816527    0.2640341704164612    0.3170180234300356    0.34559075331924893    
  0.3455908899170675    0.3170274915607902    0.38673892028600154    0.3455924857432838    0.2752261282172063    
  0.20562979524122535    0.16046677066714357    0.14555013249650875    0.16046563255727186    0.20563019480207453    
  0.2752257904254973    0.34559071967581584    0.3867510393486674    0.396873636382748    0.38673892028600154    
  0.40656479432343684    0.39686886884734635    0.3455924968110413    0.2640332067622467    0.1950496176133011    
  0.15991320804584455    0.15991464709391515    0.19504882486307037    0.26403463044138825    0.3455908120982441    
  0.3968735007743526    0.4065495918431308    0.40656479432343684    0.40301157008120253    0.4065648228263585    
  0.3867390224978217    0.31702748708847617    0.23372263477933194    0.1779344734393328    0.15967592854744575    
  0.17793449509010686    0.23372267394410132    0.317027460746797    0.3867389623678765    0.406564805081797    
  0.40301157008120253    0.4211526420905152    0.398428346843261    0.3349536762521628    0.2529835105695228    
  0.18265452001106772    0.13987839280889341    0.12611172236321436    0.13987838727639804    0.18265453883694754    
  0.25298346684602613    0.33495361044129784    0.3984283658710725    0.4211526420905152    0.3984283583400843    
  0.39843059026472644    0.3549794581848754    0.2817667205964438    0.20695379405511344    0.15289186986539716    
  0.12638625319439856    0.12638523858739048    0.15289239999636367    0.20695318785651642    0.2817678611830814    
  0.35497925675784564    0.3984283583400843    0.33495363621525964    0.3549794592745698    0.334951025741775    
  0.2817699527721847    0.21630744218711587    0.16102141672612197    0.12695357275848024    0.11579176229466424    
  0.1269546505098868    0.16102037621809115    0.21630805302495731    0.28176795310426234    0.33495363621525964    
  0.252983516808277    0.2817667842439697    0.2817700264964697    0.25298171602728003    0.2069544497103654    
  0.16101935562103575    0.12725097814919256    0.11006101622334862    0.11006024683827197    0.12725078691085834    
  0.16102041160944183    0.20695321691880258    0.252983516808277    0.1826544712954143    0.20695380435093136    
  0.21630743465526533    0.20695438936753346    0.18265410236563423    0.15289208356237866    0.12695524762288896    
  0.11005992453438954    0.10427146532897234    0.11006019306282532    0.12695462490344683    0.15289240281404232    
  0.1826544712954143    0.1398783318394036    0.15289187132951337    0.16102140107198318    0.1610193239472259    
  0.15289204545653554    0.13987899978687535    0.12638500198307795    0.11579195188287092    0.11005994687810974    
  0.11006099340602227    0.11579171953654659    0.12638524452827385    0.1398783318394036    0.1261117124908425    
  0.12638625420935695    0.12695361372710465    0.12725099033578818    0.12695527767522452    0.1263850336175485    
  0.1261122849199273    0.12638505770963637    0.12695527836798878    0.12725097080674944    0.12695357807994334    
  0.12638627366823757    0.1261117124908425    0.13987837654038585    0.12638523086507217    0.11579173699620872    
  0.11006099654409181    0.11005989766732872    0.11579193459090452    0.12638502095239537    0.139879016179394    
  0.15289207281176628    0.16101930945258205    0.16102134990141326    0.1528919454441862    0.13987837654038585    
  0.18265448483229293    0.1528923681022253    0.12695465871394251    0.11006020823663022    0.10427146037623287    
  0.1100599198794415    0.1269552557419546    0.15289206137747685    0.18265410106056132    0.20695435212999583    
  0.21630740622316924    0.20695383338950601    0.18265448483229293    0.2529834823423336    0.2069532417172417    
  0.1610204327054571    0.12725079391327448    0.11006023682190084    0.11006101972186601    0.12725099938395898    
  0.16101934179177935    0.20695443080964845    0.25298169196833176    0.2817700039507426    0.2817668049360908    
  0.2529834823423336    0.3349535678966407    0.281767913663063    0.2163081082327104    0.1610203595550711    
  0.12695461765236477    0.11579175512838571    0.1269535627508682    0.16102141065765832    0.21630746511274784    
  0.2817699338566755    0.3349510292936918    0.3549795482323276    0.3349535678966407    0.39842833604340305    
  0.3549791621179938    0.28176789960528087    0.20695318518400216    0.15289239108127373    0.1263852517202991    
  0.12638622873568078    0.15289192627485904    0.20695384743550532    0.28176675586262956    0.3549794257402546    
  0.3984306059322253    0.39842833604340305    0.4211526420905152    0.398428346843261    0.3349536762521628    
  0.2529835105695228    0.18265452001106772    0.13987839280889341    0.12611172236321436    0.13987838727639804    
  0.18265453883694754    0.25298346684602613    0.33495361044129784    0.3984283658710725    0.4211526420905152    
  0.36583134052957283    0.34062318240363304    0.27803384279567195    0.20667475452402226    0.14966725460925062    
  0.11575683341459128    0.10483731404640469    0.1157568284226686    0.1496672538704047    0.20667472842420032    
  0.27803377314675354    0.34062317017200794    0.36583134052957283    0.3406231661398534    0.3406227862128742    
  0.2969130110682969    0.231096739313886    0.16917311872874066    0.12607165216953956    0.10510341637276495    
  0.10510321115611478    0.12607181204189177    0.16917297774056966    0.23109571864015283    0.29691438677760573    
  0.3406231661398534    0.27803377706242044    0.29691302357090343    0.2780353755509958    0.23109546503382755    
  0.17683583678578899    0.13253270033071454    0.10562992077006418    0.09684262026478709    0.10562989672725191    
  0.13253287581779427    0.17683620295145466    0.23109576355312372    0.27803377706242044    0.20667477509262155    
  0.23109678295699385    0.2310955412846892    0.20667499890961677    0.16917320048922632    0.132533035615475    
  0.10589048836952805    0.09241034812714218    0.09241106565584874    0.10588974709031043    0.13253292050749088    
  0.16917300840516575    0.20667477509262155    0.14966722076548666    0.1691731158791426    0.17683582289808947    
  0.16917314637226283    0.14966685479486516    0.12607202413762417    0.10562915220165771    0.09241120776792133    
  0.08788949361399903    0.09241103330038831    0.10562987780309813    0.12607181750990487    0.14966722076548666    
  0.11575680755564466    0.1260716528276792    0.1325326906203147    0.13253300849845953    0.12607199673711247    
  0.11575655499553049    0.10510399940972445    0.09684218561025679    0.09241121124283308    0.09241030335927322    
  0.09684258027185037    0.1051031992993338    0.11575680755564466    0.1048373349554613    0.10510343910593649    
  0.10562995768875431    0.10589049502395025    0.10562920094829281    0.10510401302425991    0.1048362968380913    
  0.10510402971937559    0.10562918901238506    0.10589048646650645    0.10562993830091481    0.10510343877509397    
  0.1048373349554613    0.11575681935239668    0.10510318892685862    0.09684259911710486    0.09241031589172621    
  0.0924111618182338    0.096842171506925    0.10510400581789428    0.11575656331359324    0.12607202452783958    
  0.13253299640977914    0.13253265472166278    0.12607171278780685    0.11575681935239668    0.14966721958990956    
  0.12607178270605848    0.10562988995016746    0.09241104275460471    0.08788948607071041    0.09241120381691044    
  0.10562917516060727    0.12607201684741648    0.14966685670002156    0.16917312281387892    0.17683578997810018    
  0.16917315086345394    0.14966721958990956    0.2066747468548767    0.1691730236386632    0.13253292219848925    
  0.10588975643883809    0.0924110470538322    0.09241033438909345    0.10589050955842069    0.13253303593688756    
  0.1691732015823576    0.20667498311052418    0.2310954819555909    0.23109682202395054    0.2066747468548767    
  0.27803374658738306    0.23109579025420995    0.17683626053087656    0.13253286776707424    0.10562985195911587    
  0.0968426151786245    0.10562989257375971    0.13253269100185733    0.17683586332433546    0.23109547268353453    
  0.27803537250900123    0.2969130878513589    0.27803374658738306    0.34062313489405843    0.2969143164354193    
  0.23109574811849465    0.16917298094632083    0.1260717951004749    0.10510319144981906    0.10510339402305202    
  0.1260716820350493    0.1691731576872878    0.2310967430615339    0.29691298679877653    0.3406228263251118    
  0.34062313489405843    0.36583134052957283    0.34062318240363304    0.27803384279567195    0.20667475452402226    
  0.14966725460925062    0.11575683341459128    0.10483731404640469    0.1157568284226686    0.1496672538704047    
  0.20667472842420032    0.27803377314675354    0.34062317017200794    0.36583134052957283    0.339185353544323    
  0.3151491299175778    0.25644200304307263    0.1906579218797057    0.13857876559453602    0.10763748392101856    
  0.09765715923905857    0.10763750407068114    0.13857879525621505    0.19065791273079896    0.25644196710854034    
  0.3151491045867292    0.339185353544323    0.3151490844863706    0.31514702271616585    0.27405830549044746    
  0.2131611616529696    0.15641909256829103    0.11706774208367801    0.09792395740454966    0.0979254172677248    
  0.11706661319723805    0.15642008982151798    0.21315863750182656    0.27406026212975293    0.3151490844863706    
  0.25644197578479383    0.27405832548401476    0.25644643085760266    0.2131564602489765    0.1634873586063258    
  0.12298970317879528    0.09845754787306385    0.09045915229531361    0.09845684413210275    0.12299054144372316    
  0.1634873194437023    0.2131586890520934    0.25644197578479383    0.1906579564954969    0.21316117799689963    
  0.2131565284723762    0.190659329322976    0.15641974107442255    0.12299191483535857    0.09871788147855629    
  0.08649467025696753    0.08649506361784245    0.09871798757069494    0.12299057932847318    0.15642013462543788    
  0.1906579564954969    0.13857872813961    0.1564191165784564    0.16348733261796555    0.15641970391683696    
  0.13857836215425534    0.11706655817708991    0.09845616473380717    0.0864950609345904    0.08242336607140237    
  0.08649502924967463    0.0984568111022507    0.11706662515166975    0.13857872813961    0.10763747643379382    
  0.11706772381896    0.1229896831735696    0.12299187861044417    0.11706653777479267    0.1076385767246414    
  0.0979249723863265    0.09045979734892687    0.08649507706534096    0.08649465331438327    0.09045913460928705    
  0.0979254260150228    0.10763747643379382    0.09765717659750837    0.09792398754106311    0.09845758735662284    
  0.09871789937219368    0.09845619900283366    0.09792500226150325    0.09765588912353973    0.0979249995645969    
  0.09845619589580347    0.09871789525138716    0.09845755961504325    0.09792398478516337    0.09765717659750837    
  0.10763748238120607    0.09792539590001206    0.09045914608874815    0.08649464861178194    0.0864950371237125    
  0.09045979056184358    0.0979249833819146    0.10763857892560047    0.11706656020607101    0.12299189026139772    
  0.12298966262503228    0.11706778508809643    0.10763748238120607    0.13857873716398578    0.11706659147787582    
  0.09845683600546921    0.08649503303529084    0.08242335832332004    0.08649506212517824    0.09845617103101426    
  0.11706656231189162    0.13857837186201644    0.15641968740711087    0.1634873042679507    0.15641914712235291    
  0.13857873716398578    0.19065793927105537    0.15642014809822657    0.12299058929226264    0.09871800149037914    
  0.08649506289077226    0.086494659365217    0.09871790393235404    0.12299190481677894    0.15641973604718365    
  0.19065932108560663    0.21315650777331968    0.21316122605948515    0.19065793927105537    0.2564419211286706    
  0.2131586959555089    0.1634873670132242    0.12299054922837704    0.09845680870418144    0.09045915666720063    
  0.0984575404470589    0.12298969129835034    0.1634873536698036    0.21315647444357044    0.25644638767881606    
  0.27405837300824043    0.2564419211286706    0.3151491056834476    0.2740601946354925    0.21315867034808827    
  0.15642010331389727    0.11706660552145756    0.09792540895455011    0.0979239468070499    0.11706775589052068    
  0.15641914960295103    0.21316117031048692    0.27405829467146076    0.31514702212709117    0.3151491056834476    
  0.339185353544323    0.3151491299175778    0.25644200304307263    0.1906579218797057    0.13857876559453602    
  0.10763748392101856    0.09765715923905857    0.10763750407068114    0.13857879525621505    0.19065791273079896    
  0.25644196710854034    0.3151491045867292    0.339185353544323    0.3658313377836795    0.3406231904544577    
  0.2780338445743391    0.2066747527096377    0.1496672540194915    0.11575683060055139    0.10483730618781707    
  0.11575683528381929    0.1496672725780964    0.2066747218345357    0.2780337645316433    0.3406231816964657    
  0.3658313377836795    0.3406231694725641    0.3406227929186044    0.29691300853267016    0.23109673493284982    
  0.1691731174559802    0.12607164821195105    0.10510340946788324    0.10510319641668324    0.1260717968553535    
  0.16917297646248985    0.2310957133060026    0.2969143687837605    0.3406231694725641    0.2780338046593022    
  0.29691301863014696    0.2780353681588133    0.23109546530874128    0.17683582882649607    0.13253269774068566    
  0.10562990581218233    0.09684262044498639    0.10562988697281325    0.1325328824648446    0.17683619902212044    
  0.2310957877617202    0.2780338046593022    0.20667478078354615    0.23109677380996424    0.2310955256335695    
  0.20667502211586788    0.16917321572618266    0.13253303641100547    0.10589048360243122    0.09241032961911616    
  0.09241108081014968    0.10588974925431949    0.13253290587843913    0.16917302768496348    0.20667478078354615    
  0.14966721209844483    0.16917312348496308    0.17683580587546494    0.16917314530157251    0.14966685508543057    
  0.126072039688738    0.10562914855789242    0.0924111962404779    0.08788949556016556    0.09241104427294124    
  0.10562985942980024    0.12607181313000046    0.14966721209844483    0.11575679779201847    0.12607164377038277    
  0.13253268037019814    0.13253300259716677    0.12607201510582214    0.1157565396854453    0.10510399647234128    
  0.09684217889341898    0.09241120859059568    0.09241030673196836    0.09684258570696126    0.10510319836222681    
  0.11575679779201847    0.10483732198737897    0.1051034268568743    0.10562995739086203    0.10589050416057778    