#     DFTpy    
  CRYSTAL 
    
  PRIMVEC    
  4.2481819532281    -2.334034e-10    4.4239930344827576e-10    
  -2.334034e-10    4.248181952981249    2.1316937586206898e-10    
  8.084289482758619e-10    3.896048965517241e-10    7.782751670763625    
  PRIMCOORD    
  4    1    
  Si    2.1240909765331133    2.1240909776595793    2.3915948339561677    
  Si    7.876677388556041e-10    -7.289759937029646e-10    1.4997809988094604    
  Si    1.2080971735519922e-10    5.50550958458543e-10    6.282970667539726    
  Si    2.1240909771699634    2.1240909760459017    5.391156841877461    
  BEGIN_BLOCK_DATAGRID_3D    
  3d_datagrid_density    
  BEGIN_DATAGRID_3D#0    
  19    19    37    
  0.0    0.0    0.0    
  4.2481819532281    -2.334034e-10    4.4239930344827576e-10    
  -2.334034e-10    4.248181952981249    2.1316937586206898e-10    
  8.084289482758619e-10    3.896048965517241e-10    7.782751670763625    
  0.15397451837603307    0.14396030293543244    0.11873181774621056    0.08866108517189437    0.062379160846786    
  0.0434977185820713    0.0316075629976946    0.024747822172011748    0.021281986892031073    0.020235990716126615    
  0.021281993273056205    0.024747801546143915    0.03160758385218145    0.0434977446371519    0.06237910413262826    
  0.08866112130700447    0.11873180365679965    0.1439602965399293    0.15397451837603307    0.14396030255727232    
  0.13482078569874476    0.11164995394573332    0.08387977427153005    0.059484346722541985    0.04186885289934788    
  0.03070671097740729    0.024239083938911676    0.02096011614763599    0.01997170882683108    0.020960115354492045    
  0.024239076415837564    0.03070670541972543    0.04186885226217942    0.059484358350969636    0.08387978937611312    
  0.11164993225433578    0.13482076804835733    0.14396030255727232    0.11873187670178617    0.11164989777603414    
  0.09352326559921167    0.07151269963032164    0.051939563645350566    0.03759232159834947    0.02835057375447752    
  0.022928618808553868    0.02017591104432017    0.019344497439873695    0.020175913918430863    0.02292861084725328    
  0.028350586582740863    0.037592323225002326    0.05193953352341369    0.0715127125250807    0.09352325877022298    
  0.11164991021849628    0.11873187670178617    0.08866109771622736    0.083879765601697    0.07151270801146271    
  0.05629537238331898    0.042511787453109434    0.032166991728202636    0.02535290151583448    0.021313021399876283    
  0.01926711938465036    0.018657402009317335    0.019267129955372008    0.021313009300713694    0.025352907846790645    
  0.03216698220621003    0.04251177706336772    0.05629538383664942    0.07151268907512925    0.083879787485639    
  0.08866109771622736    0.06237917805784582    0.05948436456869638    0.05193955765880595    0.042511806145741286    
  0.0337718488354148    0.02703818788953891    0.022537132463011606    0.01987703512034534    0.018550735667518223    
  0.018162140908254066    0.01855072957708741    0.01987702155386302    0.022537126064169747    0.02703818934689281    
  0.03377180943469669    0.04251179933411109    0.0519395454366531    0.05948435145636757    0.06237917805784582    
  0.0434977239768463    0.04186882400821347    0.03759232510586867    0.03216699755271596    0.02703819093939778    
  0.023044133889143358    0.020409593057038607    0.018928898176952116    0.018239027076047038    0.018051180155520354    
  0.01823904940603156    0.0189288745025746    0.020409594878175338    0.023044146402183743    0.027038169652302577    
  0.032167009069571255    0.03759231021669346    0.04186884634835207    0.0434977239768463    0.031607591867511484    
  0.03070670385069731    0.02835057790106419    0.02535292293476093    0.022537112771996583    0.020409602637322968    
  0.01911916451443535    0.018530494439529744    0.01836567426276858    0.01834734516423164    0.018365660863032478    
  0.01853049349655711    0.01911916238334198    0.02040959567086059    0.022537105965507988    0.025352921597228247    
  0.028350572178688804    0.03070672806688241    0.031607591867511484    0.024747824484376135    0.024239084421380324    
  0.022928597726212023    0.021313043379235102    0.019877040264608885    0.01892888088244836    0.018530517213158567    
  0.01855784218126519    0.018758168051945384    0.01886758384029869    0.01875817446020566    0.018557846086485898    
  0.018530496205920066    0.018928892601351204    0.019877037113379133    0.021313038298024743    0.022928611934341897    
  0.024239090420465362    0.024747824484376135    0.02128199693952712    0.020960098637091237    0.020175898369289624    
  0.019267122044142517    0.01855072994249107    0.018239039252790377    0.01836566250039228    0.018758183426810703    
  0.019167977568112213    0.019348135607106128    0.019167973550196442    0.01875815518730083    0.01836564833576983    
  0.018239045252714883    0.01855070397450743    0.019267136472221343    0.020175908341896635    0.020960114477428446    
  0.02128199693952712    0.020235997507597227    0.019971696895077336    0.019344480401866926    0.018657401000346685    
  0.018162126232854705    0.018051167474594784    0.018347313708178714    0.01886757682105403    0.019348124453953737    
  0.019547617235995678    0.01934811490401543    0.018867577884641242    0.018347327459190894    0.01805117304163122    
  0.01816211945355429    0.018657412778803346    0.01934448481951645    0.019971709512906357    0.020235997507597227    
  0.021282008228282273    0.020960099478593838    0.020175897171824858    0.019267135254252013    0.018550724289795987    
  0.018239036858941515    0.018365669071339137    0.01875814413092024    0.01916795122122155    0.01934813468552478    
  0.019167958430611625    0.018758164995957307    0.01836566480605144    0.018239042527273857    0.01855072694540653    
  0.019267126821446868    0.020175912671113454    0.020960118823783874    0.021282008228282273    0.02474782528574462    
  0.02423907376508456    0.022928602572757115    0.02131304153493076    0.019877041106742162    0.018928878208601282    
  0.01853049611782044    0.01855784834320075    0.018758159940162774    0.01886756705383404    0.018758169413735728    
  0.018557841134386754    0.018530504086723926    0.01892889735441153    0.01987701935125943    0.02131303392652486    
  0.02292861802257471    0.024239084772356895    0.02474782528574462    0.0316075870632344    0.030706718987041387    
  0.02835058859911238    0.025352910947163063    0.022537113053254707    0.02040960101215358    0.019119167360939746    
  0.01853048457166128    0.01836566362618135    0.0183473593914894    0.01836565582133076    0.01853049747302233    
  0.019119170127992264    0.02040958545742687    0.022537114692819164    0.025352919626007886    0.028350567447720288    
  0.03070672396398279    0.0316075870632344    0.043497738331029254    0.041868842857185125    0.03759232327924245    
  0.03216699756933568    0.027038185791165483    0.023044126641364054    0.02040960030906351    0.018928880553875975    
  0.018239039781637923    0.018051181657308152    0.018239025278882718    0.018928866191269187    0.02040960540032191    
  0.02304413463120838    0.02703816894348627    0.0321670041676484    0.03759232901705928    0.04186886021634366    
  0.043497738331029254    0.06237918397529358    0.059484330223684205    0.05193956474278674    0.04251178514288127    
  0.033771843287530495    0.02703818155515008    0.02253712230050068    0.019877024471576663    0.018550716845663666    
  0.01816214371699654    0.018550741842433438    0.019877025598561405    0.022537126192469    0.027038189446844146    
  0.03377181563537444    0.04251181930216799    0.051939541762471564    0.059484353433371176    0.06237918397529358    
  0.088661098450644    0.08387971868909813    0.07151268172697962    0.05629535290986954    0.042511793987829324    
  0.03216698616861227    0.025352911781236026    0.02131301928859848    0.01926712820473241    0.018657404967861085    
  0.019267112974780808    0.021313010562814233    0.025352912573545806    0.03216698553942831    0.042511784302082044    
  0.0562953827061689    0.0715126745667561    0.08387977005851546    0.088661098450644    0.11873184865739811    
  0.11164997576564577    0.09352328483675361    0.07151270094361875    0.05193954804827009    0.03759232905955929    
  0.02835058449747272    0.022928610591637817    0.020175909240726604    0.019344498816415312    0.020175915645832293    
  0.02292861346318693    0.0283505890559394    0.037592336028987657    0.05193956728586896    0.07151269347946532    
  0.09352323768160488    0.11164990254706723    0.11873184865739811    0.1439602827727727    0.13482077271707224    
  0.1116499255305869    0.08387975319273588    0.05948436197954839    0.041868832237776404    0.030706715613909856    
  0.02423908084918133    0.020960108628954727    0.019971720752298156    0.020960122124165034    0.02423907864050801    
  0.030706713659887353    0.04186884531968894    0.059484342157620315    0.08387980036388142    0.11164990597485808    
  0.1348208411792954    0.1439602827727727    0.15397451837603307    0.14396030293543244    0.11873181774621056    
  0.08866108517189437    0.062379160846786    0.0434977185820713    0.0316075629976946    0.024747822172011748    
  0.021281986892031073    0.020235990716126615    0.021281993273056205    0.024747801546143915    0.03160758385218145    
  0.0434977446371519    0.06237910413262826    0.08866112130700447    0.11873180365679965    0.1439602965399293    
  0.15397451837603307    0.18033842955915652    0.16828245104794617    0.13782110822091106    0.101520039456876    
  0.07000379767499361    0.04758611400613237    0.033632687678155894    0.025751918528184446    0.02183055441371124    
  0.02065073749756836    0.02183056074912773    0.025751880371836424    0.033632707381109496    0.047586125318540756    
  0.07000376425452683    0.10152008496541426    0.13782113805198334    0.16828239033785072    0.18033842955915652    
  0.16828243978457158    0.15722476349406012    0.12922085709656841    0.09574305903302187    0.06655639049002772    
  0.04569095453492536    0.032636378031635986    0.025221257326934702    0.021518939589122092    0.02040083637134941    
  0.021518945711464437    0.025221249350337333    0.03263637899424062    0.0456909734260318    0.06655640990778344    
  0.09574306038187833    0.12922085796696736    0.15722476973088245    0.16828243978457158    0.13782113960321876    
  0.12922088125654535    0.10733169950484103    0.08093568754793598    0.05764744497168783    0.04075582301406295    
  0.030023565935818307    0.023846206351924075    0.02073647347865567    0.019799001799879964    0.020736480382872416    
  0.023846210260419734    0.030023577259902175    0.040755839303134166    0.05764742053663123    0.08093564692276528    
  0.10733167132300044    0.12922087639006927    0.13782113960321876    0.10152003107109142    0.0957430054829607    
  0.08093564709803065    0.06285987034005462    0.04661095005586584    0.034547433265726325    0.026720542330990516    
  0.022150687420225357    0.01984516993338651    0.019152595465239744    0.01984516976715925    0.022150661074585555    
  0.02672052182396879    0.0345474264610969    0.04661095917752231    0.06285988792386152    0.08093561064587727    
  0.09574306451295819    0.10152003107109142    0.07000384995148155    0.06655642519879572    0.05764743901051497    
  0.046610983208961496    0.03646831379586204    0.028750430190067216    0.023663277000479994    0.020687848691148314    
  0.019204315536289793    0.01876731082749501    0.01920430250155647    0.02068782758411615    0.023663271277923555    
  0.028750433971903445    0.03646828288281489    0.046610985459478456    0.057647430387113174    0.06655641143889716    
  0.07000384995148155    0.04758612565178399    0.045690951186702196    0.040755842833111365    0.03454742279453614    
  0.028750434526582824    0.02429959424841515    0.02139935844990404    0.019780480580123647    0.019038026740226036    
  0.018834577267152278    0.019038068253152348    0.019780478323502312    0.021399361269854738    0.024299618646243713    
  0.028750407912792972    0.03454745004359565    0.04075583170244273    0.04569094251626886    0.04758612565178399    
  0.033632703478974645    0.032636355169824154    0.030023559430907502    0.02672052917233046    0.023663263074567932    
  0.021399358636859583    0.020060757470486783    0.01948694954356947    0.01935302286584537    0.019352200289383045    
  0.019353004770147793    0.019486967011994767    0.020060753179792383    0.02139936158000863    0.023663261241727813    
  0.026720537867054157    0.030023570171977387    0.03263638927110471    0.033632703478974645    0.02575191313732813    
  0.02522126031264326    0.02384619692637164    0.022150694719013524    0.02068784551902414    0.019780487182181894    
  0.01948699119521789    0.019645814548643423    0.019953567833919206    0.020099743418019816    0.019953570573159947    
  0.019645816979046035    0.01948699248953815    0.01978048577780651    0.020687850406022574    0.02215069192085635    
  0.02384620356033239    0.025221265816769922    0.02575191313732813    0.021830566886961028    0.021518929112234065    
  0.020736463462579707    0.019845159265097063    0.019204312520278002    0.019038055898642072    0.019353020705613254    
  0.01995356048416214    0.020524765363349788    0.020760067820025162    0.020524795526553518    0.019953546831327714    
  0.019353005759023028    0.019038059443798053    0.019204293139920545    0.01984517889189965    0.02073648037602863    
  0.021518938018006722    0.021830566886961028    0.02065073256158089    0.020400823750932127    0.019798981248008468    
  0.019152591685370715    0.018767296386490873    0.0188345662842661    0.019352182728238514    0.020099711030319344    
  0.020760044953580584    0.02102723153710835    0.020760049172647392    0.020099723408788326    0.019352187442036903    
  0.018834576975221354    0.018767291950661038    0.01915260784166159    0.019798991354747372    0.020400834233567245    
  0.02065073256158089    0.021830576921772545    0.02151893808116429    0.020736463177154444    0.01984518040013744    
  0.01920430332204847    0.01903805736941359    0.019353023304938804    0.01995354141362919    0.020524768960053508    
  0.020760062156835554    0.020524769650375394    0.019953548818796504    0.019353014405711067    0.019038057411009317    
  0.019204303425973582    0.01984518005382694    0.020736482297299644    0.02151893954731349    0.021830576921772545    
  0.025751903111145925    0.025221254109658798    0.023846192305439447    0.022150676125697048    0.020687862990378975    
  0.019780455688646524    0.019486964476094115    0.019645804140351386    0.019953570674769005    0.02009972187110367    
  0.01995356196474212    0.019645806580159332    0.01948699062574632    0.019780503426838944    0.02068782660954228    
  0.02215069122287616    0.023846212531908943    0.025221261970464745    0.025751903111145925    0.03363270874087362    
  0.03263637890191786    0.030023572176493128    0.026720545544516857    0.023663267820516337    0.02139936431808958    
  0.02006075216402971    0.01948697690401546    0.019353025303971497    0.01935221598504645    0.019353003983469542    
  0.019486968660409516    0.02006075234217572    0.021399350006123034    0.023663267055695197    0.026720542587898622    
  0.03002356201087617    0.03263638842198345    0.03363270874087362    0.047586134540220905    0.04569096084841361    
  0.0407558392709646    0.03454742078254688    0.028750436182533666    0.024299594287111037    0.021399369257896813    
  0.019780479146818568    0.019038053844426587    0.01883457368302255    0.019038062449609563    0.01978045725432049    
  0.021399370129353914    0.024299605511926385    0.02875041428063887    0.03454742623455926    0.040755832097116425    
  0.04569095305512144    0.047586134540220905    0.07000381838869103    0.06655639320248978    0.057647426117825085    
  0.04661097808487051    0.036468295652848245    0.028750420725871237    0.023663270875600502    0.02068785592262558    
  0.019204293697430725    0.018767314954412265    0.019204320290151185    0.020687846865101975    0.02366328088994293    
  0.028750442212608206    0.03646826679041349    0.04661099757406693    0.05764743648754105    0.06655641683601068    
  0.07000381838869103    0.10152009712381956    0.09574297294302353    0.08093565112016585    0.0628598555190489    
  0.046610972075065614    0.0345474403034748    0.026720532583436825    0.022150670472549962    0.01984516924006409    
  0.019152598225825577    0.019845167337487975    0.022150673090569672    0.02672054482195753    0.03454743219579271    
  0.0466109656752183    0.06285987799592074    0.0809356573780746    0.09574306367815037    0.10152009712381956    
  0.13782113479119656    0.1292209140588873    0.10733169899470564    0.0809356517520472    0.057647438498076284    
  0.040755831195120294    0.03002359712604308    0.02384620308129407    0.020736476771319737    0.01979900349369834    
  0.020736495734118215    0.023846203038895716    0.030023576286142245    0.040755843247904947    0.05764744128700914    
  0.08093565587998204    0.10733170951096628    0.12922087571353688    0.13782113479119656    0.16828240602176525    
  0.1572247382082707    0.12922089153356325    0.09574302663620972    0.0665564184898527    0.045690934586107027    
  0.032636377877182925    0.02522125752638652    0.02151893218650802    0.02040085417432516    0.0215189552100812    
  0.025221252578051873    0.03263636548505997    0.04569095318822002    0.06655636285531516    0.0957430635893408    
  0.1292208353526561    0.1572248126576155    0.16828240602176525    0.18033842955915652    0.16828245104794617    
  0.13782110822091106    0.101520039456876    0.07000379767499361    0.04758611400613237    0.033632687678155894    
  0.025751918528184446    0.02183055441371124    0.02065073749756836    0.02183056074912773    0.025751880371836424    
  0.033632707381109496    0.047586125318540756    0.07000376425452683    0.10152008496541426    0.13782113805198334    
  0.16828239033785072    0.18033842955915652    0.26577253266153245    0.24763765645029892    0.2007066042859606    
  0.14364935351044847    0.09445005484413731    0.06035218906964926    0.03985248372903729    0.02876819717092456    
  0.023462543352672692    0.02188544767586446    0.023462551945804808    0.028768171970666716    0.03985249883031062    
  0.060352215774309256    0.09445000032596702    0.14364935861529782    0.2007066024623081    0.24763761352090352    
  0.26577253266153245    0.24763766298911719    0.23068959017008805    0.18716853458543148    0.13456715995249405    
  0.08919328872706825    0.05762511811094225    0.038544015003264154    0.028160242928244532    0.02315729301058598    
  0.02166853395782662    0.02315729963822626    0.028160228568745553    0.03854400408840226    0.057625145088215105    
  0.08919330923025741    0.13456719742463435    0.18716846991486483    0.23068955338458538    0.24763766298911719    
  0.20070664671527425    0.18716849563545157    0.15279876178454044    0.11156258703579261    0.07580436367322484    
  0.050604622619647814    0.03514435370771377    0.026589236972533594    0.022412992186755524    0.021161425740309867    
  0.022412987347333893    0.026589244004806653    0.03514436778184188    0.050604651435343456    0.07580434034076276    
  0.11156258928232121    0.15279874592914905    0.18716849346680173    0.20070664671527425    0.14364935410106733    
  0.13456712692766312    0.11156260845256262    0.0838724835379963    0.05950183642734631    0.04195236593686753    
  0.03094396283736411    0.02472852508886269    0.021651523067256685    0.020726728653801554    0.021651545766242324    
  0.024728502520059273    0.030943963220721966    0.0419523641551195    0.059501826727466726    0.08387251423951704    
  0.11156255783151284    0.13456713782283067    0.14364935410106733    0.0944500638562829    0.08919332984665529    
  0.07580438290925684    0.05950184986346268    0.044876993155112635    0.03409374929766285    0.027197640575710516    
  0.0232646724810657    0.0213299502261008    0.02075577130785369    0.021329938699142275    0.023264658948642034    
  0.02719764069555056    0.03409376254736939    0.04487696732780772    0.05950183843107222    0.07580435361460348    
  0.08919331468549954    0.0944500638562829    0.06035221009243033    0.057625111741583405    0.050604625820851366    
  0.04195236081896868    0.034093764359316686    0.028255509779954644    0.024569063125033756    0.022573232017689755    
  0.021692061834734468    0.02146108582163785    0.02169208759202334    0.022573225184063003    0.02456907716211831    
  0.028255537977194937    0.0340937312136803    0.04195237437379153    0.05060460778338772    0.05762511505728439    
  0.06035221009243033    0.03985249772331509    0.03854398968215825    0.035144354214845394    0.030943970999561865    
  0.027197634933109466    0.024569074943498394    0.02315905434624126    0.022691788034516155    0.0227059037741606    
  0.022771507231448725    0.02270587368606581    0.02269178928276384    0.023159048599393633    0.024569072152851236    
  0.027197624601121007    0.03094397257449086    0.03514434346789655    0.038544023642043644    0.03985249772331509    
  0.02876819968847631    0.0281602432407911    0.026589230977714186    0.02472854190783882    0.023264674925359014    
  0.022573225280353094    0.022691805680266686    0.023359235660959002    0.024075646704925853    0.024371365242235352    
  0.024075660433887817    0.023359218630637914    0.022691788693124618    0.02257323573463593    0.023264673377209083    
  0.024728533187297095    0.026589240502094047    0.02816024346843463    0.02876819968847631    0.02346255699699753    
  0.02315728347219651    0.022412978548600703    0.021651530284304794    0.02132994489853169    0.02169206049885657    
  0.022705906170132642    0.024075652931318105    0.025254375903353377    0.025712813527634038    0.025254405202313198    
  0.02407563569992687    0.022705883045837504    0.021692085878737114    0.021329925075104478    0.021651550743950566    
  0.022412983425539663    0.023157288162302128    0.02346255699699753    0.021885437549498222    0.021668517644784925    
  0.021161401002942063    0.020726729394971954    0.020755754493826998    0.021461099298435513    0.022771484151755342    
  0.024371343315534828    0.025712788662736696    0.02623629467332763    0.025712804810345314    0.024371351748896746    
  0.02277147991138055    0.02146108467496493    0.020755744139445816    0.020726734284299463    0.02116140847665272    
  0.02166851720680505    0.021885437549498222    0.02346256942087834    0.02315728918957926    0.022412973222074955    
  0.021651537727383645    0.021329937539553093    0.021692072472463072    0.022705903351688282    0.02407562777749988    
  0.025254378292264158    0.02571279460257978    0.025254381014635795    0.02407563836246651    0.022705899460596913    
  0.021692093875464495    0.021329944053785337    0.021651545742349832    0.022412988863053793    0.023157299820241138    
  0.02346256942087834    0.028768200208180904    0.02816024294914609    0.02658922017472545    0.024728532819438744    
  0.023264676285964986    0.02257321788293266    0.022691785991614002    0.023359245261510325    0.024075657875998583    
  0.024371362577634417    0.024075648552258064    0.023359223311623226    0.022691800255851248    0.02257324372288382    
  0.02326464715394837    0.024728535406282445    0.026589250206588148    0.02816024822611113    0.028768200208180904    
  0.03985250662287994    0.038544000829842745    0.03514436608926572    0.030943968825244226    0.027197638794403324    
  0.024569074616799705    0.02315904283123748    0.022691792767440884    0.022705898204165662    0.02277151641803418    
  0.022705890378952823    0.02269177606040472    0.02315904921794007    0.02456906967478048    0.027197623838266557    
  0.030943973446427204    0.03514434773698075    0.03854401072021534    0.03985250662287994    0.060352217666097656    
  0.057625130687694225    0.05060463385085589    0.041952365011353125    0.03409375614754603    0.028255512298728417    
  0.02456908240041198    0.022573220263453816    0.021692052442307253    0.021461088545010443    0.02169207482105677    
  0.022573218996891447    0.02456908521195886    0.028255526494878603    0.034093751791804135    0.04195236080839814    
  0.05060462811289962    0.05762513714000361    0.060352217666097656    0.09445005854414561    0.08919324700001949    
  0.07580437369845909    0.05950184924721418    0.04487697919958176    0.03409375419046291    0.027197636931123165    
  0.023264670556238303    0.02132994225093079    0.02075577369662585    0.02132996866758029    0.023264670221968424    
  0.0271976544538191    0.03409377125247873    0.04487697159079591    0.0595018963915514    0.07580435497202172    
  0.08919329407063177    0.09445005854414561    0.14364936828718858    0.13456709117098511    0.11156254102527761    
  0.08387246938347581    0.05950183144440654    0.041952358604271975    0.030943974779528614    0.024728503269662867    
  0.021651542760381552    0.02072674463995944    0.02165152932981659    0.024728512792242665    0.030943978053481574    
  0.041952347018417824    0.0595018463143583    0.08387249974893522    0.11156257518680876    0.13456714239272113    
  0.14364936828718858    0.20070666932049191    0.18716852583322607    0.15279873613029823    0.11156258465875593    
  0.07580436446326379    0.05060462848635952    0.03514438609283356    0.02658922752978472    0.022412984341462806    
  0.02116142797603744    0.022412997610160416    0.026589246059387173    0.03514435322256694    0.0506046459542227    
  0.07580437424784604    0.11156256263618812    0.15279877431716013    0.18716850502661395    0.20070666932049191    
  0.24763759529556786    0.23068953829850983    0.18716847640186607    0.1345671053385529    0.08919330602696765    
  0.057625106840391224    0.03854401267754289    0.02816023725581807    0.023157291217073425    0.021668524140513682    
  0.023157304110419222    0.028160230240079055    0.03854399996251549    0.057625120620434185    0.08919327162437703    
  0.13456719894748648    0.18716847207673795    0.23068959515473478    0.24763759529556786    0.26577253266153245    
  0.24763765645029892    0.2007066042859606    0.14364935351044847    0.09445005484413731    0.06035218906964926    
  0.03985248372903729    0.02876819717092456    0.023462543352672692    0.02188544767586446    0.023462551945804808    
  0.028768171970666716    0.03985249883031062    0.060352215774309256    0.09445000032596702    0.14364935861529782    
  0.2007066024623081    0.24763761352090352    0.26577253266153245    0.39520310801171527    0.37397954552950685    
  0.3100251627958655    0.2202851000392402    0.1384955404966831    0.0825622787343139    0.05030388141946395    
  0.03366648162445846    0.02604962784225816    0.023863017561247035    0.02604964678558652    0.03366644661306275    
  0.05030390642055167    0.08256231044435203    0.13849543923366234    0.22028516683842586    0.3100251596578538    
  0.3739796300863499    0.39520310801171527    0.3739796893630249    0.3521798518466336    0.289630927686673    
  0.2054423797165075    0.1299606100629341    0.07838119784080182    0.04847898765563613    0.03293999427465478    
  0.025780330752637904    0.02371510231010328    0.0257803255576859    0.03293999289875982    0.048478985779533815    
  0.0783812307609781    0.1299606360090757    0.20544236723341575    0.28963089127278746    0.352179869086825    
  0.3739796893630249    0.31002526512096595    0.2896308863706233    0.2354502496519384    0.16754068212286513    
  0.10833323521850224    0.06774513750653581    0.043825705014149584    0.031152813847399444    0.0252086214192808    
  0.02347846263719585    0.02520861392442995    0.031152826226185044    0.04382571700377757    0.06774514780509827    
  0.10833318209446757    0.16754070662061432    0.23545025949537704    0.2896308899393534    0.31002526512096595    
  0.2202851799766217    0.20544229235306125    0.16754071271506984    0.121821439796579    0.08234334685600053    
  0.05486573581248771    0.0382529577895229    0.029215357745743215    0.024888156096490442    0.023610901312591612    
  0.024888166232549813    0.0292153396409312    0.03825296747863368    0.054865729600389344    0.08234333351147109    
  0.1218215138458323    0.16754067120162897    0.20544234881224854    0.2202851799766217    0.13849558141203314    
  0.1299606022160774    0.10833320763298937    0.08234335598490836    0.059643939857294714    0.043494648225419354    
  0.03351112265049253    0.028011815697650055    0.0253861389033143    0.024618449709837124    0.025386137971864186    
  0.028011804892152478    0.03351112240157086    0.043494637869124206    0.05964391665423456    0.08234335514448583    
  0.10833319678548295    0.12996059771662696    0.13849558141203314    0.08256229022147286    0.0783811640264297    
  0.06774515402200189    0.054865747058756326    0.043494644268193786    0.03537604224524179    0.03049552114999019    
  0.028032630623608435    0.0270480631210937    0.026812698247351073    0.02704809442116869    0.028032592183753043    
  0.03049550927346569    0.035376064901695876    0.0434946035805381    0.05486576121288555    0.06774513496366556    
  0.07838120046397333    0.08256229022147286    0.050303930527926    0.04847897709476879    0.04382571726371845    
  0.03825297209898626    0.03351110342653717    0.030495521638188944    0.029267197428680152    0.029302415191944153    
  0.029816454768505942    0.030085798801439013    0.02981644481551597    0.02930242281307529    0.029267184856118473    
  0.030495522590029134    0.03351109048053077    0.03825297165632129    0.04382571218383117    0.04847900459976331    