#     DFTpy    
  CRYSTAL 
    
  PRIMVEC    
  5.093233365929505    2.1308201009251036e-05    -5.342358620689655e-13    
  -2.546598229520297    4.41088026394894    -1.0452586206896552e-11    
  -8.784855172413794e-13    -2.035274068965517e-11    8.37406703085214    
  PRIMCOORD    
  4    1    
  Si    1.2679015962678355e-05    2.9405937370351416    4.70935615018657    
  Si    2.5466224573872775    1.470307835078728    0.522322572924435    
  Si    1.2679017876173798e-05    2.940593737033928    7.85174439608754    
  Si    2.5466224573955425    1.4703078351113952    3.664710942483764    
  BEGIN_BLOCK_DATAGRID_3D    
  3d_datagrid_density    
  BEGIN_DATAGRID_3D#0    
  23    23    37    
  0.0    0.0    0.0    
  5.093233365929505    2.1308201009251036e-05    -5.342358620689655e-13    
  -2.546598229520297    4.41088026394894    -1.0452586206896552e-11    
  -8.784855172413794e-13    -2.035274068965517e-11    8.37406703085214    
  0.008530593470112235    0.008752185458255925    0.009522787417867652    0.011222135269388282    0.014567713877333839    
  0.02071302582043107    0.03133705194088489    0.04824554369958784    0.07188872358101665    0.09897542684226998    
  0.12156906593302548    0.13049294486812643    0.12156908132557159    0.09897542361465261    0.0718887286150964    
  0.04824553409049108    0.03133704956549811    0.020713031643472775    0.014567714219610601    0.011222126247069072    
  0.00952278954400299    0.008752186301090448    0.008530593470112235    0.00875218832625434    0.008752008415723761    
  0.009250570861414936    0.010506517140870851    0.013113247314977048    0.01810817289702052    0.027175611384846168    
  0.042536974096280475    0.06586507882725356    0.095922071186732    0.12607847167275776    0.14550733433209045    
  0.14551174936141975    0.12607523029763448    0.09591561071150874    0.06587325632048692    0.0425405681863293    
  0.027172700690232494    0.018108824129786996    0.01311302470129627    0.010506878563595654    0.009250389159194256    
  0.00875218832625434    0.009522788856383729    0.00925056995366947    0.009522786987438298    0.010506796855869749    
  0.012731363249377592    0.017253302826139006    0.02599330273388545    0.042011950207315484    0.0687716840734026    
  0.10742740029340944    0.1525960189715634    0.19055940808722083    0.20552887692465754    0.19056214000759872    
  0.15261452414113952    0.10742672191320837    0.06876431922757927    0.042014653652531826    0.025996471303002235    
  0.017253639563393482    0.012731443933559938    0.010506875243028154    0.009522788856383729    0.011222131345799951    
  0.010506516739601734    0.010506795554616173    0.011221710403548139    0.013113381733207688    0.017252554568813583    
  0.02583068164633521    0.042789402641436054    0.07389703297783844    0.12425795196126607    0.1913560419974465    
  0.2583914656145191    0.3001950997089972    0.3001889862279558    0.25837776374794164    0.19136448171116782    
  0.12426879241807269    0.07390107211309066    0.04279126809887336    0.025828045526525893    0.017253642708887455    
  0.013113024405586989    0.011222131345799951    0.014567714531316757    0.013113243087023054    0.012731357315766545    
  0.01311337979051528    0.014567534532783265    0.018109052962831756    0.025993409547446975    0.042789956484086414    
  0.07630716427194341    0.13635693746379954    0.2258363368149885    0.3252731241104688    0.39754296653080984    
  0.4219138093066606    0.3975728398598122    0.32527098927542375    0.22583054481857412    0.1363679896134729    
  0.07630530409225283    0.0427912641293642    0.025996467565819963    0.018108815708167043    0.014567714531316757    
  0.020713034592440917    0.018108176043061166    0.017253304402748693    0.017252554898128776    0.018109055470260482    
  0.020711863138190668    0.027176633225726703    0.04201208047704953    0.07389846786905271    0.13636228973395156    
  0.23963786374641516    0.3643528251859163    0.4534561265290501    0.48195466215926563    0.4819406551151947    
  0.4534740290953734    0.36438872631217517    0.23962937386870853    0.13636800950741365    0.07390107541335292    
  0.0420146609792982    0.027172701492808708    0.020713034592440917    0.031337057615729046    0.027175609123776093    
  0.025993294198366792    0.02583067993800891    0.02599341055283007    0.027176626978495624    0.03133354909697461    
  0.042541915622575414    0.06876718152243834    0.12426720915771154    0.22582351538412324    0.3643816741466419    
  0.46683876094064897    0.47673568043020476    0.46046394463580315    0.4767278853047985    0.4668454990762225    
  0.3643887342202051    0.22583057591475675    0.12426879897448048    0.06876433344958453    0.042540576044569026    
  0.031337057615729046    0.048245540502142345    0.04253696956449447    0.042011944286744804    0.04278940064633094    
  0.04278995222651226    0.04201206526478406    0.04254190701379742    0.048246900169852634    0.06586831948333038    
  0.10743182232238715    0.19135942533454228    0.325275605709246    0.45347262899663465    0.47672630378601766    
  0.42984581314208276    0.4298617843511683    0.47672792076567944    0.4534740576812174    0.3252710075123528    
  0.19136448734706252    0.10742671793921534    0.06587326142136134    0.048245540502142345    0.07188872665803911    
  0.06586505614214824    0.0687716720745183    0.07389702317079948    0.07630714822179631    0.07389844638606567    
  0.06876716513519213    0.06586829931047722    0.07189562410739654    0.09591655568730341    0.15261589724328903    
  0.25838030310246407    0.3975747807021012    0.48190664460806193    0.46049808982158835    0.42984580774251224    
  0.4604639481967242    0.48194060172006764    0.3975728284811264    0.25837774969900357    0.1526145480912482    
  0.09591559631510187    0.07188872665803911    0.09897544325917765    0.09592207191771235    0.10742740027118236    
  0.12425794622219198    0.13635691562787478    0.13636225133220953    0.12426717852116259    0.10743181046097913    
  0.09591656031061613    0.09898526633088937    0.1260780471090908    0.19057315892891605    0.30019434965032693    
  0.4219387673802996    0.4819066799537068    0.4767263044512406    0.4767356649801838    0.48195465337054566    
  0.4219137969478904    0.30018898994844667    0.19056216509239357    0.12607523051710814    0.09897544325917765    
  0.12156907286619056    0.12607845198475667    0.15259599206718194    0.1913560102696968    0.22583628459260055    
  0.23963782481942014    0.22582350511420346    0.19135938020794463    0.1526158956936066    0.1260780337056955    
  0.12157437470653248    0.1455142002187546    0.20553506978956018    0.300194312210361    0.39757477771833993    
  0.4534726940965072    0.4668387475337211    0.4534561114870403    0.39754296784200827    0.30019509241016495    
  0.20552888844608438    0.14551175844310324    0.12156907286619056    0.13049294133939326    0.14550732507877276    
  0.19055940702017288    0.2583914396042689    0.3252730675664502    0.3643527668039731    0.3643816240051015    
  0.32527556573934757    0.25838026303801803    0.19057313066546253    0.14551419182619818    0.13050398834772087    
  0.1455142091149463    0.19057315895033397    0.25838029028890264    0.3252755623813156    0.3643816152260245    
  0.3643527909914012    0.3252731001978806    0.25839144414536586    0.19055940266936286    0.14550733631266255    
  0.13049294133939326    0.1215690733093072    0.14551173167252918    0.20552885894550596    0.30019507528675354    
  0.3975429014315609    0.45345610239632367    0.4668387355108841    0.4534726550554311    0.3975747443185717    
  0.3001943101381402    0.20553504048971746    0.14551420988448543    0.12157438310255024    0.12607803415928845    
  0.1526159054224247    0.19135944496662508    0.22582349058822906    0.23963783401504946    0.22583632018308053    
  0.19135602457755257    0.15259598853619682    0.12607846744943252    0.1215690733093072    0.09897544124338778    
  0.12607521223158216    0.19056218597603874    0.30018898297272784    0.42191377225391086    0.4819545767416593    
  0.476735721169844    0.47672631003238425    0.48190668181273366    0.42193870508830694    0.30019433534900614    
  0.19057315776035047    0.12607802204668697    0.0989852587585809    0.09591656204182628    0.10743179834212084    
  0.12426717193195069    0.13636227680954374    0.1363569343897526    0.12425794240273093    0.10742740153826481    
  0.09592207789797703    0.09897544124338778    0.07188872606749067    0.09591558652022834    0.1526145386368291    
  0.2583777326809561    0.3975727903600482    0.4819405617755801    0.46046397154384344    0.4298458258516084    
  0.46049811432559185    0.4819066462215551    0.39757474531566944    0.2583802888998875    0.15261588349273666    
  0.09591655468375314    0.07189562391819489    0.06586830603735751    0.06876716356863992    0.073898466807239    
  0.07630716385719638    0.07389702513604075    0.06877168123617365    0.06586506040130857    0.07188872606749067    
  0.048245538590183434    0.06587325401897072    0.10742670873795121    0.19136447900086703    0.32527095008541745    
  0.4534740507919062    0.47672791626358624    0.42986180762558335    0.4298458872185166    0.47672630576060077    
  0.4534726590707617    0.32527558736053475    0.19135943988722934    0.10743181343628798    0.06586831054444904    
  0.04824690611830986    0.04254190781192922    0.04201207205933025    0.04278994700346446    0.04278939404488199    
  0.04201194321462514    0.0425369667276776    0.048245538590183434    0.03133705782406491    0.04254058258833971    
  0.0687643252718978    0.12426879068726197    0.22583053625491215    0.3643887251629179    0.46684543225989894    
  0.47672796304913245    0.46046397696733254    0.4767357070453148    0.46683876557632925    0.3643816511562597    
  0.22582353215452516    0.12426718137085319    0.06876718682835961    0.04254191647002052    0.03133354785956453    
  0.027176624147566917    0.025993410823710473    0.025830680220345778    0.025993299431478867    0.02717560807923798    
  0.03133705782406491    0.020713034880984624    0.027172697135365072    0.042014656626552786    0.07390107213443976    
  0.13636798876353845    0.23962935466687976    0.3643887183581509    0.45347407932945805    0.4819406249641456    
  0.48195469442475186    0.4534561042303405    0.36435280721588054    0.2396378672271673    0.1363622855390448    
  0.07389846850474406    0.04201207804686538    0.027176626763016503    0.02071186135144026    0.018109059292709236    
  0.017252553614667005    0.01725330768451047    0.018108174607162415    0.020713034880984624    0.01456771297905303    
  0.018108817091804546    0.025996467385003358    0.042791260448037625    0.07630530911554    0.136367995039536    
  0.22583049574672648    0.32527094649735677    0.397572799176755    0.4219137903840301    0.3975429549984822    
  0.3252730779869483    0.22583632759384292    0.13635692580178393    0.07630716539253021    0.04278995963394893    
  0.02599340387598555    0.018109053199087875    0.014567534104361964    0.013113377263062581    0.012731358994275166    
  0.013113245523746582    0.01456771297905303    0.011222131431058645    0.01311302413076667    0.017253638426823342    
  0.02582804870819883    0.042791271559182914    0.07390106577377813    0.124268786272751    0.19136449032465871    
  0.2583777347292464    0.3001889584121343    0.3001950812536481    0.258391429370649    0.19135603208691732    
  0.12425792688733722    0.07389703353150502    0.042789400150998795    0.025830678877283644    0.017252554507277806    
  0.013113385242141187    0.011221707362600494    0.010506796570997689    0.010506517532866329    0.011222131431058645    
  0.009522788530208832    0.010506877487421715    0.012731443119438367    0.017253638066243603    0.025996474467646243    
  0.04201465602523939    0.06876431925813335    0.10742671906618668    0.15261453190902904    0.19056213428400606    
  0.20552887898022523    0.19055939382510695    0.15259599869846463    0.10742738529045785    0.06877168828919827    
  0.04201194077716713    0.025993293677715534    0.01725330660117439    0.012731362212807582    0.010506795773353504    
  0.009522787559186115    0.009250569692541549    0.009522788530208832    0.008752187155794738    0.009250389174464649    
  0.010506878168695239    0.013113028843713083    0.018108821319447167    0.027172695112044783    0.04254057444160539    
  0.06587326306602087    0.09591559842669807    0.12607522967688778    0.145511745785942    0.14550732774083447    
  0.12607846090271826    0.09592206572667847    0.06586506705542224    0.04253697156114767    0.027175603833291626    
  0.018108177189737888    0.013113250389297003    0.010506515468059198    0.009250573247118468    0.008752006327907829    
  0.008752187155794738    0.008530593470112235    0.008752185458255925    0.009522787417867652    0.011222135269388282    
  0.014567713877333839    0.02071302582043107    0.03133705194088489    0.04824554369958784    0.07188872358101665    
  0.09897542684226998    0.12156906593302548    0.13049294486812643    0.12156908132557159    0.09897542361465261    
  0.0718887286150964    0.04824553409049108    0.03133704956549811    0.020713031643472775    0.014567714219610601    
  0.011222126247069072    0.00952278954400299    0.008752186301090448    0.008530593470112235    0.008502583794070307    
  0.008717042887131788    0.00946648941635511    0.011122416439525502    0.01437140766152908    0.020326741840196123    
  0.030599405752966633    0.04688360196589406    0.0695649917619367    0.09548075959494226    0.11704239987749356    
  0.12554266149362941    0.11703545132895021    0.09548031920648409    0.06958471336421623    0.046880206240595045    
  0.030590583671840477    0.020329464270377892    0.014371721959362312    0.01112262445509786    0.00946666881768858    
  0.008716970537170231    0.008502583794070307    0.008716973432565013    0.00871645611903174    0.00926149688186831    
  0.010633478281786207    0.013467302255043003    0.018912840389472215    0.028882258590897148    0.045930071928471684    
  0.07200815871552288    0.1057511217050431    0.13969508028940406    0.16158506214959406    0.1615975061011372    
  0.13969657236712874    0.1057265288559232    0.07201539101160401    0.045944207511974436    0.02887925760364977    
  0.018913073599660428    0.01346693749266715    0.010633939828794122    0.009261032348178225    0.008716973432565013    
  0.009466667931543396    0.009141238877764385    0.00946665389649467    0.010633612183967897    0.013249682147419827    
  0.0185826471009004    0.02903229971686423    0.048481473762478945    0.0814666875825175    0.12964657595854062    
  0.18608815844162777    0.23330028309136397    0.2517893026146126    0.233299301078162    0.18613458007300437    
  0.129643182520648    0.08145119261399934    0.04848797699011984    0.029033567614671237    0.018583773538361666    
  0.013249794743802005    0.010633936557837873    0.009466667931543396    0.01112262911909819    0.010218589802014356    
  0.010219168478729137    0.011122083899513862    0.013467424082982283    0.018582873431519344    0.02930771004441705    
  0.050918824662123253    0.09133014458298745    0.1575412742631766    0.24513007001614512    0.32941300688355796    
  0.3790017147036259    0.3789871823939108    0.3293598403629982    0.24514630875955865    0.15757492081047317    
  0.09132509550688502    0.050921027667839236    0.029307622274583944    0.018583777497489073    0.013466937503124932    
  0.01112262911909819    0.0143717216562845    0.012465296331322541    0.011949332867786983    0.012465090953677309    
  0.014371741612398271    0.018912442794704408    0.02903320099446936    0.05091842989062371    0.09552594455120811    
  0.1764525486362981    0.29434906800681276    0.41184305643626096    0.47732908648646283    0.4922973127578014    
  0.4774173052220684    0.4118368532801264    0.2943111381354696    0.1764744944654029    0.0955297646107798    
  0.050921022369042515    0.029033563381880935    0.01891306473580643    0.0143717216562845    0.020329469421532433    
  0.016739310958026263    0.015465934967535662    0.015463322826036031    0.016742382922225543    0.02032596097832854    
  0.028883757296764342    0.04848101090014156    0.09133320884505702    0.17645650713802777    0.31321116411760247    
  0.45088658530808917    0.4919482235872042    0.458274401582441    0.45823081489285744    0.49195650870880275    
  0.4509890747462522    0.31317390364409264    0.17647451395988034    0.0913250929670996    0.048487980010561364    
  0.028879258511092847    0.020329469421532433    0.030590598190324777    0.024394649438558343    0.02212605236050807    
  0.021614393674299476    0.02212585837804746    0.02439540986347352    0.0305895529272077    0.04594478473282203    
  0.08144863746968406    0.15757530613645843    0.29429863155113195    0.4509688444158233    0.47888374589844895    
  0.36695383858653347    0.3033345477909909    0.36694695414763256    0.4788663672491419    0.4509891025678839    
  0.2943111801514734    0.15757493494378638    0.08145119432057991    0.04594421709736282    0.030590598190324777    
  0.04688021230071113    0.03712639727232423    0.034044480431030415    0.03344067753795368    0.03344032824232052    
  0.03404543462831385    0.037126854805736194    0.046882826093151087    0.07201429695061697    0.12964673977166102    
  0.24513643538650265    0.4118474976250874    0.4919725086032618    0.3669203612708333    0.23087237104582206    
  0.23090790349368573    0.3669469713056007    0.49195651169527277    0.4118368475121371    0.245146309242639    
  0.12964318969162322    0.07201539610545235    0.04688021230071113    0.06958471179671809    0.05616423312361763    
  0.053468424412376835    0.05450879354919857    0.05538523418308867    0.054510183289422004    0.05346807427811647    
  0.05616645847790438    0.06958467815770429    0.10573205622774182    0.18613232796671142    0.3293710009303662    
  0.4774017911973059    0.4581673603796865    0.3034177498868672    0.2308723788476422    0.3033345328294569    
  0.45823076384383915    0.47741728578809484    0.3293598540622316    0.18613458135877967    0.10572651264688364    
  0.06958471179671809    0.09548033729263657    0.08043728145005058    0.08092746606385788    0.08781741961543801    
  0.09367955249025507    0.09368842820020445    0.0878123141994176    0.08093754036943343    0.08043235830795595    
  0.09549281596531056    0.13969118635589312    0.23332026717104132    0.3789950156686159    0.4923549451558217    
  0.45816740254354904    0.36692038760741064    0.3669538581722458    0.45827441827964405    0.4922973039898644    
  0.3789871919967826    0.23329934682155945    0.13969658289308803    0.09548033729263657    0.117035457309443    
  0.10457146006139631    0.11262466665189771    0.1317472346800901    0.15066090832830503    0.15857929337877189    
  0.15066195796998313    0.1317487386910004    0.11263234537688803    0.10457367637179171    0.11704122678211186    
  0.1616014615337862    0.2517865318088    0.3789949938496192    0.4774017972676469    0.49197247577914144    
  0.47888372921913525    0.491948226694963    0.47732910540027573    0.3790016790672916    0.25178932308648044    
  0.16159751534906466    0.117035457309443    0.1255426766595603    0.12003945824329808    0.139155850466669    
  0.1761748852280431    0.2173205555633761    0.24429091484240353    0.24429894685371298    0.21732061434328553    
  0.1761785785041925    0.13916023015433676    0.12004616242934409    0.12554978392701707    0.16160146082280683    
  0.23332023990815204    0.32937101020435733    0.41184748436637514    0.4509687868214701    0.45088651826009946    
  0.4118430105444086    0.3294129655757115    0.23330028322483223    0.16158506314749974    0.1255426766595603    
  0.11704239571959915    0.12004110831232791    0.1496255430864507    0.2046471615978566    0.27184240251846703    
  0.3253778260481158    0.345072881157219    0.325386052657265    0.2718490548136646    0.20465351277500987    
  0.14962978442500005    0.12004616332680056    0.11704121484956755    0.13969117561954283    0.18613232018639714    
  0.24513642809936076    0.2942985716091222    0.3132111017132093    0.2943490347246787    0.24513004862891527    
  0.1860881202188936    0.13969507932589464    0.11704239571959915    0.0954807680332366    0.10456423857405979    
  0.1391569782098503    0.20464671824024042    0.2926881730152168    0.37187334868137745    0.41285630055229133    
  0.4128549121831922    0.3718694864943701    0.29269082853503486    0.2046535183373027    0.13916022892220734    
  0.10457366924310049    0.09549281260435125    0.10573205240827226    0.12964672280511952    0.1575752781387036    
  0.176456447927806    0.17645253519478551    0.15754126446004607    0.12964656810769493    0.10575113944175037    
  0.0954807680332366    0.06956498968252044    0.08043635500697498    0.11263337494468459    0.1761767960284202    
  0.2718464045262582    0.37187615742939    0.4336310725084134    0.45025735929501226    0.43362960684096524    
  0.3718694405018174    0.27184904742183746    0.17617858146742787    0.11263233857392599    0.08043235473079503    
  0.0695846802283926    0.07201427674542406    0.08144861996039658    0.09133320749914249    0.09552594091315486    
  0.09133012870260386    0.08146667678105347    0.07200814564576939    0.06956498968252044    0.046883593791186035    
  0.056180493362961735    0.08093055206810383    0.1317455756749243    0.21732245638125985    0.32538557417707653    
  0.4128561357498182    0.45024947886220523    0.45025738663410936    0.41285494102322146    0.3253860710392448    
  0.21732061915750492    0.13174874944673598    0.08093753907132849    0.05616646908431815    0.046882835981566236    
  0.0459447715140855    0.04848100224699118    0.050918420609215295    0.05091881938449515    0.04848146331723411    
  0.045930068697456    0.046883593791186035    0.03059940899870363    0.0371248740171215    0.053454006294743506    
  0.08781846216937086    0.15066669701435417    0.24430186525270287    0.3450804037263409    0.41285616133337616    
  0.43363109771872627    0.4128563189952545    0.3450728734030399    0.24429891982023694    0.1506619896331168    
  0.08781230336235607    0.05346809472916591    0.037126862730300095    0.030589547984331094    0.028883747208119395    
  0.02903319984816333    0.029307711055728176    0.029032296717751854    0.028882257138966794    0.03059940899870363    
  0.02032674695861465    0.024386469647768496    0.03404710016334077    0.05452349257797192    0.0936872638776222    
  0.158576171119063    0.24430183333345554    0.3253856029486836    0.3718762010502655    0.3718734000565681    
  0.32537785897820826    0.24429096054020188    0.15857930631923442    0.09368846153425217    0.05451019168142742    
  0.03404543983710628    0.024395404512836564    0.020325957551169935    0.01891244600007506    0.018582871646122618    
  0.018582650851059115    0.018912840154305183    0.02032674695861465    0.014371408608560125    0.016741583118114998    
  0.022133554137057553    0.03344147269099952    0.055372305210051785    0.09368726390968103    0.15066668050566426    
  0.21732244820417754    0.2718464189580183    0.2926881918906356    0.2718424238525989    0.21732058145909414    
  0.1506609446172013    0.09367956167122647    0.05538523896554036    0.03344033508600754    0.02212584684445719    
  0.01674237992215438    0.014371741737924265    0.01346742197187744    0.013249677693566577    0.013467297134085655    
  0.014371408608560125    0.011122414106056114    0.01246489207429673    0.015465240217978885    0.021606472592872263    
  0.033441477963328234    0.05452348947648923    0.08781846236267894    0.13174557531023262    0.1761767841653207    
  0.2046466998059254    0.20464718681122346    0.17617487350030253    0.13174724099834267    0.08781742806149397    
  0.054508806438875394    0.03344067321545431    0.02161439251271269    0.015463322168126932    0.012465095736533045    
  0.01112208137778223    0.01063361112913134    0.010633475888102107    0.011122414106056114    0.009466490358421589    
  0.010219429175862422    0.011948764919514278    0.015465241037663372    0.02213356058251755    0.03404709844153604    
  0.053453997624724206    0.08093054536110968    0.11263337772852927    0.1391569607430955    0.1496255468923281    
  0.13915583682538823    0.11262465523581416    0.08092744903714016    0.05346843080338666    0.034044472534692595    
  0.022126049575972643    0.015465934515586234    0.01194933766602849    0.010219170451703202    0.009466654376508132    
  0.009261496960845675    0.009466490358421589    0.008717044136813231    0.00914056710130575    0.010219430117198884    
  0.012464896626229741    0.016741589560335834    0.024386467715811266    0.037124862927740324    0.056180495994814894    
  0.08043637241988835    0.1045642674044736    0.12004112005774369    0.12003943903464616    0.1045714725243839    
  0.08043727373387395    0.05616423529034679    0.037126401517919856    0.024394646585590655    0.016739310875876406    
  0.012465303335627065    0.010218588432124556    0.009141242937048471    0.008716455105533587    0.008717044136813231    
  0.008502583794070307    0.008717042887131788    0.00946648941635511    0.011122416439525502    0.01437140766152908    
  0.020326741840196123    0.030599405752966633    0.04688360196589406    0.0695649917619367    0.09548075959494226    
  0.11704239987749356    0.12554266149362941    0.11703545132895021    0.09548031920648409    0.06958471336421623    
  0.046880206240595045    0.030590583671840477    0.020329464270377892    0.014371721959362312    0.01112262445509786    
  0.00946666881768858    0.008716970537170231    0.008502583794070307    0.008416110104804555    0.008612549652378228    
  0.009303389865946565    0.010827343288704433    0.013800292914353163    0.019209447578520215    0.028465237582995163    
  0.042989047084190206    0.06301283970213781    0.08568966457230777    0.10444329466341275    0.11181257337674513    
  0.10443176251435347    0.0856871705638113    0.0630398308070599    0.04298640550821566    0.0284518184368111    
  0.019213193012310992    0.01380121680702294    0.010827635412344244    0.009303717126105884    0.008612399481342367    
  0.008416110104804555    0.008612401998193438    0.008612360428566713    0.009168129292634554    0.010560012000119797    
  0.013416146045286917    0.01888946524012513    0.02889758978866385    0.046015692423883287    0.07219109697422706    
  0.10600635184206557    0.1399197287555392    0.16172168139986556    0.16173713512733878    0.13993004063718337    
  0.10597130287608537    0.07219860272934958    0.046035305125470875    0.028894600311722658    0.01888868762742992    
  0.013416486610267842    0.010559835926425456    0.00916824006131307    0.008612401998193438    0.009303716452376553    
  0.008949271582087482    0.009303627154622157    0.01055958879755669    0.013354796156897993    0.019049604836641327    
  0.03024580891905571    0.05116263337112874    0.08679703525784783    0.13894275094702108    0.1998550800163974    
  0.25043301505629284    0.2701022220249412    0.2504252177533323    0.1999134109350756    0.13894268388055261    
  0.0867721325348611    0.051171981650407865    0.030247603087891768    0.019050592424639495    0.013355069654560427    
  0.010559832781941522    0.009303716452376553    0.010827641663771826    0.00981979747129355    0.009820029846721935    
  0.010827531430710101    0.013416236146730378    0.019050383296814424    0.030917412356602822    0.05500177267065636    
  0.10033655060348365    0.17476420560585426    0.27211816811766887    0.3628137448967537    0.4136301751454884    
  0.4136222667831356    0.3627380102992523    0.27213592396306807    0.17481212424583129    0.10033098812233436    
  0.055001187802351026    0.030919187005182456    0.01905059506627998    0.013416488177472307    0.010827641663771826    
  0.01380121578970571    0.011644740809819632    0.01105540950434743    0.011644376735348462    0.013801458652549713    
  0.018887775360105233    0.030247987557646606    0.05499775572595511    0.10591095527166736    0.19846957959268643    
  0.33039454399305657    0.4504726833707829    0.5009453350245805    0.5054577321385695    0.5010494174209607    
  0.4504778367152569    0.33033060414337667    0.1984979041058512    0.10591665227539253    0.0550011799072653    
  0.03024760302006565    0.01888868083520495    0.01380121578970571    0.019213197961778623    0.015093848722578245    
  0.013589279983350843    0.013585982773831114    0.015097589057034757    0.01920879371681022    0.028899522579451237    
  0.051163011888943684    0.10034144366126661    0.19847718748192694    0.35208792663838745    0.48473937516252813    
  0.4787529853380579    0.4031685010176307    0.403119692471009    0.47875447250916475    0.4848756150906493    
  0.35203845088799357    0.19849791122226598    0.10033098279415546    0.05117199604409065    0.02889460055631324    
  0.019213197961778623    0.028451828931223763    0.021177675864287194    0.018310322053959854    0.017597678328309965    
  0.0183102340251242    0.021177884473604566    0.02845175643506351    0.04603501429449563    0.08677087492830088    
  0.17480867151577545    0.3303203334675666    0.4848395725594537    0.44693834948929606    0.27340171691980564    
  0.19850466434788808    0.27340550265370783    0.44689775092497724    0.48487560714759764    0.3303306139594256    
  0.17481211661081852    0.08677214004951947    0.04603531864109006    0.028451828931223763    0.04298641497076645    
  0.03105491573556674    0.026529861728889267    0.025110283346483048    0.025109218833399147    0.026531398482857346    