#     DFTpy    
  CRYSTAL 
    
  PRIMVEC    
  2.2459447182426007    -3.89009036298715    0.0    
  2.2459447182426007    3.89009036298715    0.0    
  0.0    0.0    7.424453379488447    
  PRIMCOORD    
  4    1    
  Si    2.2459447182426007    1.2966967876623832    0.46781109521487574    
  Si    2.2459447182426007    -1.2966967876623838    4.180037784959099    
  Si    2.2459447182426007    1.2966967876623836    3.2444155945293476    
  Si    2.245944718242601    -1.2966967876623836    6.956642284273571    
  BEGIN_BLOCK_DATAGRID_3D    
  3d_datagrid_density    
  BEGIN_DATAGRID_3D#0    
  21    21    33    
  0.0    0.0    0.0    
  2.2459447182426007    -3.89009036298715    0.0    
  2.2459447182426007    3.89009036298715    0.0    
  0.0    0.0    7.424453379488447    
  0.032048106795711934    0.03313138224472092    0.0367625264807161    0.04402554214933651    0.05685325588000353    
  0.0780241885324217    0.1098923590629247    0.15196419858076632    0.19808325006212385    0.23533495030135843    
  0.24972834578406386    0.23533490634098883    0.1980831907642398    0.15196416609253344    0.10989237563534653    
  0.07802420039801258    0.05685326708200218    0.044025544973428206    0.03676251832869332    0.033131383860539446    
  0.032048106795711934    0.03313138511271481    0.03313186683039279    0.035495042848414836    0.04100702348455423    
  0.051331806676122395    0.06912198891305804    0.09740908148822137    0.13762869487027785    0.18653644506444708    
  0.23354444130173452    0.2629637952282939    0.26296634373070144    0.23355767103092914    0.1865291826086664    
  0.13762223664499482    0.09741566195262005    0.06912192106397454    0.05133072344111494    0.041007313218701595    
  0.035495135296124275    0.03313138511271481    0.0367625315238045    0.03549504414716043    0.036761993482079015    
  0.041007971198868204    0.04976793624499406    0.06584856194490418    0.09300267561371733    0.1345282277453329    
  0.18964432270220963    0.24912381823553395    0.29575800707334954    0.3133502271327254    0.29574260790231943    
  0.2491186167653859    0.18966119740647266    0.134525519007542    0.09299704284217025    0.06584964786820961    
  0.04976923906116801    0.04100731780438922    0.0367625315238045    0.04402555357775859    0.041007024032013284    
  0.041007966791815724    0.044024744145434044    0.0513324679252232    0.06585045679348657    0.09203257729130855    
  0.13510520366887172    0.19714149372268577    0.2690391749081965    0.3291099221508915    0.3598829425047603    
  0.3599028342700238    0.3291095917098691    0.2690322496924542    0.19713876543580763    0.13510789952659316    
  0.09203685472305113    0.06584964495183128    0.05133073396258059    0.04402555357775859    0.05685327495681057    
  0.05133182331307738    0.049767940525971326    0.0513324646293638    0.05685094867888934    0.06912131391199335    
  0.09300109097355276    0.1351073793742913    0.20057040742405696    0.28114802603923467    0.34539987206491646    
  0.3685254585525046    0.3693143756384809    0.3685348341178178    0.34541532232432803    0.28114243740149497    
  0.2005730520106429    0.13510790771718514    0.0929970333254971    0.069121931380675    0.05685327495681057    
  0.07802419065259497    0.06912198846981961    0.06584854973139194    0.06585042809266187    0.06912126130595324    
  0.07802826678748233    0.09740721269834465    0.13452922334371126    0.19714197216458043    0.2811383661052035    
  0.3479194464255477    0.35135397359370407    0.32091677682110953    0.32091077782615546    0.3513271686574443    
  0.3479328023786005    0.2811424298963922    0.19713872869594248    0.1345255030866226    0.09741562602715795    
  0.07802419065259497    0.10989236494666525    0.09740910295044224    0.0930026635806565    0.09203258175311105    
  0.09300110932339804    0.09740725077316821    0.10989907834751438    0.13761990209370925    0.18965528190840092    
  0.26902912888538033    0.34541831722679056    0.3513469027296882    0.2910105125582684    0.25639094544503166    
  0.29103188023882337    0.3513272001003592    0.345415311679985    0.26903226970197475    0.1896611874301575    
  0.13762227581429176    0.10989236494666525    0.15196420931316795    0.1376287118658958    0.13452821316034905    
  0.1351051961840294    0.13510740078105668    0.13452926250766784    0.13761992883384574    0.15196777350821356    
  0.18653317468905595    0.2491226203967156    0.3291057832645336    0.3685301226675474    0.32091387872824234    
  0.2563980600114901    0.2563909406529184    0.3209108003909651    0.368534795628634    0.3291095904080703    
  0.2491185767758102    0.1865292000775034    0.15196420931316795    0.19808324713294137    0.1865364470414212    
  0.18964437906597967    0.19714149882214083    0.20057042138063022    0.19714195900860831    0.18965532021853748    
  0.18653316410776666    0.1980749923222195    0.2335588388805927    0.29574604185729936    0.3599067131091747    
  0.3693136043204237    0.3209138848790966    0.2910105322020628    0.32091681385465193    0.3693143891328095    
  0.359902832597794    0.29574257814398125    0.23355768018828477    0.19808324713294137    0.23533495125111123    
  0.2335444678449795    0.24912380912838    0.2690391858610443    0.2811479845308023    0.2811384026135649    
  0.26902913490101243    0.24912261558196452    0.23355891241789084    0.23532708980742598    0.2629694834721752    
  0.3133357767496835    0.3599067141941856    0.36853012847439903    0.35134689451657347    0.3513539653497571    
  0.36852546096189304    0.35988293779609837    0.3133501832161248    0.26296636971483334    0.23533495125111123    
  0.2497283571156656    0.2629638446094307    0.29575801933554546    0.32910990214901664    0.3453998668813045    
  0.347919458308037    0.3454182973979821    0.3291057253949888    0.2957460604229219    0.26296951078569814    
  0.24972900139459236    0.26296948490287436    0.2957460145023376    0.329105686234542    0.34541836490122596    
  0.3479194490642196    0.3453998794568856    0.32910991836552556    0.29575797635957457    0.26296383005733037    
  0.2497283571156656    0.2353349253410729    0.26296636993012845    0.31335022656566713    0.35988290768940717    
  0.36852546619879434    0.3513540160624267    0.3513469382233425    0.3685301067383449    0.3599067399984287    
  0.31333584716600305    0.2629694876940922    0.23532707677427386    0.2335588678667728    0.24912261314557305    
  0.2690290812507652    0.2811383938634142    0.2811479783135234    0.2690392301737727    0.24912378910541716    
  0.23354447146714197    0.2353349253410729    0.19808326029995582    0.2335576605970552    0.29574260365081567    
  0.3599027463922711    0.36931438572929487    0.32091677618168024    0.2910105621714106    0.32091385603223604    
  0.36931358534875786    0.3599067591573628    0.29574597079811016    0.2335588727198733    0.19807496168199398    
  0.1865331948076972    0.18965532584130876    0.19714196785437121    0.20057042469495154    0.19714151561590543    
  0.18964435794722426    0.1865364632875317    0.19808326029995582    0.15196421081069494    0.18652918111330324    
  0.2491185936954254    0.32910954454959623    0.3685348509907671    0.3209108597207462    0.2563909350502513    
  0.2563980480131095    0.3209138919054298    0.3685301022454966    0.3291057758562231    0.24912263687403757    
  0.18653319595290768    0.15196778968123467    0.13761990017429537    0.13452923133495975    0.1351073937907522    
  0.1351052124204223    0.134528201988098    0.13762871815708538    0.15196421081069494    0.10989237411183093    
  0.13762226591075769    0.18966119989304067    0.2690323013140704    0.3454153102020085    0.35132720901167597    
  0.29103187144633086    0.25639094342847585    0.29101049067554263    0.3513469774783629    0.3454183489227443    
  0.2690291459203176    0.18965529878832038    0.1376199161585655    0.10989906607337283    0.09740725306754527    
  0.09300110623664136    0.09203259452102756    0.09300266206560172    0.09740908393578693    0.10989237411183093    
  0.07802420393497816    0.09741564352604996    0.13452551819851133    0.19713871879509945    0.28114242295273767    
  0.3479328151069487    0.35132714267917076    0.32091075926518114    0.32091680445437115    0.3513539614086333    
  0.3479194527075865    0.2811384069022722    0.1971419401225767    0.13452921181559505    0.09740723727239842    
  0.07802827128065865    0.06912128400372823    0.06585043413239909    0.06584854064442798    0.06912196530202958    
  0.07802420393497816    0.05685327670649615    0.06912193869878212    0.09299704617911271    0.13510790679092002    
  0.20057301961096344    0.2811424523803579    0.34541535544975777    0.36853482648850977    0.3693143807448337    
  0.36852552557431173    0.3453998468095569    0.2811479729909151    0.20057039770238538    0.1351073942051677    
  0.09300108439974698    0.0691213025383532    0.05685095098880489    0.051332470266378744    0.049767936229307884    
  0.05133182172929758    0.05685327670649615    0.044025552807182164    0.051330721804035306    0.06584965234617188    
  0.09203685873445859    0.13510791856548984    0.19713873021634384    0.2690322690459314    0.32910953932156906    
  0.3599027830000568    0.35988294431771745    0.32910995487052797    0.26903917778461556    0.19714150121142474    
  0.13510521011634138    0.09203258690085386    0.06585045279288643    0.051332466992915306    0.044024740985873174    
  0.041007967262558384    0.04100703526218179    0.044025552807182164    0.03676253457243344    0.04100731950759274    
  0.04976924770551013    0.06584964845929486    0.09299703110741483    0.13452552413806426    0.18966120541472803    
  0.24911855428336743    0.29574257878689486    0.31335018695860795    0.29575800758815346    0.24912384619839742    
  0.18964437413130625    0.13452822507190687    0.09300265438151141    0.06584855974433076    0.04976793630486691    
  0.04100798564832997    0.03676198217096663    0.03549505209385261    0.03676253457243344    0.03313138035700058    
  0.03549513022486414    0.041007320331102    0.051330724736313    0.06912192637651894    0.097415652123956    
  0.1376222446844565    0.1865291899517492    0.23355769745230218    0.2629663815139937    0.2629638606394704    
  0.23354446502214904    0.18653644975982184    0.13762870638649333    0.09740907566227225    0.06912198402803192    
  0.05133181283110545    0.04100702879861032    0.03549504754737773    0.03313186332316886    0.03313138035700058    
  0.032048106795711934    0.03313138224472092    0.0367625264807161    0.04402554214933651    0.05685325588000353    
  0.0780241885324217    0.1098923590629247    0.15196419858076632    0.19808325006212385    0.23533495030135843    
  0.24972834578406386    0.23533490634098883    0.1980831907642398    0.15196416609253344    0.10989237563534653    
  0.07802420039801258    0.05685326708200218    0.044025544973428206    0.03676251832869332    0.033131383860539446    
  0.032048106795711934    0.03157324014867257    0.03263309947985547    0.03617864707915328    0.043247531159524934    
  0.05567178742204792    0.07607368923211931    0.1066324154785332    0.1467443993862083    0.19046651139517595    
  0.2256496324002404    0.23921699125177398    0.22564623837588216    0.19047987723391413    0.14674453510046412    
  0.10662090550396844    0.07607590195286343    0.055674985273658884    0.04324699321807753    0.03617858285532708    
  0.03263293224655074    0.03157324014867257    0.03263293900982109    0.032633334985379084    0.03474727516340561    
  0.03967710422451684    0.048801137111404734    0.06431916938915276    0.08874661008192575    0.12312400303551595    
  0.16454267668862654    0.20420470433996019    0.22908485688131297    0.22908988423830223    0.20421095375565573    
  0.16452929900775706    0.12312306615932124    0.08875712700662909    0.06431731338634795    0.048798305608496045    
  0.03967751943388853    0.03474763517932792    0.03263293900982109    0.036178597536750866    0.03513857451786905    
  0.03617830828751102    0.03967849892546816    0.04684049981545382    0.05980090994629731    0.08138342361594057    
  0.11386047643813614    0.15657922195852905    0.20308187139497058    0.24044050934066832    0.25486870886758    
  0.24043405013218447    0.20307752285508077    0.15659409842100216    0.11386017318086833    0.08137375952273289    
  0.059802201172766585    0.04684387483051231    0.039677527089997625    0.036178597536750866    0.043246997337590326    
  0.04096030960830259    0.04096043959329232    0.04324647395150537    0.048801487977236    0.05980415000299659    
  0.07945502770500101    0.11128833875275557    0.15686008173524896    0.21153536528402497    0.2620403316725094    
  0.29198302374907525    0.2919873152200915    0.26204114483556923    0.2115377067374301    0.15684874550748337    
  0.11128809682290161    0.07946551856674362    0.05980219239045374    0.04879831521491139    0.043246997337590326    
  0.05567499524683714    0.051899406086313056    0.05085584250954505    0.05190019973714776    0.055670536928131925    
  0.06431600123231031    0.08138320723187265    0.11128809691557728    0.15783065993262838    0.21884611347446767    
  0.28013678347108245    0.3218037556691213    0.3353852007794622    0.32180939248324897    0.2801383939805041    
  0.21884150553514498    0.1578431291695168    0.11128811180738625    0.08137375216522198    0.06431731310399585    
  0.05567499524683714    0.07607590092201875    0.07079011594695735    0.06911074766196605    0.06911082387213942    
  0.07079435415452484    0.07607846283947899    0.08874602475557739    0.11386080625335704    0.15686148274902081    
  0.21883707448831644    0.28649413423121844    0.33402674510051455    0.35149871033555696    0.3514980679247717    
  0.33401908793419255    0.28649903692782047    0.21884151350803066    0.15684873517107764    0.11386013784213761    
  0.0887571101471679    0.07607590092201875    0.10662088045921936    0.10083272594466985    0.10009106677529597    
  0.10029502489830497    0.10008524990094522    0.1008294119470844    0.10663357695595385    0.12312119250100816    
  0.15658080561075802    0.21153964813456555    0.28013927269180366    0.33402836517064655    0.3520439307335727    
  0.3518884111261797    0.3520473630475046    0.334019156269439    0.2801384232094487    0.21153772506492785    
  0.15659410762326292    0.12312309612891587    0.10662088045921936    0.146744592694727    0.1435519974170173    
  0.147714419035466    0.1519057272716543    0.1519134611985885    0.14771858460834406    0.14353603967579273    
  0.1467469061849631    0.16454259846788186    0.20307629163395557    0.26203822377162644    0.32180822572891343    
  0.351495856342535    0.35188790233803097    0.35188843732373015    0.3514980567320648    0.32180939340429093    
  0.2620411414221171    0.2030775036994973    0.16452933881417048    0.146744592694727    0.19047986845475748    
  0.19532817075579895    0.21060303207718706    0.22547376728049837    0.23124930589284518    0.22546938957011953    
  0.21062293941502788    0.19532691280968376    0.1904625280664408    0.20421346634755463    0.2404384962551693    
  0.29198774270165123    0.33538859974917756    0.3514958864094717    0.35204393475621143    0.3514987311986619    
  0.3353852518296864    0.2919873090160183    0.2404340707666076    0.20421100894554836    0.19047986845475748    
  0.22564622558341232    0.24464782029606771    0.276574794700357    0.3052217761512558    0.3190305485446128    
  0.31902453432896166    0.30519512452222175    0.27657588105046776    0.24466804784705118    0.22564208910092723    
  0.22908703645205256    0.2548651137560055    0.29198773175624015    0.3218082333601859    0.3340283775836739    
  0.33402671981581317    0.32180370678496395    0.2919830143541578    0.25486868438979843    0.22908989438859115    
  0.22564622558341232    0.2392170057007182    0.2751616423230612    0.3257874870335547    0.36061854515276726    
  0.3617690800183296    0.35463220753681013    0.3618010187553851    0.3606193782566428    0.3257598870252948    
  0.2751709485922203    0.23921770603041187    0.2290870067054901    0.2404385052394316    0.2620381895069782    
  0.28013930492657213    0.28649409583422863    0.28013679009120634    0.26204031642599895    0.24044047546595584    
  0.22908486344052198    0.2392170057007182    0.22564959436066268    0.27516565526805503    0.34353145388584805    
  0.3805826912200321    0.34246945981337884    0.2853068145457318    0.28529494588606635    0.3424697513186171    
  0.38062795584128484    0.34350825836657634    0.2751709870885316    0.22564205989815164    0.2042134941160481    
  0.20307627704551567    0.211539601501788    0.21883709208395424    0.21884607289805014    0.21153538640184608    
  0.20308187887156984    0.2042046810859265    0.22564959436066268    0.19046652926938015    0.24466619224499314    
  0.3257589620353326    0.3806168699813504    0.3226253563079781    0.20798820870919227    0.16022154641972705    
  0.2079898083204874    0.3226155150367269    0.3806279739739321    0.32575986330979795    0.24466801358260962    
  0.19046255393563583    0.1645425634441099    0.15658081584203357    0.1568615107649075    0.15783068225333682    
  0.15686008953153738    0.15657922265972057    0.16454270998542708    0.19046652926938015    0.14674440905820993    
  0.19532936397401357    0.2765674254938817    0.36062567227666303    0.342481251506825    0.20797493442296552    
  0.11369270415732984    0.11369507742768213    0.20798981524213378    0.342469735356814    0.360619456040943    
  0.276575883903127    0.19532692770593277    0.14674693875285574    0.1231211834521895    0.11386081925374632    
  0.11128811477949016    0.11128833660440718    0.11386045972765983    0.12312401164648626    0.14674440905820993    
  0.10663243160875738    0.14353735541902485    0.21062269167833206    0.30520386295337765    0.3617894063854202    
  0.2852771500332749    0.16024487420051667    0.11369267720417944    0.16022151622769576    0.2852949827334292    
  0.3618010493647622    0.3051951671808031    0.21062292069775865    0.1435360282926732    0.10663356414681072    
  0.08874605152441653    0.08138321220790236    0.07945505269718706    0.0813834079648694    0.08874662258829363    
  0.10663243160875738    0.07607369007930151    0.10083485012986211    0.14771333521141433    0.22547346378902844    
  0.31903597360985597    0.3546430142425857    0.28527709009014485    0.20797488331142058    0.20798818479533054    
  0.2853068425925652    0.35463219740492746    0.31902454848677186    0.2254693817026607    0.14771851699307748    
  0.10082941408648621    0.07607846041995071    0.06431597396743248    0.059804137041549306    0.0598008752645577    
  0.0643191486246264    0.07607369007930151    0.05567179760941666    0.07079455748232853    0.10008539761553806    
  0.15191578574616765    0.23123596014916054    0.31903597897637603    0.3617894089627719    0.3424812303771318    
  0.322625355721379    0.3424694943127925    0.3617690909616487    0.31903055008478015    0.231249327369367    
  0.15191346069789555    0.10008523067807165    0.07079439397669564    0.05567053709283036    0.048801485340453685    
  0.04684049836184621    0.04880115135496653    0.05567179760941666    0.043247543536073074    0.05189841001531913    
  0.0691120201119285    0.10029246557151224    0.15191579196435834    0.2254735580776226    0.30520387518032643    
  0.36062568307991216    0.3806168996264646    0.3805826975595774    0.3606185691687346    0.305221803858815    
  0.22547371187124957    0.15190574368620088    0.10029502321657958    0.06911085207426423    0.05190020048345123    
  0.04324647042954642    0.03967849018772748    0.039677105143096025    0.043247543536073074    0.03617865524123768    
  0.040960552138558336    0.05085584878507959    0.06911202233380374    0.10008540309039067    0.14771333772748751    
  0.21062272518471864    0.2765674113294599    0.3257589612577622    0.34353141755771804    0.32578756039134027    
  0.2765748164104324    0.21060306820195962    0.14771443745005522    0.10009105228055522    0.06911074706064167    
  0.05085583551318829    0.040960445514946806    0.03617829882031096    0.0347472797335181    0.03617865524123768    
  0.03263309819203696    0.035138273157837116    0.04096055792659242    0.05189841213987372    0.07079453818132786    
  0.10083485109492933    0.1435373276131414    0.1953293860241787    0.24466621587276682    0.2751656378284629    
  0.27516165775002777    0.2446477912894513    0.19532818926063386    0.14355200345179597    0.10083270331292898    
  0.07079010941366402    0.0518993916596818    0.04096030511533808    0.03513856975938407    0.03263332298546867    
  0.03263309819203696    0.03157324014867257    0.03263309947985547    0.03617864707915328    0.043247531159524934    
  0.05567178742204792    0.07607368923211931    0.1066324154785332    0.1467443993862083    0.19046651139517595    
  0.2256496324002404    0.23921699125177398    0.22564623837588216    0.19047987723391413    0.14674453510046412    
  0.10662090550396844    0.07607590195286343    0.055674985273658884    0.04324699321807753    0.03617858285532708    
  0.03263293224655074    0.03157324014867257    0.030246340856081595    0.031241302334046376    0.0345423552385757    
  0.041067006597095904    0.05239311802745867    0.0706895033546759    0.09761439354360764    0.13239401417486762    
  0.1697631704046587    0.19952352552219274    0.2109532518633123    0.19951900550767612    0.1697773476512328    
  0.13239661771246047    0.09760159916340264    0.07069067718007856    0.05239796050330118    0.04106621798588032    
  0.03454238308881319    0.031241017432742    0.030246340856081595    0.031241019426159367    0.031240749808459693    
  0.03304402856639292    0.03724618868059702    0.04490668290678398    0.05763960245535846    0.07723190318501967    
  0.10422793169528576    0.1361149991680946    0.1661811330267786    0.1849050462096542    0.1849106612330405    
  0.16618493158188166    0.13610164358571047    0.10422700354759436    0.07724249898941761    0.057638096927795326    
  0.04490261443034749    0.03724687670147219    0.03304412043075843    0.031241019426159367    0.03454240341926908    
  0.03374945206769004    0.03454258073732529    0.03724762917119725    0.04274724686440353    0.05248809535070238    
  0.06833486569098662    0.09160784165921913    0.12154805481079377    0.15366329380532537    0.17933737756387877    
  0.1892662374042156    0.17933323727860134    0.15366056834491168    0.12156052931119654    0.0916084206210273    
  0.06832531617531824    0.05248932091594641    0.042751342208325854    0.0372468885892259    0.03454240341926908    
  0.04106621609222489    0.03951361650647221    0.03951338782315206    0.04106558905298408    0.044906820737914126    
  0.05249091131164066    0.06587001299560982    0.08712646200440066    0.1169304860888279    0.1525080537267765    
  0.1860860438139605    0.20674712694137698    0.20674744027662856    0.18608733429464983    0.1525116821297578    
  0.11691857025461515    0.08712587058385911    0.06588006667940206    0.05248931761829985    0.04490261613579839    
  0.04106621609222489    0.05239796605535812    0.05026952142229881    0.04973005907986519    0.05027013241600223    
  0.05239295422086163    0.05763635212500457    0.0683350619222891    0.08712621578230277    0.11607213446672897    
  0.1543775587041398    0.1954866393997763    0.22749545085693462    0.23948409350262    0.22749825410537441    
  0.19548430147672133    0.1543741205150799    0.11608523180692416    0.08712589402478026    0.06832530840916488    
  0.05763810737105508    0.05239796605535812    0.07069067515670185    0.06869756847603174    0.06848410329316597    
  0.06848417186323057    0.06870358146405957    0.07069292064394835    0.0772322578515534    0.0916073988867854    
  0.11693173534180847    0.15437121978760868    0.1994847679351325    0.24057251957798131    0.2644894175463311    
  0.2644905076446342    0.24057125830809042    0.19948790266531707    0.15437413935426209    0.11691855032248287    
  0.09160839490556329    0.07724247706110161    0.07069067515670185    0.09760158950100319    0.09771050382903994    
  0.10017187399567067    0.10141549722399945    0.1001636301723258    0.09770626161543601    0.09761404613591874    
  0.10422707596269173    0.12154699286833864    0.15251435860061424    0.1954854872591472    0.24057459942579099    
  0.27332168519431566    0.2847974287299222    0.27331957055954    0.24057129539574004    0.19548430678927697    
  0.15251167490764828    0.12156053092168985    0.10422703542456109    0.09760158950100319    0.13239665604699746    
  0.1385475364107215    0.1486360156184529    0.15577717392382034    0.15578700035105844    0.14864354850236075    
  0.1385323117384692    0.13239522389056385    0.1361169065235236    0.15365752933588045    0.1860846247362747    
  0.22749830611390773    0.2644883023374095    0.28479533918848643    0.28479741931798513    0.26449055403655375    
  0.2274982639303611    0.18608732947370446    0.15366054808846552    0.13610165247986838    0.13239665604699746    
  0.1697773332633955    0.18745377110270403    0.2119645458590343    0.2323275843969894    0.2399049780303843    
  0.2323188848490114    0.21198210277063373    0.18745735645124165    0.1697590443671113    0.16618708662960754    
  0.17933796107170694    0.2067470935430894    0.23948577540495475    0.2644882889330196    0.27332164492166283    
  0.2644894215761219    0.23948407681447048    0.20674747529724674    0.1793332225224638    0.16618496256358015    
  0.1697773332633955    0.1995190035222197    0.2333557435471508    0.27681150975714314    0.3117335089458793    
  0.3272263275342304    0.32722522378360197    0.31170787842245673    0.2768093183145403    0.23337585478135994    
  0.1995170344154842    0.18490580781341676    0.18926547266041543    0.2067470812907734    0.22749836462170567    
  0.24057458777618954    0.24057253602834558    0.22749543856154572    0.20674709969350966    0.18926620542640907    
  0.18491067945771072    0.1995190035222197    0.21095327849602608    0.2613727407703276    0.3233257960036984    
  0.3601131007603869    0.354512108463981    0.3432084439717137    0.3545361260920042    0.3601235289009174    
  0.32329317900604687    0.26138111261240615    0.21095545734870486    0.1849058032005018    0.17933793397992964    
  0.18608455948582822    0.19548551641627385    0.19948477318516677    0.19548662793944438    0.1860860192662616    
  0.17933735827854294    0.18490507257869032    0.21095327849602608    0.19952352282781974    0.2613775235645267    
  0.3394982379296722    0.37192247649872995    0.3137593126835729    0.2434744020947543    0.2434679545820962    
  0.31375849686578877    0.3719676031042102    0.3394790131859696    0.2613811057562059    0.1995170460346056    
  0.1661870918603173    0.15365751511706996    0.1525143092308565    0.15437125652482675    0.1543775448789748    
  0.1525080947819353    0.1536633004834699    0.16618113352283667    0.19952352282781974    0.16976318508689545    
  0.23337081302747065    0.3232974329666934    0.3719528169113858    0.2853801247538823    0.15560013270544554    
  0.10868477370067833    0.1556057186638021    0.28536754019163696    0.3719675760188555    0.32329312282405    
  0.23337586068901064    0.1697590577426008    0.13611691793769484    0.12154702568510575    0.11693172695851137    
  0.11607213463559458    0.11693049483421426    0.12154808749470528    0.1361149932685553    0.16976318508689545    
  0.13239403546472528    0.18746009676297773    0.2768008405264001    0.36012920303422163    0.31377152435859773    
  0.15558632448406962    0.06695943218381942    0.06695194869155664    0.15560571758189035    0.3137585155632709    
  0.3601236234648304    0.27680932098268207    0.18745735819934925    0.1323952234364171    0.10422708131186909    
  0.09160740637977438    0.08712621964718155    0.08712646863124297    0.09160782448814761    0.10422793210407573    
  0.13239403546472528    0.09761441018182568    0.13853315062734517    0.211981514418636    0.311717548924633    
  0.3545208115154047    0.2434594634703227    0.1086953366157804    0.06695943569384129    0.10868479035561357    
  0.24346796584972918    0.35453616800302484    0.3117078747920147    0.2119821037425662    0.13853228173360585    
  0.09761403755607309    0.07723229406593203    0.06833507017959473    0.0658700183216143    0.06833485876885692    
  0.07723190826260637    0.09761441018182568    0.07068951070791758    0.09770959836036493    0.14863913803748854    
  0.23232126341274745    0.3272458763573594    0.3432059314535424    0.24345941475531044    0.1555862738259822    
  0.15560014663685529    0.24347436719367144    0.3432084832402957    0.3272252369005577    0.23231887694910805    
  0.1486434954786772    0.09770626056534806    0.07069291895594171    0.05763633768074923    0.05249089584102952    
  0.052488080635436724    0.05763958427212149    0.07068951070791758    0.052393133848916223    0.06870415781370098    
  0.10016392388160898    0.15579193980931294    0.23988354305458598    0.32724593262463886    0.35452083452426997    
  0.31377147425321417    0.2853801011073697    0.31375934038539316    0.3545120799555349    0.3272263097878308    
  0.23990497426555052    0.15578697012453563    0.10016361335422387    0.06870361340319803    0.052392961111113474    
  0.04490682083228652    0.04274724348475165    0.04490669386084685    0.052393133848916223    0.04106701314832492    
  0.050268107055436675    0.0684864938759376    0.10141008196540838    0.15579195953578104    0.23232126644839    
  0.31171754197246265    0.3601292037446934    0.371952835763565    0.3719225214769396    0.3601131340265418    