#     DFTpy    
  CRYSTAL 
    
  PRIMVEC    
  3.878482758620689    0.0    0.0    
  0.0    3.878482758620689    0.0    
  0.0    0.0    3.878482758620689    
  PRIMCOORD    
  2    1    
  Si    0.0    0.0    0.0    
  Si    1.9392413793103445    1.9392413793103445    1.9392413793103445    
  BEGIN_BLOCK_DATAGRID_3D    
  3d_datagrid_density    
  BEGIN_DATAGRID_3D#0    
  17    17    17    
  0.0    0.0    0.0    
  3.878482758620689    0.0    0.0    
  0.0    3.878482758620689    0.0    
  0.0    0.0    3.878482758620689    
  0.07598209969584478    0.13624279363386482    0.32450053906788295    0.420392326320877    0.30222645235259105    
  0.1676870715532887    0.09228083448228591    0.05938768722272367    0.05039138499234462    0.05938772751552916    
  0.09228081685745067    0.16768710265911055    0.3022263980317575    0.42039240837190267    0.32450057431950685    
  0.13624277931868706    0.07598209969584478    0.1362427613205    0.2031398528659484    0.3681123583864339    
  0.41130602921038045    0.28366663520769736    0.15812274017658284    0.08853575185921868    0.0579446605486614    
  0.04952601134508245    0.05794468772333986    0.08853571832737743    0.1581227334602966    0.28366658300541814    
  0.4113061740059439    0.36811239617127534    0.20313979679702499    0.1362427613205    0.32450059010503546    
  0.3681124665052927    0.42232848799714395    0.36198139993496087    0.2336179044235112    0.1337210530084701    
  0.07904659949751068    0.054426970771738185    0.047538859474390086    0.05442698691389952    0.07904659242117942    
  0.13372102938346245    0.23361784790490608    0.3619815253079221    0.4223285465362582    0.368112413620553    
  0.32450059010503546    0.4203923882134089    0.41130607988004536    0.3619814286214595    0.2670504171066898    
  0.17096684060843137    0.10470308648801029    0.06783767586967376    0.05053094300157466    0.04557987234723602    
  0.05053096938708821    0.06783765532460763    0.10470306209852424    0.17096684536819884    0.2670504580523611    
  0.3619815280404523    0.4113060312100247    0.4203923882134089    0.3022264474627743    0.2836666073069667    
  0.2336179657758876    0.17096685947205098    0.11676971489296138    0.0798458150099225    0.05839812004086627    
  0.04783733280911533    0.04474127230672858    0.047837335745414135    0.058398121310555606    0.07984577816348873    
  0.11676974010849067    0.17096686943798695    0.23361789922960516    0.2836665664305273    0.3022264474627743    
  0.16768709448150765    0.1581227232268237    0.13372101588388402    0.10470303040392506    0.07984578611174012    
  0.06252537819723454    0.052212217278386625    0.04707960246972668    0.0455798655475315    0.04707964626282296    
  0.052212212398740104    0.062525412534965    0.0798457912624798    0.10470305208624692    0.13372105298589218    
  0.15812268561907877    0.16768709448150765    0.09228087383549943    0.08853576240659497    0.07904658721550091    
  0.06783767484937317    0.05839814226175251    0.05221223027515879    0.0490325303683104    0.047809403979485014    
  0.04753888533557806    0.04780941234351896    0.04903253407494839    0.05221223829617    0.0583981367224966    
  0.06783766409796166    0.07904654702461157    0.088535741636087    0.09228087383549943    0.05938769427521419    
  0.057944678721585395    0.054426956685112965    0.0505309758573562    0.047837321812776216    0.04707962281696954    
  0.04780941773480892    0.04896955167644602    0.049525985668622936    0.04896954747201745    0.047809384647569064    
  0.04707962193140003    0.047837337497308174    0.05053097428868086    0.054426987327266266    0.057944667952628315    
  0.05938769427521419    0.0503913928620213    0.04952602969949294    0.047538826974116745    0.04557987610079826    
  0.04474127389471711    0.04557988461400415    0.04753883716331706    0.04952599533527207    0.05039138540938486    
  0.04952603035393571    0.04753882324935135    0.04557985953310231    0.044741290226910486    0.04557986587428747    
  0.047538834800842145    0.04952601024005038    0.0503913928620213    0.059387703136006796    0.05794467659430636    
  0.054426935627763025    0.050530970233607767    0.0478373329669607    0.0470796164999535    0.04780937524088643    
  0.04896952397709137    0.04952599752522074    0.04896957047253501    0.04780936456149829    0.04707958487108776    
  0.047837351598379034    0.05053096455094285    0.054426978779742514    0.05794467558125078    0.059387703136006796    
  0.09228085297311617    0.08853577634484787    0.07904658750301785    0.06783766054207721    0.05839811151406358    
  0.05221222690108976    0.049032572843099954    0.04780940098085645    0.04753884427219278    0.04780941557851711    
  0.04903254792076657    0.05221220673305707    0.05839814580367998    0.06783766208641652    0.07904658552236625    
  0.08853576165626867    0.09228085297311617    0.16768708156429948    0.1581227158728578    0.1337210324013637    
  0.10470304947662414    0.07984578174492742    0.06252542402634992    0.052212249770674304    0.0470796077069261    
  0.04557986889778954    0.047079587173533693    0.052212190532367156    0.06252538911674659    0.07984578080404134    
  0.1047030808039304    0.13372105764855566    0.15812268120248382    0.16768708156429948    0.302226462204181    
  0.28366658506253467    0.23361786388113417    0.17096682666357998    0.11676974234896353    0.07984580185498279    
  0.05839814182115782    0.04783733712878301    0.044741284803645295    0.04783734892426063    0.058398152459774165    
  0.07984580263982859    0.11676970131827795    0.17096690061113873    0.2336178674259661    0.2836665528456649    
  0.302226462204181    0.4203923750673817    0.41130615096837425    0.3619814799473581    0.2670504250589299    
  0.1709668728997702    0.1047030520564463    0.06783766719486894    0.05053094660292203    0.04557986456131683    
  0.0505309773289761    0.06783763945476223    0.10470303325754744    0.17096685499858233    0.26705039454656326    
  0.36198150730204015    0.41130606473118403    0.4203923750673817    0.32450065125111793    0.3681125270728955    
  0.42232852469090815    0.36198149830316506    0.23361792671206089    0.13372106418910654    0.07904656301887075    
  0.054426964412386335    0.047538863004651453    0.05442699099614889    0.07904657781776188    0.13372106288835628    
  0.23361791314566033    0.36198150902965015    0.422328419707612    0.36811245251792185    0.32450065125111793    
  0.13624274494478666    0.20313982581190193    0.36811245449990115    0.41130612431049635    0.28366662596176706    
  0.15812272270665037    0.08853578170515962    0.057944658572522366    0.04952601144333743    0.05794467058944734    
  0.08853574072961404    0.15812274397473483    0.28366655673528385    0.41130611253189264    0.36811252936652694    
  0.20313980589071204    0.13624274494478666    0.07598209969584478    0.13624279363386482    0.32450053906788295    
  0.420392326320877    0.30222645235259105    0.1676870715532887    0.09228083448228591    0.05938768722272367    
  0.05039138499234462    0.05938772751552916    0.09228081685745067    0.16768710265911055    0.3022263980317575    
  0.42039240837190267    0.32450057431950685    0.13624277931868706    0.07598209969584478    0.13624277003863253    
  0.20313991142549487    0.36811233962358775    0.4113060988245504    0.28366659842061903    0.1581226987472715    
  0.08853573078099725    0.057944663206178026    0.049526009523538764    0.057944689198853656    0.08853571587063858    
  0.15812268658928397    0.28366650465386994    0.41130605185468894    0.36811236196245567    0.20313985235308624    
  0.13624277003863253    0.20313982973901196    0.26795667115933663    0.39845972629414916    0.3977257911139354    
  0.26615220423556896    0.14955752239566075    0.08534515552131464    0.05685999433588616    0.048969564702810046    
  0.056860019721400604    0.0853451282723897    0.14955750442634702    0.26615223732482235    0.39772583014391644    
  0.39845976535360306    0.26795666472521806    0.20313982973901196    0.3681124403023885    0.3984598762721265    
  0.4206021955663444    0.34327525144081616    0.2199176666865937    0.12782663114154605    0.07729384354765693    
  0.05428000711441213    0.04780939214623077    0.0542800344747985    0.07729385184134467    0.12782661340858267    
  0.21991761926420864    0.34327534647952496    0.4206022220172092    0.398459751000621    0.3681124403023885    
  0.41130606990520235    0.39772580150053205    0.3432752801321064    0.25174210507623074    0.16293705054973412    
  0.10206297621814205    0.06792164428127578    0.05173060841950022    0.04707960855221132    0.05173062379953536    
  0.06792163187831464    0.10206297128544078    0.16293703425954728    0.2517421639394555    0.3432753367403849    
  0.3977257672013259    0.41130606990520235    0.28366655190311324    0.26615225699820916    0.21991764394723112    
  0.16293703558768782    0.1136873444619051    0.07998837255799866    0.060357914803140705    0.050675260749341595    
  0.04783731968009117    0.0506752720988813    0.060357904310701344    0.07998838418619383    0.11368733695448775    
  0.16293702742501634    0.21991761613886404    0.2661521565591924    0.28366655190311324    0.15812272616593231    
  0.14955749899805734    0.12782662844869935    0.10206293632870471    0.07998839263576826    0.06474650274556432    
  0.05593878514969587    0.05173061197094939    0.050530954276450483    0.05173066354770397    0.05593880647076924    
  0.06474650214562361    0.07998839031818097    0.10206295102008076    0.12782665297792012    0.149557464285751    
  0.15812272616593231    0.08853575811013548    0.0853451793212264    0.07729383248877689    0.0679216239788798    
  0.060357938380583225    0.055938791049681566    0.054350945024958415    0.0542800258049534    0.054426973068581644    
  0.05428002923437434    0.05435092796258769    0.05593879860745728    0.060357928417146586    0.06792162460116158    
  0.0772937964225294    0.08534516091536755    0.08853575811013548    0.05794466533548102    0.056860017544975806    
  0.05427999778496922    0.05173064272462413    0.050675256320475356    0.0517306364179271    0.05428003059721542    
  0.05686000351396072    0.057944657115188675    0.05686001997164782    0.054280014645267695    0.05173064583697634    
  0.050675278891324595    0.05173064082953019    0.054280018049574746    0.05685999067400028    0.05794466533548102    
  0.04952601240761922    0.048969568734443907    0.04780937792236867    0.04707959996099278    0.047837322889103306    
  0.0505309615768411    0.05442694059956909    0.05794467791462935    0.05938770049126931    0.05794470416986523    
  0.054426927237899686    0.050530957436583965    0.04783733354792273    0.047079597595690234    0.0478093815896029    
  0.048969562398924874    0.04952601240761922    0.05794467385820138    0.056860012517157166    0.05427998426876839    
  0.05173063997013178    0.05067527895587152    0.051730634610016875    0.0542800054630023    0.056859976788004654    
  0.05794467171982512    0.056860004072601604    0.054279984173894916    0.05173062669586869    0.05067527271595775    
  0.05173064235046092    0.05428002689214459    0.056860008676951936    0.05794467385820138    0.08853574296042432    
  0.0853451823124781    0.0772938471343683    0.0679216336955751    0.060357922318293504    0.05593882615388097    
  0.05435095418841573    0.05427999709846379    0.054426963009468636    0.05428003356610361    0.05435093250488585    
  0.05593877929443277    0.06035794158797358    0.0679216207269822    0.07729382698728723    0.08534515894531253    
  0.08853574296042432    0.1581227136279422    0.14955749464223536    0.12782661005724194    0.1020629651221652    
  0.0799883859566842    0.06474654852847199    0.05593882887358541    0.051730612216564366    0.050530961143665135    
  0.051730624161131326    0.05593878432911583    0.06474650452718132    0.07998840317754241    0.10206297102735797    
  0.1278266308978151    0.14955745762336103    0.1581227136279422    0.28366656516509187    0.2661522029200408    
  0.2199176302677468    0.16293702863457102    0.11368734936416901    0.07998838046486831    0.060357906535569064    
  0.05067524966605616    0.047837321798449524    0.05067528733614515    0.06035792572183402    0.07998840447903802    
  0.1136873370260062    0.16293697235386845    0.2199176417024005    0.2661521650894038    0.28366656516509187    
  0.4113061252359037    0.39772580665549906    0.3432753006432181    0.25174209531530356    0.16293703102696142    
  0.1020629509621499    0.06792164071080892    0.05173059972698203    0.04707960234171295    0.05173063728231308    
  0.06792163205835366    0.10206294188195067    0.16293702365437274    0.251742071244879    0.34327529883334945    
  0.3977257452144314    0.4113061252359037    0.3681124399104318    0.39845985066534667    0.4206021447551423    
  0.3432752753465995    0.21991767122593292    0.12782662996298835    0.07729381466950108    0.054280021072882136    
  0.047809402641299445    0.054280039192918586    0.0772938295510683    0.127826605566037    0.21991767907683485    
  0.3432752830094883    0.42060209649179114    0.3984597697684453    0.3681124399104318    0.2031398125293698    
  0.2679567339785222    0.3984597950324618    0.3977258460478064    0.26615222993211407    0.14955752170558573    
  0.08534515705631733    0.056859990475800995    0.04896955604927082    0.05686000939652584    0.08534513532855097    
  0.14955752423596078    0.2661521605064491    0.3977257804936716    0.39845986201136313    0.2679567118174805    
  0.2031398125293698    0.13624277003863253    0.20313991142549487    0.36811233962358775    0.4113060988245504    
  0.28366659842061903    0.1581226987472715    0.08853573078099725    0.057944663206178026    0.049526009523538764    
  0.057944689198853656    0.08853571587063858    0.15812268658928397    0.28366650465386994    0.41130605185468894    
  0.36811236196245567    0.20313985235308624    0.13624277003863253    0.3245006510396958    0.36811248662768253    
  0.42232845737963376    0.36198151976775217    0.23361793069319123    0.13372103752579081    0.07904656441213603    
  0.054426955880460266    0.04753885809091114    0.054426981282025305    0.07904656142950886    0.13372106791045865    
  0.23361787021156014    0.36198148882105197    0.42232846459755624    0.3681124087765215    0.3245006510396958    
  0.36811237930346336    0.3984598144881765    0.4206021308964777    0.34327526020504745    0.21991775825699844    
  0.12782665472092783    0.07729383650095134    0.05427999900509606    0.047809389911176545    0.05428002863127597    
  0.07729383558042324    0.12782665081300404    0.21991769530087915    0.3432753837444885    0.42060210245376506    
  0.3984597229293648    0.36811237930346336    0.4223285231074236    0.42060226622450336    0.3824783254064599    
  0.2876380879089229    0.18475471298162147    0.11296636516401215    0.07304170026221973    0.054350942718744764    
  0.049032552519301116    0.054350964033220824    0.07304170276630534    0.11296634172480911    0.18475471852386102    
  0.2876381712695663    0.38247832681862604    0.42060212718384504    0.4223285231074236    0.3619814886679334    
  0.34327534048732755    0.28763812481605905    0.2113072538243374    0.1425198015516614    0.09566612804096611    
  0.06888072251850644    0.05593878017074319    0.05221222228724814    0.05593879241272312    0.06888069656552323    
  0.09566610110912321    0.14251980468701925    0.21130727898812363    0.2876382378381514    0.3432753127383717    
  0.3619814886679334    0.23361795522867476    0.21991776725766435    0.1847547462393817    0.14251984828797912    
  0.10626530412750339    0.08147094737360859    0.06721008111492757    0.06035794272254649    0.05839813894009244    
  0.06035798017365485    0.0672100858626575    0.08147094617456238    0.10626530752410729    0.14251984060036618    
  0.18475470446756345    0.21991769699139255    0.23361795522867476    0.13372107423602064    0.1278266582136841    
  0.11296632489032861    0.09566607200373409    0.08147094009500594    0.07269737091687416    0.06888071252380261    
  0.06792162674502895    0.06783764119778878    0.0679216413595818    0.06888068045933841    0.07269739567008544    
  0.08147093166871663    0.09566610154880305    0.11296637333030211    0.12782659729330478    0.13372107423602064    
  0.0790466103298914    0.07729386939085989    0.07304169609018168    0.06888071542379173    0.06721009104124699    
  0.06888073649273697    0.07304168979315134    0.07729387469148667    0.07904663515562767    0.07729387527104724    
  0.07304169792873987    0.06888071958367048    0.06721009446667658    0.06888071416864382    0.07304168415816002    
  0.07729385017106509    0.0790466103298914    0.054426963455633345    0.05428001584949206    0.05435092504187479    
  0.055938808596347075    0.060357943280681586    0.06792164935959905    0.07729384069056748    0.08534512827473775    
  0.08853574167716435    0.08534517492585789    0.07729383826908322    0.0679216433963013    0.06035795757216051    
  0.055938798417235924    0.05435095457053419    0.054280007139296205    0.054426963455633345    0.04753885710591313    
  0.047809406188072265    0.04903251591708566    0.052212248169138    0.05839813062137042    0.06783766595952465    
  0.07904657162918295    0.0885357171938649    0.09228087058843171    0.08853576916533426    0.07904657967259437    
  0.06783766043275649    0.058398153228830234    0.052212215880756745    0.04903253091173424    0.047809393026947866    
  0.04753885710591313    0.05442695987500906    0.05428002900740326    0.054350914868396626    0.05593880752112748    
  0.06035794964379371    0.06792165039809697    0.07729380992997624    0.08534509968906277    0.08853571774272684    
  0.08534514771647964    0.07729382972394584    0.06792161998445097    0.06035797054648894    0.055938799854443035    
  0.054350940124508786    0.05428001935776109    0.05442695987500906    0.07904659687605417    0.07729389356289533    
  0.07304169240599168    0.0688807275409337    0.06721010387516463    0.06888070308570583    0.07304172066080102    
  0.07729380976053143    0.07904659591094743    0.0772938782056659    0.07304170836281558    0.06888067000670332    
  0.06721011196646301    0.06888071592324083    0.07304169428168057    0.07729386947203422    0.07904659687605417    
  0.13372102690358215    0.12782663550881418    0.11296632909300047    0.09566610060594707    0.08147092025055278    
  0.07269741767307146    0.06888072667857126    0.06792165419313087    0.06783765141878319    0.06792163454477423    
  0.0688806625875553    0.07269738793413835    0.0814709110908689    0.09566611163262659    0.11296636412237716    
  0.1278265992153472    0.13372102690358215    0.2336179385985791    0.21991776437417204    0.18475469880773732    
  0.1425198408958714    0.10626530655313475    0.08147095246250095    0.06721009163879085    0.06035793933784565    
  0.058398162266422644    0.06035797233559733    0.06721010635320415    0.08147097476113242    0.1062652917060926    
  0.14251981254517698    0.1847546995245033    0.21991766764822068    0.2336179385985791    0.36198150379651745    
  0.34327534877531274    0.2876381499445669    0.21130725315471544    0.14251980707335513    0.0956660926365457    
  0.06888072768528095    0.05593876682156454    0.05221223241030754    0.055938815275294616    0.06888069861557042    
  0.09566607959450704    0.1425198103845489    0.21130718144821167    0.2876382217099054    0.34327528853427003    
  0.36198150379651745    0.4223286263568908    0.4206022627935275    0.382478339320545    0.28763824917827424    
  0.18475474572108028    0.11296636794187992    0.07304168738901652    0.05435093942559243    0.049032564772323504    
  0.054350960444579315    0.07304169542135712    0.112966347053074    0.1847547084309718    0.2876382306214821    
  0.38247830157273094    0.4206022196615503    0.4223286263568908    0.36811242644357867    0.3984598598376483    
  0.4206021688357337    0.3432753151801787    0.21991772198524348    0.12782664066682528    0.07729387795079967    
  0.05428000972164164    0.04780938828697568    0.05428000418964192    0.07729384745921897    0.12782664795704493    
  0.21991768857032656    0.343275319513695    0.4206022166118932    0.3984597379313724    0.36811242644357867    
  0.3245006510396958    0.36811248662768253    0.42232845737963376    0.36198151976775217    0.23361793069319123    
  0.13372103752579081    0.07904656441213603    0.054426955880460266    0.04753885809091114    0.054426981282025305    
  0.07904656142950886    0.13372106791045865    0.23361787021156014    0.36198148882105197    0.42232846459755624    
  0.3681124087765215    0.3245006510396958    0.4203923350955877    0.4113061103397892    0.3619814078438039    
  0.26705039582290513    0.1709668377996406    0.10470305908185713    0.0678376309255404    0.05053095404273608    
  0.04557987358949038    0.05053097390195935    0.06783763696501484    0.10470304285133421    0.17096680750110618    
  0.267050414454355    0.3619814052535667    0.41130607409963654    0.4203923350955877    0.41130612313228737    
  0.39772579057614116    0.3432752428504909    0.25174207408806404    0.1629370723495298    0.10206295953794765    
  0.06792162841787591    0.05173060938323677    0.04707961084228158    0.05173063963309477    0.06792161925441816    
  0.10206295328361617    0.162937046561252    0.2517421360737962    0.3432752472443486    0.397725654191762    
  0.41130612313228737    0.3619814816701954    0.3432753996734916    0.28763821828609276    0.21130721469267227    
  0.14251979214107877    0.09566609609302242    0.06888070606956395    0.05593879727003409    0.0522122201478996    
  0.055938812320664826    0.06888070829000562    0.09566607711062557    0.1425197850664614    0.21130724269747117    
  0.2876382164048029    0.3432752233620792    0.3619814816701954    0.2670504093820903    0.2517420729948864    
  0.21130723899015366    0.16156456577413011    0.11864884389108193    0.08942957014464845    0.07269740360999016    
  0.06474647822874648    0.06252541015529531    0.064746494821924    0.07269739909425339    0.08942955322765322    
  0.1186488191446439    0.16156461136812716    0.21130727911378885    0.2517420608191708    0.2670504093820903    
  0.1709668748619583    0.16293709073857945    0.14251981110764436    0.11864882425842231    0.09909244330089052    
  0.08693884050405463    0.08147090449023232    0.0799883649541514    0.07984579103632687    0.07998841977659063    
  0.08147091605987805    0.08693881113551721    0.09909242398907166    0.11864882874700372    0.14251976268033556    
  0.16293707661025833    0.1709668748619583    0.10470306990482889    0.10206295893425353    0.09566607081886586    
  0.08942954391594013    0.08693884935837247    0.08942955673319183    0.09566608972187084    0.10206291710169481    
  0.10470304197654155    0.10206295346581115    0.09566608940738701    0.08942953389625856    0.08693884427266226    
  0.08942954415858655    0.09566610717999113    0.1020629140144342    0.10470306990482889    0.06783767122635524    
  0.06792166528240474    0.06888068586391474    0.07269739140084008    0.08147092408466812    0.09566608162929018    
  0.11296630867595411    0.1278266293395711    0.13372105104848306    0.12782667721830596    0.11296634539064117    
  0.09566608344817179    0.08147091553692813    0.0726973934299609    0.06888067376038512    0.06792162613053031    
  0.06783767122635524    0.05053095357783867    0.05173062717925363    0.05593877486127071    0.06474652077004546    
  0.07998839106955713    0.10206296233349461    0.127826629985397    0.1495574624098178    0.15812267659802737    
  0.1495575131347914    0.1278266098970998    0.10206297647295462    0.07998842424585793    0.0647465067139335    
  0.05593880855041295    0.05173061080894518    0.05053095357783867    0.04557986539149461    0.047079620602659175    
  0.05221220267345164    0.06252539577546996    0.07984576824777696    0.10470305857372154    0.1337209829863953    
  0.15812269466650986    0.16768705231133904    0.1581227140962023    0.13372100070397636    0.10470303608430233    
  0.07984577721500156    0.06252538524090305    0.0522122084670772    0.04707960290103879    0.04557986539149461    
  0.05053095631736353    0.05173064409313443    0.0559387748747587    0.06474652037671676    0.07998839898974121    
  0.10206295523029224    0.127826594477932    0.14955742885357334    0.15812273059253015    0.14955748962535534    
  0.12782661604445136    0.10206292658678232    0.07998842346360013    0.06474650047049757    0.055938806090969705    
  0.05173062164832494    0.05053095631736353    0.06783764193193241    0.067921662099677    0.06888069482849082    
  0.07269740115810552    0.08147093022185936    0.09566610549645412    0.11296635644743357    0.1278265980837345    
  0.13372104074028276    0.12782665871514795    0.112966368637278    0.0956660665737413    0.08147093467514839    
  0.0726973974536269    0.06888070363662778    0.06792164560159038    0.06783764193193241    0.10470307039066173    
  0.10206295362398392    0.09566609281847968    0.08942956348324088    0.08693883852026271    0.08942958104618379    
  0.09566611449008751    0.10206289676013358    0.10470305400427792    0.10206292026767055    0.09566608502414783    
  0.0894295347844769    0.08693885756425661    0.089429565272262    0.09566610483187857    0.10206291203286535    
  0.10470307039066173    0.17096686013626702    0.16293707730130802    0.14251979022868136    0.11864878637459673    
  0.0990924264805491    0.08693886594918654    0.08147090354343414    0.07998840436509869    0.07984579733996683    
  0.07998842247935914    0.08147095091319764    0.0869388683912429    0.09909243817191311    0.11864878627002744    
  0.14251976789033116    0.16293698232075546    0.17096686013626702    0.2670504022578398    0.2517421004403549    
  0.21130723755804226    0.16156457422551956    0.11864880394404616    0.08942954236382482    0.07269740382211812    
  0.06474647972359471    0.06252539793761645    0.0647465165049296    0.07269738126643167    0.08942955461637953    
  0.11864881026130286    0.16156457463822438    0.21130725628528393    0.25174205717623316    0.2670504022578398    
  0.3619814961547206    0.343275369875459    0.28763822881767215    0.21130724922108468    0.14251979702145362    
  0.09566610243040342    0.06888067388728183    0.05593879945026785    0.052212250058996004    0.0559388259795397    
  0.06888069474850819    0.09566608834041197    0.14251980803822054    0.21130723147368125    0.2876381398398138    
  0.3432752719099226    0.3619814961547206    0.41130601322727667    0.3977257758398783    0.34327525449069135    
  0.25174216666839744    0.16293707242751818    0.10206296179638559    0.06792164738665683    0.05173062028976337    
  0.047079598169227195    0.051730623806753494    0.06792161526179298    0.10206296793761736    0.16293702003301722    
  0.25174207797426923    0.3432753408259778    0.3977257325795762    0.41130601322727667    0.4203923350955877    
  0.4113061103397892    0.3619814078438039    0.26705039582290513    0.1709668377996406    0.10470305908185713    
  0.0678376309255404    0.05053095404273608    0.04557987358949038    0.05053097390195935    0.06783763696501484    
  0.10470304285133421    0.17096680750110618    0.267050414454355    0.3619814052535667    0.41130607409963654    
  0.4203923350955877    0.3022265035029306    0.2836665885625811    0.23361789468459754    0.17096685490351227    
  0.11676977570921478    0.07984578533848491    0.05839812133262185    0.047837321703661465    0.04474128955523115    
  0.04783733726487882    0.05839812060399858    0.07984579077846629    0.11676977629109181    0.17096688893742168    
  0.2336178951903024    0.2836665212454115    0.3022265035029306    0.2836665113828359    0.26615224678921073    
  0.21991763236362669    0.16293701830473398    0.11368741650177777    0.07998840957179597    0.06035792291543434    
  0.050675251423900926    0.047837317936228835    0.050675279777725575    0.06035791101950984    0.07998840869982299    
  0.11368739155828561    0.1629370667159769    0.21991766057480294    0.266152096257032    0.2836665113828359    
  0.2336179147898205    0.2199177240029592    0.18475471143917363    0.14251976458633853    0.10626533830173225    
  0.08147094521544607    0.06721010157387117    0.0603579371663221    0.05839814650600273    0.06035795334367648    
  0.06721011715851316    0.08147093499024526    0.1062653117415512    0.14251981776094816    0.18475475909133704    
  0.21991767135877574    0.2336179147898205    0.17096685807725712    0.16293704404502035    0.14251975418376003    
  0.11864882092549822    0.09909244626830266    0.08693888573043206    0.08147094144958238    0.0799883739754813    
  0.07984578263163811    0.07998840124982629    0.08147093446296802    0.08693885311028175    0.09909245203259433    
  0.11864884677935081    0.1425198430164718    0.16293700575102218    0.17096685807725712    0.11676977838422795    
  0.11368741223621595    0.10626532426187459    0.0990924598056058    0.09624786606971611    0.09909248635408534    
  0.1062653161835355    0.11368738328678427    0.11676977879035845    0.11368738202508943    0.10626531780176766    
  0.09909243512994849    0.09624788050788106    0.09909246982709131    0.1062653541763883    0.11368738425490746    
  0.11676977838422795    0.07984579120342844    0.07998841449097824    0.081470909402171    0.08693883710453582    
  0.09909246532533249    0.1186488068408727    0.1425198012841898    0.16293704158311054    0.17096686557092608    
  0.16293708994976017    0.14251979504864487    0.11864881286647652    0.09909245912126442    0.08693885351815134    