#     DFTpy    
  CRYSTAL 
    
  PRIMVEC    
  1.0662310037446703    -1.8467662710909307    0.0    
  1.0662310037446703    1.8467662710909307    0.0    
  0.0    0.0    3.605015416    
  PRIMCOORD    
  2    1    
  Si    1.0662310037446703    0.6155887570303101    0.901253854    
  Si    1.0662310037446705    -0.6155887570303101    2.7037615619999995    
  BEGIN_BLOCK_DATAGRID_3D    
  3d_datagrid_density    
  BEGIN_DATAGRID_3D#0    
  11    11    17    
  0.0    0.0    0.0    
  1.0662310037446703    -1.8467662710909307    0.0    
  1.0662310037446703    1.8467662710909307    0.0    
  0.0    0.0    3.605015416    
  0.42282261353231065    0.442953668400787    0.4982546265513149    0.5705545881828158    0.629470689799831    
  0.6511922956849762    0.6294706451544516    0.5705545689755634    0.4982546135544591    0.4429536914358929    
  0.42282261353231065    0.4429536784795006    0.44295508565535857    0.4805539125908271    0.5436821363391494    
  0.6073917521178979    0.6450249738754357    0.6450241461716524    0.6073942775470781    0.5436852246629112    
  0.4805512792165046    0.4429536784795006    0.49825460376150243    0.4805539665391988    0.49825317955160625    
  0.543684300005609    0.5967259903404559    0.6349778730938248    0.6479003886703861    0.6349780642703038    
  0.5967228585917405    0.5436853282785477    0.49825460376150243    0.5705546029628377    0.5436822000317373    
  0.5436841418426361    0.5705506411419621    0.607394054523382    0.6349820901150047    0.6466327915807047    
  0.6466363582770119    0.634977964329311    0.6073943958344723    0.5705546029628377    0.6294706213298131    
  0.6073916918917772    0.5967259268745166    0.6073939731133213    0.6294755314193006    0.6450205698446934    
  0.6478998720651546    0.6466327535548831    0.6479002676706184    0.6450242540945073    0.6294706213298131    
  0.651192164002215    0.6450250182529712    0.634977899028811    0.6349820632133829    0.6450206835675215    
  0.6511930658379242    0.6450205869227961    0.6349819823424807    0.6349778973680398    0.6450250699690836    
  0.651192164002215    0.6294706317761526    0.6450241688208516    0.6479002624850682    0.646632796093758    
  0.6478999477428012    0.6450205599203567    0.6294754083523004    0.6073939377746163    0.596725967689874    
  0.6073916684264159    0.6294706317761526    0.5705545926488549    0.6073944179890486    0.6349779885263064    
  0.6466362815358011    0.6466328704520653    0.6349820371880032    0.6073940327573002    0.5705506897797684    
  0.5436842040957839    0.5436822807561653    0.5705545926488549    0.4982546381094844    0.5436852683140251    
  0.5967227104122066    0.6349779527327202    0.6479003205228839    0.6349778988216266    0.5967260217085613    
  0.5436842814025257    0.49825319446034816    0.48055397130141914    0.4982546381094844    0.4429537593423366    
  0.48055117259788    0.5436851995749286    0.6073943320886183    0.6450243599961025    0.6450249039822817    
  0.607391614823835    0.5436821658950971    0.4805538915814618    0.44295515610431907    0.4429537593423366    
  0.42282261353231065    0.442953668400787    0.4982546265513149    0.5705545881828158    0.629470689799831    
  0.6511922956849762    0.6294706451544516    0.5705545689755634    0.4982546135544591    0.4429536914358929    
  0.42282261353231065    0.4521447804148382    0.4717060546229518    0.5230166574682269    0.5845578426152587    
  0.62960417996874    0.644828988908313    0.6296059933379663    0.5845596782065505    0.523013970741026    
  0.47170697313215265    0.4521447804148382    0.47170709084465584    0.4717056947272557    0.5047981161624122    
  0.5590098235760339    0.6131223504836406    0.6454510888780367    0.6454464448407963    0.6131238977906185    
  0.5590140398521048    0.5047941413813971    0.47170709084465584    0.5230139283572633    0.5088048615330115    
  0.5230144460202247    0.5590104921469176    0.6016202717658349    0.6345890400518149    0.6467299313090973    
  0.6345914269999021    0.601613870869777    0.55901412865039    0.5230139283572633    0.5845596963784624    
  0.5624644953383152    0.5624641024018512    0.584559349574243    0.6131232296673892    0.6345921452247782    
  0.645165949958612    0.6451711213394185    0.6345912974715802    0.6131240767757868    0.5845596963784624    
  0.6296060234434345    0.6022586655467778    0.5879558437146154    0.602260962277754    0.6296099072240209    
  0.6454453816331427    0.6467346525044667    0.6451659096837046    0.64672990443126    0.6454466143588715    
  0.6296060234434345    0.6448289919996317    0.6165064524422943    0.5836711879850389    0.5836733127430802    
  0.6165024750441295    0.6448276810491658    0.645445406713881    0.6345920047658173    0.6345890217259111    
  0.645451210762185    0.6448289919996317    0.6296041262036648    0.6165040970889236    0.5752969540838225    
  0.552351280487449    0.5752969612238097    0.6165024567696084    0.6296097307338515    0.613123095935236    
  0.6016201620630003    0.6131222571190705    0.6296041262036648    0.5845577383762406    0.6022679562758568    
  0.5836702590178926    0.5523545480903855    0.5523513654549677    0.5836733276793661    0.6022610030172734    
  0.5845593508171687    0.5590104866703869    0.559009909396695    0.5845577383762406    0.52301674948523    
  0.5624688233780447    0.5879462875291681    0.5836702506030709    0.5752970672659248    0.583671213244089    
  0.5879559524414306    0.5624641321382139    0.5230144940831467    0.5047982175783505    0.52301674948523    
  0.4717061410677702    0.5087990498911091    0.5624687253179665    0.6022678534969717    0.616504049741752    
  0.6165064142394141    0.6022586416921892    0.5624644206188485    0.5088047918442754    0.471705687332494    
  0.4717061410677702    0.4521447804148382    0.4717060546229518    0.5230166574682269    0.5845578426152587    
  0.62960417996874    0.644828988908313    0.6296059933379663    0.5845596782065505    0.523013970741026    
  0.47170697313215265    0.4521447804148382    0.5286532925365127    0.5454601532434916    0.5822408269493541    
  0.6086063581056964    0.6101708008262798    0.6054263213766126    0.6101583101974699    0.6086065057822737    
  0.5822473821228681    0.5454596426016728    0.5286532925365127    0.5454595936254824    0.5454584034951955    
  0.5722319893363987    0.6094174258166177    0.6379986908668225    0.6505607167710428    0.6505638487943783    
  0.6380051919422621    0.609420798323902    0.5722235723361814    0.5454595936254824    0.582247350380043    
  0.5700498351460691    0.5822384174103408    0.6094210746972585    0.6344479055621713    0.6484637925495834    
  0.6524283540389367    0.6484654700138689    0.6344420877811238    0.6094208171191352    0.582247350380043    
  0.6086064471132216    0.5797520649407787    0.5797672769866459    0.6086062171010038    0.6379997845560073    
  0.6484691492778851    0.6471856211860958    0.6471875900902931    0.6484654242864843    0.6380053465023013    
  0.6086064471132216    0.6101583194119444    0.5442437179194214    0.5118227448181822    0.5442411753452876    
  0.6101703701461613    0.650560714493869    0.6524288317603472    0.6471856519360508    0.6524282117079678    
  0.6505639846291466    0.6101583194119444    0.6054262276109692    0.4991723747689914    0.4105389518646428    
  0.41053591734878986    0.49916228943638447    0.6054257117101459    0.6505607992662619    0.6484691268127734    
  0.6484638023296996    0.6505607398164933    0.6054262276109692    0.6101707184874371    0.49916760797184206    
  0.3648063261301888    0.30958732189772487    0.3648173937605842    0.49916216765417665    0.6101702664254802    
  0.6379996188401864    0.6344478347885331    0.6379986052118493    0.6101707184874371    0.6086062821442882    
  0.5442423894842071    0.41053793518954523    0.30959353249036675    0.30958736727726854    0.41053587754412824    
  0.5442412435214908    0.6086062569605833    0.6094210391391096    0.6094175221318308    0.6086062821442882    
  0.5822408785670723    0.5797707358983015    0.5118151268157022    0.4105379497916927    0.36480637679158867    
  0.4105389765365329    0.5118228494194286    0.5797673220432676    0.5822384391010071    0.5722320349694126    
  0.5822408785670723    0.5454602463183549    0.5700413917471212    0.5797706381999943    0.5442422479026532    
  0.4991676519671936    0.4991723281656296    0.544243655839319    0.5797519874123442    0.5700497509716791    
  0.5454584829946003    0.5454602463183549    0.5286532925365127    0.5454601532434916    0.5822408269493541    
  0.6086063581056964    0.6101708008262798    0.6054263213766126    0.6101583101974699    0.6086065057822737    
  0.5822473821228681    0.5454596426016728    0.5286532925365127    0.6178339958012802    0.6285158894433044    
  0.6406564483817042    0.6166918830409479    0.5627151497560067    0.5343958034035071    0.562724665816448    
  0.6166850379127835    0.6406538558213953    0.6285166183546412    0.6178339958012802    0.6285167186055393    
  0.62851788392025    0.6462639764187635    0.6627509194309577    0.6613982783003235    0.6503693445298762    
  0.6503718192827194    0.661383576381028    0.6627564469200314    0.6462713842012134    0.6285167186055393    
  0.6406538671512648    0.6291868775381007    0.6406601346327236    0.6627560543795872    0.6746877083454824    
  0.6723039268226337    0.6685792084138652    0.6723097216156666    0.6747025379416457    0.6627565609149734    
  0.6406538671512648    0.6166850071538825    0.5719636456440274    0.5719642922295067    0.6166855208024035    
  0.6614065239093725    0.6722991326195262    0.6640820605348314    0.6640622614633734    0.6723096145588866    
  0.6613837416923969    0.6166850071538825    0.5627246873804969    0.4471089984858701    0.3964662443007133    
  0.4471144909197709    0.5627064464907104    0.650385480640302    0.6685697166723499    0.6640820293838019    
  0.668579063668168    0.6503719436510967    0.5627246873804969    0.5343957952653571    0.3492195897470973    
  0.23032208377766375    0.2303152633488326    0.34923669733776047    0.5343740515761923    0.6503855407899736    
  0.6722991393354875    0.6723039226600147    0.6503694124574603    0.5343957952653571    0.5627151519226143    
  0.34923077161592897    0.17323020604192815    0.11932190613887285    0.17322002116121055    0.34923665721792485    
  0.5627062621243365    0.6614063576079193    0.6746875783393795    0.6613982066642206    0.5627151519226143    
  0.6166917538942658    0.4471090674576185    0.23032455646000938    0.11930624120821488    0.11932194916950552    
  0.23031526104168143    0.44711457581620845    0.6166855183133223    0.6627560568640851    0.6627509908874267    
  0.6166917538942658    0.6406565774611895    0.5719701827074537    0.3964638024140996    0.23032452653047916    
  0.17323026395275204    0.23032208989909378    0.39646628754328916    0.5719643076513204    0.6406601620933795    
  0.6462641008234933    0.6406565774611895    0.6285160043042278    0.6291856709641804    0.5719701061684457    
  0.4471089455091298    0.3492308003233096    0.34921957108944435    0.44710889312384133    0.5719635503537684    
  0.6291867494242608    0.6285178491048337    0.6285160043042278    0.6178339958012802    0.6285158894433044    
  0.6406564483817042    0.6166918830409479    0.5627151497560067    0.5343958034035071    0.562724665816448    
  0.6166850379127835    0.6406538558213953    0.6285166183546412    0.6178339958012802    0.6602102603787391    
  0.6668177063294406    0.6646753021407412    0.6149099763468703    0.5354837940685029    0.49733545166997867    
  0.535523147483572    0.6148975220001136    0.6646557558432038    0.666821883585033    0.6602102603787391    
  0.6668218827205595    0.6668333943843113    0.6789830465631423    0.6846806183655629    0.6690706388153771    
  0.6471360969932373    0.6471412281165999    0.6690266764768447    0.6846872569038845    0.6790149305802226    
  0.6668218827205595    0.6646557008487872    0.6536671192166824    0.6646774800192485    0.684691942413665    
  0.6918154364393038    0.683375405041919    0.6767557679619605    0.6833762285727916    0.6918634486694152    
  0.6846873470510106    0.6646557008487872    0.614897539622628    0.5622865755215657    0.5622673855214467    
  0.6149004319113897    0.6690805658120619    0.6833554034029827    0.6740978144282666    0.6740712579955369    
  0.6833761547137907    0.6690267832077444    0.614897539622628    0.5355231379195904    0.4004382997771967    
  0.3443727495311962    0.4004479970408369    0.5354718871322076    0.647169613265344    0.6767426596946571    
  0.6740978180633501    0.6767556069421047    0.6471413570849481    0.5355231379195904    0.4973353988383844    
  0.2870891082033612    0.16747668261783397    0.16747080395752043    0.28713502821448944    0.49728985910867907    
  0.6471696758113924    0.6833552819033123    0.6833754420096291    0.6471361654345441    0.4973353988383844    
  0.5354837813703093    0.28711880085273384    0.11405451723178507    0.06884359866645962    0.11402578697336974    
  0.28713496872207933    0.5354718010869642    0.6690804070345362    0.6918154291617861    0.6690705471134215    
  0.5354837813703093    0.6149100076548418    0.40044207492159345    0.16747928130663914    0.06881716641304261    
  0.06884362752022136    0.16747080073561338    0.4004480358991275    0.6149004503717757    0.6846918220494532    
  0.6846806436889965    0.6149100076548418    0.664675334956369    0.5622690185852086    0.34438177367435874    
  0.1674792844509762    0.11405453164282327    0.167476675198125    0.34437282118800294    0.5622674529146777    
  0.6646775204849137    0.6789831851603976    0.664675334956369    0.6668178342977968    0.6536814210678372    
  0.5622689816828809    0.40044200603403085    0.2871188846275577    0.28708902583889034    0.40043824222433466    
  0.5622865478870884    0.6536670589349507    0.6668334620793503    0.6668178342977968    0.6602102603787391    
  0.6668177063294406    0.6646753021407412    0.6149099763468703    0.5354837940685029    0.49733545166997867    
  0.535523147483572    0.6148975220001136    0.6646557558432038    0.666821883585033    0.6602102603787391    
  0.6178339557040385    0.6285159434558891    0.6406564654228438    0.6166918111991503    0.5627151676354353    
  0.5343958052030311    0.5627246636681095    0.6166850068501026    0.6406538516090252    0.628516653833687    
  0.6178339557040385    0.6285167069677199    0.6285178379904547    0.6462639922064591    0.6627509723762869    
  0.6613982629413152    0.6503693707887509    0.6503718085731445    0.6613835655033694    0.6627564206433425    
  0.6462713835277922    0.6285167069677199    0.6406537559831534    0.6291868523386106    0.6406601584551819    
  0.6627561016617373    0.6746876743883383    0.6723039633417403    0.6685791376305859    0.6723097501473184    
  0.6747025299709136    0.6627566111178945    0.6406537559831534    0.6166850397005202    0.5719636038729952    
  0.5719643185585657    0.6166855527374645    0.661406513725319    0.6722991343294207    0.6640821102557187    
  0.6640622520316533    0.6723096176366369    0.6613837212032421    0.6166850397005202    0.5627247071640001    
  0.447108989785291    0.396466199472303    0.4471145083235133    0.5627064380280524    0.6503854935550565    
  0.6685697705080946    0.6640820717602114    0.6685790454870972    0.6503719304629375    0.5627247071640001    
  0.5343957824840846    0.3492195908568079    0.2303220933120164    0.23031526210837128    0.34923669098871263    
  0.5343740480421956    0.6503855112132464    0.6722990479768298    0.6723039799882422    0.6503694621442649    
  0.5343957824840846    0.5627151207591575    0.3492308054077245    0.17323021024048568    0.11932191930385162    
  0.1732200636925026    0.349236622445319    0.5627063001062826    0.6614064236817178    0.674687554332463    
  0.6613981642639718    0.5627151207591575    0.6166917866540942    0.4471090300432311    0.23032453412137338    
  0.11930623105204687    0.11932197586718993    0.23031526598669955    0.4471145554019867    0.6166855555598764    
  0.6627560558900637    0.6627510454516903    0.6166917866540942    0.6406565846023334    0.5719702307237523    
  0.3964637739894563    0.23032453442184542    0.17323024538846357    0.23032207533696558    0.3964663018484041    
  0.5719643691367333    0.6406601618911307    0.6462641029772372    0.6406565846023334    0.6285160101865025    
  0.6291856281980222    0.5719700869262863    0.4471089764858343    0.349230793889666    0.3492195425797131    
  0.4471089238085815    0.5719635289665492    0.6291867432219073    0.6285178869274944    0.6285160101865025    
  0.6178339557040385    0.6285159434558891    0.6406564654228438    0.6166918111991503    0.5627151676354353    
  0.5343958052030311    0.5627246636681095    0.6166850068501026    0.6406538516090252    0.628516653833687    
  0.6178339557040385    0.5286532915869981    0.5454601257295082    0.5822407942436688    0.6086063581486183    
  0.610170734321643    0.6054262947723695    0.6101582923766762    0.6086064577034856    0.5822473878209087    
  0.5454596247391835    0.5286532915869981    0.5454595946826593    0.5454584508670423    0.5722319554966769    
  0.6094174264050511    0.6379986859685668    0.650560668700596    0.6505638457306699    0.6380051634061003    
  0.6094208233245464    0.5722235755115282    0.5454595946826593    0.5822472948599181    0.570049810519603    
  0.5822384080066572    0.6094210679309433    0.6344478973162041    0.6484637946175886    0.6524283081712668    
  0.6484654336888832    0.6344420357935586    0.6094208813396264    0.5822472948599181    0.6086064581779933    
  0.5797520506349709    0.5797672746716604    0.6086062150253023    0.6379997846648424    0.6484691501051828    
  0.6471856369488096    0.6471875972778635    0.6484654123521066    0.6380053121174708    0.6086064581779933    
  0.6101583269425811    0.5442437333899761    0.5118227487341109    0.5442411612317165    0.6101703731683692    
  0.6505607430641517    0.6524288127185511    0.6471856487490891    0.652428164868303    0.6505639853005029    
  0.6101583269425811    0.6054262481493606    0.49917234093527924    0.41053895534994683    0.41053592256764215    
  0.4991622879073712    0.6054257307814364    0.6505607915249709    0.648469142992628    0.6484638176585602    
  0.6505607911563209    0.6054262481493606    0.6101707205019266    0.49916761446894725    0.36480631499483307    
  0.3095873195600366    0.36481739314674944    0.4991621913421066    0.610170283700259    0.6379996357032305    
  0.6344478094828235    0.637998563110513    0.6101707205019266    0.6086063027953125    0.5442423657718176    
  0.41053794269637495    0.3095935195373933    0.3095873693921383    0.4105359161158917    0.5442412306353897    
  0.6086062802257542    0.609421040429146    0.6094175008841568    0.6086063027953125    0.582240852682459    
  0.5797707466310308    0.5118150949764352    0.4105379641258002    0.36480635699806624    0.4105389396735908    
  0.5118228142446242    0.5797673441578025    0.5822384163590619    0.5722320121641024    0.582240852682459    
  0.545460221742049    0.5700414349583108    0.5797706902314299    0.5442422842442806    0.4991676278224502    
  0.49917232969211234    0.544243648121683    0.5797519711931726    0.5700497614763442    0.5454585063366442    
  0.545460221742049    0.5286532915869981    0.5454601257295082    0.5822407942436688    0.6086063581486183    
  0.610170734321643    0.6054262947723695    0.6101582923766762    0.6086064577034856    0.5822473878209087    
  0.5454596247391835    0.5286532915869981    0.4521448205747243    0.4717060679781722    0.5230166424405999    
  0.5845578921176395    0.6296041592545102    0.6448290495377028    0.6296060472531299    0.5845596802929717    
  0.5230139640491007    0.47170696166616666    0.4521448205747243    0.4717070366677709    0.4717056826822745    
  0.5047980998849126    0.5590098687740864    0.6131223742031456    0.6454510986657875    0.645446519203591    
  0.6131239720831695    0.5590140262018057    0.5047940814028166    0.4717070366677709    0.5230139662778477    
  0.508804864672415    0.5230144786981183    0.5590104545482928    0.6016203043898631    0.6345890308533355    
  0.6467299750017782    0.6345914133218984    0.6016138713306566    0.5590141668350179    0.5230139662778477    
  0.5845597218810632    0.5624645180186504    0.5624640888544808    0.5845593651528947    0.6131231925040004    
  0.634592159202063    0.6451659419039538    0.6451711733598324    0.6345913068300768    0.6131241138769132    
  0.5845597218810632    0.6296060371477786    0.6022587254161755    0.587955895981947    0.6022609681058969    
  0.6296099132627173    0.6454454019124465    0.6467346135113671    0.6451659211814457    0.6467298521157425    
  0.6454465745835155    0.6296060371477786    0.6448289501319728    0.6165064434010419    0.5836711540936785    
  0.5836733280854298    0.6165024929474552    0.6448276352501244    0.6454454715293874    0.634592082462887    
  0.634589019477222    0.6454511678913771    0.6448289501319728    0.6296041666897225    0.6165039930719592    
  0.5752970075953244    0.5523512662543391    0.5752969130685731    0.616502427057675    0.6296097823146195    
  0.6131231140593993    0.6016202026177676    0.613122270807091    0.6296041666897225    0.584557776811522    
  0.6022679715860001    0.5836702888320341    0.5523546055587714    0.5523513587169383    0.5836732954501616    
  0.6022609836369972    0.5845593212388729    0.5590104778085283    0.5590098986313137    0.584557776811522    
  0.5230167359939096    0.5624688174515199    0.5879463061218738    0.583670267891694    0.5752970810860414    
  0.5836712173032238    0.5879559549530743    0.5624640865737659    0.5230145175377195    0.5047982047454191    
  0.5230167359939096    0.4717061517571572    0.5087990287475258    0.5624687326401705    0.6022678814447124    
  0.6165040231165828    0.6165064207169122    0.6022585725451174    0.5624644024736367    0.5088047981916494    
  0.47170570894251007    0.4717061517571572    0.4521448205747243    0.4717060679781722    0.5230166424405999    
  0.5845578921176395    0.6296041592545102    0.6448290495377028    0.6296060472531299    0.5845596802929717    
  0.5230139640491007    0.47170696166616666    0.4521448205747243    0.4228226177158885    0.4429536799872873    
  0.4982546181485794    0.5705545812907615    0.6294706924511624    0.651192276531547    0.6294706344933368    
  0.5705545703824557    0.49825461207228994    0.44295369356611397    0.4228226177158885    0.4429536942393105    
  0.44295509129683297    0.4805539055712331    0.5436821494765359    0.6073917422243826    0.6450249660664684    
  0.6450241302865576    0.6073942865344905    0.5436852270451462    0.4805512740650179    0.4429536942393105    
  0.4982546042188322    0.48055397184272064    0.4982531739651958    0.5436843011165061    0.5967260008995081    
  0.634977880914854    0.6479003782399599    0.6349780693191195    0.5967228657361016    0.5436853309178367    
  0.4982546042188322    0.570554605052501    0.5436821952376084    0.5436841545717436    0.5705506401950788    
  0.6073940577650058    0.6349820874193107    0.6466328038167162    0.6466363709538563    0.6349779594462336    
  0.6073943979139584    0.570554605052501    0.6294706249303976    0.6073916927897168    0.5967259231923959    
  0.6073939559185302    0.629475546893833    0.6450205771523503    0.6478998774474164    0.6466327527359418    
  0.6479002638550644    0.6450242536841244    0.6294706249303976    0.6511921692408298    0.6450250024340008    
  0.6349778903182035    0.6349820730141714    0.6450207011527844    0.6511930635701177    0.6450205977933507    
  0.6349819770366418    0.6349778950204001    0.6450250755870895    0.6511921692408298    0.6294706240838768    
  0.6450241549066038    0.6479002560344368    0.6466327936769897    0.6478999671220126    0.6450205441599461    
  0.6294754293953576    0.6073939301210018    0.5967259772053066    0.6073916717681986    0.6294706240838768    
  0.5705545950125714    0.607394406272767    0.6349779832253691    0.6466362662455688    0.6466328691412893    
  0.6349820442190595    0.6073940652813132    0.5705506773508872    0.5436842030630344    0.5436822803217656    
  0.5705545950125714    0.49825462807198795    0.5436852639232748    0.596722718999094    0.6349779494273518    
  0.6479003072283349    0.634977888212666    0.5967260104150262    0.5436842905474242    0.4982532059801754    
  0.48055398862724436    0.49825462807198795    0.4429537544746199    0.48055116324329394    0.5436851971117326    
  0.6073943233296626    0.6450243340650421    0.6450249041494522    0.6073916109584019    0.5436821654520356    
  0.48055388606619825    0.44295514885847254    0.4429537544746199    0.4228226177158885    0.4429536799872873    
  0.4982546181485794    0.5705545812907615    0.6294706924511624    0.651192276531547    0.6294706344933368    
  0.5705545703824557    0.49825461207228994    0.44295369356611397    0.4228226177158885    0.4521447900090152    
  0.47170698925219773    0.5230139210899443    0.5845597195940332    0.62960610661815    0.6448289796885792    
  0.6296040514111744    0.5845578014136126    0.5230167252052272    0.4717060371458315    0.4521447900090152    
  0.4717061652576552    0.4717056944410896    0.5088048342525507    0.5624644219454944    0.6022587087639298    
  0.6165064603042928    0.6165038802133067    0.6022677818447963    0.5624687404274545    0.5087990572437434    
  0.4717061652576552    0.5230166664459213    0.5047981332038554    0.523014444735486    0.5624640762294906    
  0.5879559211247758    0.5836712153552663    0.575297004717794    0.5836703940412955    0.5879463678045945    
  0.5624688268260366    0.5230166664459213    0.5845578332507758    0.5590098900314167    0.5590104953052237    
  0.5845593572022061    0.6022610023152966    0.583673372658639    0.5523513121730701    0.552354567124149    
  0.5836702548739883    0.6022679247184786    0.5845578332507758    0.6296040886582941    0.6131222846082028    
  0.6016201764861572    0.6131231848337246    0.6296099239536034    0.6165023988655123    0.5752969360426189    
  0.5523513033171258    0.5752969794214657    0.6165040340632992    0.6296040886582941    0.6448290057459842    
  0.645451077990309    0.6345890033853635    0.6345920755208915    0.6454454446377604    0.6448276746543606    
  0.6165024180977192    0.583673254095189    0.5836711890617456    0.6165065662187846    0.6448290057459842    
  0.6296060717686698    0.645446658848021    0.646729876747234    0.6451658854536456    0.6467346687182697    
  0.6454454248614402    0.6296097556523279    0.6022608687003737    0.5879558507354096    0.6022586014084496    
  0.6296060717686698    0.5845596199493457    0.6131241181996032    0.6345913117895599    0.6451711293748729    
  0.6451659891305225    0.6345920972116821    0.6131232318378104    0.5845593634487722    0.5624640897736864    
  0.562464505494113    0.5845596199493457    0.5230140069439194    0.5590141180729253    0.6016137908164252    
  0.6345912861492305    0.6467300036772885    0.6345890334481279    0.6016203130577008    0.5590105374677714    
  0.5230145030271175    0.5088049396709192    0.5230140069439194    0.47170706830368525    0.5047941367018685    
  0.5590140207067202    0.6131240217503592    0.6454466067380197    0.6454510499492627    0.6131222715643094    
  0.5590098361838953    0.5047980755163366    0.4717056843785644    0.47170706830368525    0.4521447900090152    
  0.47170698925219773    0.5230139210899443    0.5845597195940332    0.62960610661815    0.6448289796885792    
  0.6296040514111744    0.5845578014136126    0.5230167252052272    0.4717060371458315    0.4521447900090152    
  0.5286532978693573    0.5454596444396649    0.5822473426365271    0.6086064304242067    0.6101583982913226    
  0.605426311440814    0.6101706703996145    0.608606425201745    0.582240864219246    0.5454601535601348    
  0.5286532978693573    0.5454601037516322    0.5454584006481429    0.5700498440139744    0.5797519669301374    
  0.5442437662283917    0.49917233261704536    0.4991675420216187    0.5442422831718763    0.5797706967969828    
  0.5700414800484875    0.5454601037516322    0.5822408221516102    0.5722319821821991    0.5822384065470534    
  0.5797673128162095    0.5118228465247698    0.41053894299235044    0.3648063859551555    0.4105379782913044    
  0.5118151516097615    0.5797707147137232    0.5822408221516102    0.6086063889043964    0.6094175109830126    
  0.6094210119791815    0.6086062152276264    0.5442413005129955    0.41053589295935994    0.3095872829282526    
  0.3095935083941128    0.4105379272650761    0.5442424224701503    0.6086063889043964    0.6101707059105627    
  0.6379986393219207    0.6344477921886643    0.6379996600001264    0.610170383550464    0.4991621561556041    
  0.36481738128688074    0.30958730447960986    0.36480628310761165    0.49916765503223776    0.6101707059105627    
  0.6054262333020329    0.6505607455580796    0.6484637823135433    0.6484691856632455    0.6505608751945304    
  0.605425708457479    0.49916222976332947    0.4105358705825242    0.4105389415839857    0.4991723667591381    
  0.6054262333020329    0.6101583407508228    0.6505639347150938    0.6524282799378472    0.6471856622417345    
  0.6524288749991084    0.6505607321425662    0.6101702826217769    0.5442411616144477    0.5118228119640855    
  0.5442436892823342    0.6101583407508228    0.6086063443128767    0.6380053204848642    0.6484654771588941    
  0.647187619389797    0.647185724459535    0.6484691261106648    0.637999725308417    0.6086062860021878    
  0.579767317706409    0.5797520542143559    0.6086063443128767    0.582247401281731    0.6094208443603639    