#     DFTpy    
  CRYSTAL 
    
  PRIMVEC    
  3.124199848173254    1.3070494433509656e-05    -3.2770137931034487e-13    
  -1.5620886047057494    2.7056430485047627    -6.411637931034484e-12    
  -5.38864827586207e-13    -1.2484413103448277e-11    5.136669982842293    
  PRIMCOORD    
  4    1    
  Si    7.777334533807858e-06    1.8037662613772263    2.888728772537123    
  Si    1.5621034661293096    0.9018898575998385    0.3203937431856071    
  Si    7.777335707549907e-06    1.803766261376482    4.8162762017238006    
  Si    1.5621034661343793    0.9018898576198766    2.247941248224577    
  BEGIN_BLOCK_DATAGRID_3D    
  3d_datagrid_density    
  BEGIN_DATAGRID_3D#0    
  15    15    23    
  0.0    0.0    0.0    
  3.124199848173254    1.3070494433509656e-05    -3.2770137931034487e-13    
  -1.5620886047057494    2.7056430485047627    -6.411637931034484e-12    
  -5.38864827586207e-13    -1.2484413103448277e-11    5.136669982842293    
  0.15285159254681532    0.1698290015472777    0.22448225397766125    0.32653467999740204    0.48056137528696746    
  0.6610594107231035    0.8078302884951619    0.8638527676884696    0.8078302135334311    0.6610593061750187    
  0.4805613385822907    0.32653465135952103    0.22448227055435832    0.169828941425144    0.15285159254681532    
  0.1698289404430483    0.16982072244304047    0.20562979008614446    0.28356362953715214    0.4089889801467042    
  0.5649179596026856    0.6996691872597207    0.7696019583588998    0.7696472531796088    0.6996651506520593    
  0.5648800621974729    0.4090040926789278    0.28357452135659555    0.20561586333625934    0.1698289404430483    
  0.22448229009934806    0.20562979182109123    0.22447801690700794    0.2835650121454471    0.3833125935578769    
  0.49944658768571254    0.5695382814017107    0.5659162132208294    0.5497440053259769    0.5659056614055317    
  0.5695766037704795    0.49945968816324265    0.3832720053660253    0.2835745914773607    0.22448229009934806    
  0.3265346120634948    0.28356365384968235    0.283565027299019    0.3265503236077279    0.4089742548765699    
  0.499447971606167    0.5154053896038425    0.41947306057421024    0.32288264140422646    0.32287118250854074    
  0.4194432981012413    0.5153731235218321    0.499459595532533    0.40900413788633816    0.3265346120634948    
  0.4805614014384503    0.40898901902967316    0.3833125840130333    0.4089742254953897    0.4806009662754934    
  0.5648895519048177    0.5695776211774922    0.4194590705748564    0.242441584923009    0.1786967696599562    
  0.24245654055433508    0.41944335623944556    0.5695766200616968    0.5648800332473506    0.4805614014384503    
  0.6610594735750095    0.5649180762000443    0.49944652742437584    0.499447981214187    0.5648896419076948    
  0.6610555307892148    0.6996969780993016    0.5659050049695595    0.32288773766110596    0.1786958264883482    
  0.17869677671920334    0.32287124969484476    0.5659057295239688    0.6996651934317033    0.6610594735750095    
  0.8078301794832498    0.6996691000233874    0.5695382007690716    0.515405380964072    0.5695775465974078    
  0.6996970125520653    0.8078017204832415    0.7696655653930589    0.5497426151063236    0.3228876719056393    
  0.2424416167335106    0.3228827079692435    0.5497439175133217    0.7696471907533468    0.8078301794832498    
  0.8638526835541549    0.7696020391849102    0.5659162875480007    0.41947310526024917    0.41945910365549943    
  0.5659050395920002    0.7696657289466567    0.8638395776590627    0.7696656243557326    0.5659049548476717    
  0.4194591017729543    0.4194730976395345    0.5659161880461667    0.7696019561263342    0.8638526835541549    
  0.8078304075964704    0.7696471702175082    0.5497439775149123    0.3228827207734974    0.2424416054218588    
  0.3228877556622393    0.5497425246414813    0.7696656410569858    0.8078018339540816    0.6996969744347584    
  0.5695776471618844    0.515405396267291    0.5695382497706952    0.699669179978214    0.8078304075964704    
  0.6610594192835483    0.6996651668376278    0.5659058086993622    0.32287123140038787    0.17869682764183173    
  0.17869586106395915    0.32288772452506936    0.5659049866653918    0.6996970503681109    0.6610555023933652    
  0.5648895700368153    0.49944802155489454    0.4994465344769718    0.5649181109862339    0.6610594192835483    
  0.4805613763743298    0.5648800054090668    0.5695766443925585    0.4194433543549123    0.24245660699098892    
  0.17869678304303438    0.24244165862020323    0.41945911570105343    0.5695775711645488    0.5648896822869878    
  0.4806009166563149    0.4089742914775144    0.38331252236785107    0.4089889902045249    0.4805613763743298    
  0.3265345871965132    0.4090041385698784    0.49945961142987916    0.5153730546399992    0.41944331862892903    
  0.32287124743002    0.322882697755077    0.4194730574565757    0.515405346869507    0.4994479783127734    
  0.4089741817897616    0.3265503373236612    0.28356496755686744    0.2835636081917278    0.3265345871965132    
  0.22448225551716638    0.28357458543114356    0.3832720017445003    0.4994597030344956    0.5695766005396034    
  0.565905761302475    0.5497440091583686    0.5659162424437643    0.5695382324946734    0.4994464681153222    
  0.38331252371586344    0.2835650661154384    0.22447802848557433    0.20562980625427915    0.22448225551716638    
  0.16982894309644656    0.20561586250678687    0.2835745410485768    0.4090040752594225    0.5648800263235869    
  0.6996651932965663    0.7696471431816878    0.7696020123298805    0.6996691680293344    0.5649180058936962    
  0.4089889849487807    0.28356365464143635    0.2056298002060474    0.16982071041818098    0.16982894309644656    
  0.15285159254681532    0.1698290015472777    0.22448225397766125    0.32653467999740204    0.48056137528696746    
  0.6610594107231035    0.8078302884951619    0.8638527676884696    0.8078302135334311    0.6610593061750187    
  0.4805613385822907    0.32653465135952103    0.22448227055435832    0.169828941425144    0.15285159254681532    
  0.1491253214777078    0.16491018481680123    0.21568503191742958    0.3101467147070277    0.45170395552060016    
  0.6158218962686054    0.7475247832932261    0.7972577204377082    0.7475204010643482    0.6158063197285317    
  0.45169980151307376    0.31015834313674817    0.21567437152155483    0.16491177180699346    0.1491253214777078    
  0.16491177363516077    0.16490528787223713    0.19924847212899427    0.27427194321456716    0.39295132176309716    
  0.5314407817293254    0.6349535532838931    0.6767706286119314    0.6767925251700652    0.6349715659250654    
  0.5314301170227064    0.3929441336129963    0.2742881264610325    0.19924144067184207    0.16491177363516077    
  0.21567439898224638    0.19708685347384097    0.21567544024567264    0.27427976264490855    0.3715362517749093    
  0.4721431811755466    0.5007418036667319    0.4504568777802367    0.4162211823146952    0.45045306155179277    
  0.5007410424580662    0.47217291332937017    0.3715045498412094    0.2742881817917988    0.21567439898224638    
  0.3101583092052277    0.26651834610579395    0.2665157374242633    0.3101644081211961    0.39293331942655413    
  0.4721485853988904    0.4441442462396945    0.29894011607473336    0.19019493067269896    0.19018796993563408    
  0.2989421417821314    0.4441000591558071    0.47217288438017196    0.3929441120516645    0.3101583092052277    
  0.4516997981288745    0.37923884630492016    0.35332532298075403    0.37923214452362    0.4517239514279141    
  0.5314302911324981    0.5007519411725738    0.2989438947328904    0.12291440108537298    0.07384896558264421    
  0.12290424490803852    0.29894219255184007    0.5007410134183177    0.5314300966274781    0.4516997981288745    
  0.6158064491166924    0.5261756388211067    0.4663046975727737    0.4663038850382108    0.526162274585472    
  0.6158111622486985    0.6349833991499741    0.4504545615338252    0.1901999204277238    0.07383427340778739    
  0.0738489533446659    0.19018801158063037    0.4504530499929953    0.6349715989334899    0.6158064491166924    
  0.7475203849958587    0.6674871030435215    0.5698158952572999    0.5300653385234197    0.5698429772752662    
  0.6675108438358619    0.7475058885382639    0.676808076590932    0.41622004270250207    0.1901998880308772    
  0.12291442972092836    0.19019496289464682    0.4162211199853042    0.6767923710897877    0.7475203849958587    
  0.7972576421332235    0.7526738626819569    0.6267874623346247    0.530024275371128    0.5300085746641995    
  0.6267852440914765    0.7527081841940232    0.7972657770141698    0.6768080850000726    0.4504546731934047    
  0.2989438807448905    0.2989401637994573    0.4504568736379452    0.6767705647378698    0.7972576421332235    
  0.747524831953031    0.7527024133728706    0.6410623319249654    0.49773529331967714    0.4363733659104135    
  0.49773905765442333    0.6410772748899989    0.7527081241698221    0.7475060520984601    0.6349833943624368    
  0.5007519584747459    0.44414417772811887    0.5007417343277318    0.6349536197670512    0.747524831953031    
  0.6158219285368451    0.6674848978169604    0.6267722106183522    0.49773685523037203    0.38995453729970664    
  0.38997132176030563    0.49773899812162825    0.6267852639393044    0.6675108311283978    0.6158110841157644    
  0.5314303245636097    0.47214868137133503    0.47214320839929735    0.5314408181479613    0.6158219285368451    
  0.4517039408642696    0.5261428609102365    0.569843372068838    0.5299912477840392    0.4363886437313747    
  0.3899545002870912    0.4363733785529603    0.5300086071184286    0.5698430426582992    0.526162221046588    
  0.45172389007104413    0.3929333085508001    0.3715361915706617    0.39295132481504724    0.4517039408642696    
  0.3101466264009458    0.3792506004017394    0.46630195417133313    0.5300566523509861    0.5299912599790333    
  0.4977368952757275    0.4977352214325385    0.530024231988308    0.530065243612314    0.4663037493891795    
  0.3792320995038334    0.31016442169678493    0.2742797192222664    0.27427191457220823    0.3101466264009458    
  0.21568500520569436    0.2665204874513486    0.3533091422570945    0.4663019289111847    0.5698433608734701    
  0.6267721281913643    0.6410623103907638    0.6267874428675915    0.5698159528906953    0.46630460263593326    
  0.3533252756302943    0.266515803517639    0.21567543828324368    0.1992484674903279    0.21568500520569436    
  0.16491014047183453    0.19707282466120382    0.2665204489939267    0.3792505791776441    0.5261428074172583    
  0.6674848900273579    0.7527023791912614    0.7526738153634032    0.6674871771871014    0.52617561295591    
  0.3792388304064522    0.26651833863004454    0.19708681572288325    0.16490529402481682    0.16491014047183453    
  0.1491253214777078    0.16491018481680123    0.21568503191742958    0.3101467147070277    0.45170395552060016    
  0.6158218962686054    0.7475247832932261    0.7972577204377082    0.7475204010643482    0.6158063197285317    
  0.45169980151307376    0.31015834313674817    0.21567437152155483    0.16491177180699346    0.1491253214777078    
  0.13901617688111345    0.15206051782932586    0.19373878865531108    0.2701322341713283    0.38234128615828505    
  0.5103806082172534    0.6121791358200113    0.6504155729758206    0.6121517950030929    0.5103689947758486    
  0.382356407963022    0.2701412732276466    0.19372945721734333    0.15206091424012153    0.13901617688111345    
  0.15206093637526502    0.15205474258670656    0.1817936923444279    0.24621801463239976    0.346843556127164    
  0.46274970372296526    0.5478255884422147    0.5807778319862938    0.5808046843383352    0.5478533783366877    
  0.46273480504407527    0.3468306652871624    0.24623438306262813    0.1817890678067254    0.15206093637526502    
  0.19372946824989126    0.17703311874555946    0.19373012028768027    0.24622752881577317    0.333399241370577    
  0.42537386580259473    0.4559213124854481    0.4150579284244508    0.3854621945256651    0.41505577358364076    
  0.45592139812357785    0.4254000783422856    0.3333821069607914    0.24623441938659862    0.19372946824989126    
  0.2701412493737584    0.23033708012000317    0.2303347692706921    0.27014512332388374    0.3468307477986904    
  0.4253763097700722    0.41383328352771603    0.29219213342800815    0.1939494504071693    0.1939371795677973    
  0.2921883334105966    0.4138062494327672    0.4254000259010678    0.3468306762982089    0.2701412493737584    
  0.38235637234735315    0.3158670553574849    0.2927708735185266    0.3158608282464336    0.3823629777157756    
  0.4627314603745071    0.4559412594931398    0.2921907907031748    0.13233348120303942    0.08425486498247656    
  0.13233221358731237    0.2921883891357432    0.4559214474779428    0.4627347551835298    0.38235637234735315    
  0.510368983295149    0.42755373999522933    0.3771394599417584    0.37714017518217396    0.4275586630174945    
  0.5103733547648776    0.5478486946555029    0.41505273465267384    0.19395379568861218    0.08424214716953052    
  0.08425484264901793    0.19393721199270084    0.41505574772768067    0.5478533536147713    0.510368983295149    
  0.6121517662462987    0.5387352332908888    0.46612572526374985    0.438810719574302    0.46612933059727746    
  0.5387526436115979    0.6121525977338477    0.5808215594988345    0.3854516756646902    0.19395374965498505    
  0.13233347451521815    0.1939494905169906    0.3854621129777406    0.5808046178075378    0.6121517662462987    
  0.6504155891505624    0.6096296303214277    0.5330345374267385    0.4801550851520713    0.4801594119200905    
  0.5330295473398198    0.6096466861878548    0.6504178310799864    0.5808216065645885    0.41505276268338465    
  0.292190819611782    0.29219219623555925    0.41505789864166714    0.5807778164516385    0.6504155891505624    
  0.6121792460134309    0.6096394848032126    0.5575912254586911    0.49566941742122084    0.46848275805972234    
  0.49567656233915314    0.5576082910023293    0.6096466270336812    0.612152776731674    0.5478487049644906    
  0.4559412826993243    0.4138333105078019    0.4559213284924553    0.547825614101315    0.6121792460134309    
  0.5103806691936408    0.5387181271719481    0.5330215983674174    0.49567578081628483    0.4583934814978984    
  0.4583954524246329    0.49567651492584897    0.5330295289101997    0.5387527286678077    0.5103731981590259    
  0.462731429926982    0.42537639975373903    0.4253738200640381    0.46274980763520973    0.5103806691936408    
  0.3823412818150443    0.4275448036875444    0.4661391058081628    0.48015120958051016    0.46847386239372873    
  0.4583934103535462    0.46848276392246463    0.4801594894665953    0.4661293549126031    0.42755865843566176    
  0.38236293102363544    0.34683071860135234    0.33339913467643384    0.3468435635587466    0.3823412818150443    
  0.2701321448382997    0.3158779421767525    0.37713775476591466    0.4387925684184089    0.4801512052029404    
  0.4956757411837637    0.49566936606424084    0.48015501195035115    0.43881064017689253    0.37714014588101197    
  0.3158607518434316    0.27014513682597285    0.24622750505299776    0.2462180247186875    0.2701321448382997    
  0.19373879820222598    0.23033996108032223    0.2927521764738231    0.37713779970690214    0.466139062406227    
  0.533021556929975    0.5575913141106016    0.5330344600412664    0.46612579772633905    0.37713943830261576    
  0.29277087043603933    0.23033482450028558    0.19373012119931302    0.1817936974811662    0.19373879820222598    
  0.1520604738596757    0.17701693575082114    0.2303399275950459    0.3158779075162303    0.42754472779284747    
  0.5387181298066911    0.6096393973955727    0.6096295687461977    0.5387353578311894    0.427553665088327    
  0.31586705761834655    0.23033706822188021    0.17703311276808648    0.15205473971913888    0.1520604738596757    
  0.13901617688111345    0.15206051782932586    0.19373878865531108    0.2701322341713283    0.38234128615828505    
  0.5103806082172534    0.6121791358200113    0.6504155729758206    0.6121517950030929    0.5103689947758486    
  0.382356407963022    0.2701412732276466    0.19372945721734333    0.15206091424012153    0.13901617688111345    
  0.1266258639775015    0.13656292190368682    0.16811781396182338    0.22500734448004495    0.30713069665247617    
  0.4008894997312519    0.47688411598948294    0.5059525224689718    0.47685636782423896    0.4008878671894103    
  0.3071524550524162    0.2250095245993393    0.16811596945891208    0.1365621851550215    0.1266258639775015    
  0.13656220316508094    0.13656001914023377    0.16095500135914398    0.21344040807637568    0.2959943301875932    
  0.3964061304254102    0.48147064753640617    0.524111466885826    0.5241437323408448    0.48148714994173847    
  0.39638078245759667    0.29599998835753855    0.21344531349639487    0.16095669655645806    0.13656220316508094    
  0.16811596663865833    0.15373374525373426    0.16811577950722756    0.21344238645370572    0.29145909849381113    
  0.3875927666588458    0.4566793747663427    0.4691415433103105    0.46223706558236616    0.469138858910909    
  0.45670790649147813    0.3875974040459507    0.2914549835411238    0.21344535629020372    0.16811596663865833    
  0.22500948787866334    0.1901376100871197    0.19013302405393445    0.2250139432641362    0.2959912171105351    
  0.3875903395564848    0.44054141899508226    0.4041967639692695    0.3426509387900592    0.3426362639625407    
  0.4041613915500292    0.44054604778192497    0.3875973880509243    0.296000000421748    0.22500948787866334    
  0.30715239456410065    0.24729280636891207    0.22762771135333112    0.24728784645076007    0.30715885963530287    
  0.3963774461612732    0.45672001200179363    0.40417703716052283    0.2888777021295848    0.237528179337961    
  0.2889108175962664    0.40416150854236876    0.45670796264029845    0.3963807629137693    0.30715239456410065    
  0.400887906194021    0.32042527349388245    0.2780226530205992    0.2780255036933218    0.32042626932101365    
  0.4008891656430642    0.4814807902805432    0.46913704473368767    0.34264904246685957    0.23754139840764812    
  0.23752815170950758    0.34263629309634686    0.4691389135012179    0.4814871131746965    0.400887906194021    
  0.4768564090266599    0.39317555272614835    0.33241568722136183    0.31165679269201163    0.3324175687322064    
  0.3931837367614333    0.47686534756520543    0.5241555771429596    0.4622266260034073    0.34264899444794067    
  0.2888777282480899    0.34265093814033465    0.46223699631469567    0.5241436804533124    0.4768564090266599    
  0.5059524619115944    0.4400708428231059    0.37609258074968244    0.34002740185084157    0.34003012168351276    
  0.37609049872275807    0.44008287232499266    0.5059456585236205    0.5241555841233012    0.4691370278295944    
  0.40417709067395513    0.40419679659854557    0.46914152967209394    0.5241114366364711    0.5059524619115944    
  0.4768842121159376    0.44007400101545047    0.39315535200916896    0.3561475151516341    0.3422675169646861    
  0.3561535147503235    0.39316238351442095    0.44008275423868554    0.476865493534904    0.48148079675520006    
  0.4567200387167824    0.44054135196946576    0.4566793373150199    0.48147064283051366    0.4768842121159376    
  0.400889493494794    0.3931533289108384    0.3760881303334908    0.3561488936138897    0.34222976633576513    
  0.3422298194757689    0.35615340399658524    0.3760905082964971    0.39318381732581825    0.4008891177478957    
  0.3963774374983818    0.38759038709320076    0.3875927451159736    0.39640612539264813    0.400889493494794    
  0.3071306965891405    0.32042224865452307    0.33242921172043577    0.3400245432304635    0.34226416459224773    
  0.3422297108118816    0.34226756719164775    0.3400301444434033    0.3324176157940984    0.32042622251709046    
  0.307158789328041    0.29599120207231594    0.2914590354954857    0.29599432578574386    0.3071306965891405    
  0.22500727864648107    0.24730770159077575    0.27802003042462836    0.3116419181778644    0.34002456600644115    
  0.3561488919366445    0.3561474621907429    0.3400273389695028    0.31165677562585237    0.2780254495050863    
  0.24728779135915122    0.22501397196898612    0.21344239760643632    0.2134404340521117    0.22500727864648107    
  0.1681178141885536    0.19013632896073507    0.22760778503602722    0.2780200529973146    0.33242922875737146    
  0.3760880975489869    0.3931553793164862    0.37609250673213385    0.3324157331668198    0.2780226236900261    
  0.22762769481797637    0.19013306156347898    0.16811576575967166    0.1609550073644911    0.1681178141885536    
  0.1365628864556486    0.1537259241802464    0.19013630193491335    0.24730765580731975    0.32042219711277325    
  0.3931532857119667    0.4400739330507382    0.4400707868422422    0.3931755801532146    0.3204252066710371    
  0.24729280005238635    0.19013761266992363    0.15373373022134262    0.13656002111030233    0.1365628864556486    
  0.1266258639775015    0.13656292190368682    0.16811781396182338    0.22500734448004495    0.30713069665247617    
  0.4008894997312519    0.47688411598948294    0.5059525224689718    0.47685636782423896    0.4008878671894103    
  0.3071524550524162    0.2250095245993393    0.16811596945891208    0.1365621851550215    0.1266258639775015    
  0.11640702028697732    0.12378418238704271    0.14736261764044567    0.18983172954849004    0.2508874639016676    
  0.32127056939167203    0.37954337182857173    0.402201592143376    0.37953867031622013    0.321272407261013    
  0.25089498477701594    0.18983402756195142    0.14736356859464575    0.12378442267965206    0.11640702028697732    
  0.12378443971102134    0.12378270245696008    0.14377728303256426    0.187141325554739    0.25686485071316567    
  0.3469886718177856    0.43411746107275917    0.4867655220494765    0.48678074383332504    0.4341215105871338    
  0.3469881998154819    0.2568689035681946    0.18714454086777924    0.14377897021670447    0.12378443971102134    
  0.14736357775720801    0.13489396398721182    0.14736275864993292    0.18714383006094723    0.2589415531689171    
  0.3603574326342673    0.4664501824864781    0.5387585075392068    0.5619595031360731    0.5387564529048384    
  0.4664657010604424    0.36035768237310534    0.2589463743068476    0.1871445767738728    0.14736357775720801    
  0.1898340212980663    0.15865745932783742    0.15865693892424237    0.18983141126923492    0.25686536524936465    
  0.36035110842972184    0.475894894789733    0.5534384767137628    0.5775300294372515    0.5775195173271571    
  0.5534295557060209    0.4758972421984851    0.36035760204831585    0.25686895639549107    0.1898340212980663    
  0.2508949464943826    0.19570497238266896    0.17830703677446644    0.19570484696300552    0.2508966010160243    
  0.3469867802545221    0.4664678471233501    0.5534365218913095    0.5719385654456868    0.5654482236730127    
  0.5719578649181909    0.5534296693444981    0.4664656738885276    0.34698818619006105    0.2508949464943826    
  0.3212724319476619    0.24264754190416324    0.20513184024835127    0.20512802679513834    0.2426505428859495    
  0.32126871025438875    0.4341226063420182    0.5387562021386079    0.5775273300087213    0.5654568841817255    
  0.5654482287718908    0.5775195658480112    0.5387564981005694    0.4341214892155703    0.3212724319476619    
  0.37953867142014913    0.2889883374884761    0.23455782318819973    0.21694673872649223    0.23455915837216162    
  0.2889929143342383    0.3795456914362131    0.48678651492589015    0.5619600046325143    0.5775272073874966    
  0.5719385554757772    0.5775300640341187    0.5619594451966615    0.4867807467418746    0.37953867142014913    
  0.40220157235880993    0.31837238648246263    0.25834481087854033    0.22830027713388582    0.22830387022955406    
  0.25834407223182787    0.3183793867783069    0.40220006317787105    0.48678647782022744    0.5387561513898779    
  0.5534365780416826    0.5534385134066423    0.5387584722085245    0.48676551026401    0.40220157235880993    
  0.37954334752137125    0.3183756756524897    0.267560757581125    0.23547563337455757    0.22464981329144545    
  0.2354778181404654    0.2675652198755257    0.3183793836571942    0.37954575579427574    0.434122631079349    
  0.4664678880847045    0.47589486422397087    0.46645017407955475    0.4341174558375596    0.37954334752137125    
  0.3212705765681773    0.28897941191845106    0.25834263676241653    0.2354723783317321    0.22353180334329995    
  0.2235297522400035    0.23547777058753538    0.25834410382192813    0.2889929198967794    0.3212686676267986    
  0.34698675573477883    0.3603511383026694    0.3603573229343124    0.3469886586495534    0.3212705765681773    
  0.25088744515417505    0.2426472135424478    0.23456120423680724    0.22830098982665994    0.22464907822722163    
  0.2235317729200152    0.2246498541740486    0.22830395051465763    0.23455918659526215    0.2426505273060439    
  0.25089652467932005    0.2568653683557154    0.2589414844179504    0.256864881908063    0.25088744515417505    
  0.18983167519762825    0.19570606461304874    0.20512836883502755    0.21693898430060168    0.2283010047544751    
  0.2354724084659729    0.23547563110793698    0.22830023658959953    0.21694672615998262    0.20512802528005528    
  0.19570480088075776    0.18983142149910193    0.1871438101068468    0.18714134549708308    0.18983167519762825    
  0.1473626060026207    0.158656595214593    0.17830202270093792    0.20512838237979664    0.23456121849173772    
  0.25834262280946485    0.2675607816454201    0.25834478369172775    0.23455783913413672    0.2051318264954277    
  0.178307030366713    0.1586569490862578    0.1473627415704234    0.143777294619628    0.1473626060026207    
  0.12378414896416287    0.13489094323324852    0.158656553369601    0.19570600760557377    0.24264718025490484    
  0.2889794063660386    0.31837564314770084    0.318372291318356    0.28898833661862394    0.24264751278677618    
  0.19570497609178328    0.15865744516090236    0.1348939748726746    0.1237827164053261    0.12378414896416287    
  0.11640702028697732    0.12378418238704271    0.14736261764044567    0.18983172954849004    0.2508874639016676    
  0.32127056939167203    0.37954337182857173    0.402201592143376    0.37953867031622013    0.321272407261013    
  0.25089498477701594    0.18983402756195142    0.14736356859464575    0.12378442267965206    0.11640702028697732    
  0.11058217795371196    0.1166770108211791    0.13627810803852003    0.17161459512941898    0.2222915405514775    
  0.2809160591213301    0.32995131240565634    0.34917784792109824    0.3299565468319575    0.28091778932256994    
  0.22229416889538875    0.17161603882520307    0.13627870924717198    0.11667949842383911    0.11058217795371196    
  0.11667949850205463    0.1166777052847832    0.13446185027575808    0.17333105819942624    0.2365708426310907    
  0.32037688242922907    0.4060462998581763    0.4618904750883702    0.46189298048007815    0.4060488343783462    
  0.3203847841022018    0.23657518077007483    0.17333561756407012    0.13446182852301342    0.11667949850205463    
  0.1362786916182055    0.12476405355429411    0.1362784531674586    0.17333361830771776    0.24200757623618757    
  0.3447062106805605    0.4660974754667562    0.5681273631819463    0.608389723653052    0.5681271507374123    
  0.46610127191983297    0.3447087160582529    0.2420118242473034    0.17333564371984686    0.1362786916182055    
  0.17161600955725756    0.14221952855888229    0.14221486060368776    0.1716157492811199    0.23656735214798721    
  0.3447101047126214    0.48911950051628406    0.632069164912111    0.7206983888686386    0.7206983454633412    
  0.6320740143472309    0.48912921677347465    0.34470861164642486    0.23657520560674608    0.17161600955725756    
  0.22229412790265907    0.16950989339299563    0.15314678675504348    0.16951208897137415    0.22229573160161606    
  0.3203803167950463    0.46610167437936323    0.6320718547026261    0.761788848638159    0.8096456407054207    
  0.761790742328587    0.632074119298657    0.4661012972937618    0.32038477559851103    0.22229412790265907    
  0.2809178011661786    0.20423773287797886    0.1690526734268135    0.1690517392469204    0.2042342835978954    
  0.28091887408389615    0.40604887385003063    0.5681303751650416    0.7207013277206373    0.8096523313544829    
  0.8096456201675903    0.7206983533621728    0.5681272146979118    0.4060488172418279    0.2809178011661786    
  0.3299565288191685    0.23841237325719256    0.18743617212143063    0.17122775617296232    0.1874377606457187    
  0.2384157274130635    0.3299604894672126    0.4618992630725102    0.6083893916451992    0.7207012509326302    
  0.761788963656548    0.7206984447125239    0.6083896748199354    0.4618929601430035    0.3299565288191685    
  0.3491778667905788    0.2596784121913027    0.20242434448989594    0.17501954105267487    0.17501996869823855    
  0.20242771146286537    0.25968020520547463    0.3491801121073424    0.4618992919699793    0.5681303150873556    
  0.6320719249175848    0.6320692361343355    0.5681273379399161    0.46189041896954985    0.3491778667905788    
  0.32995132079136635    0.25967710968322777    0.20810710377761638    0.1779081386476349    0.16803420541628256    
  0.17790846928307066    0.2081104681137175    0.25968018960640105    0.32996057604268164    0.4060488954544323    
  0.46610169183800954    0.48911946829843894    0.46609740532897076    0.40604631924346    0.32995132079136635    
  0.28091607516584927    0.23841332362478165    0.20242238501923307    0.17790822223250877    0.1658975576413649    