#     DFTpy    
  CRYSTAL 
    
  PRIMVEC    
  6.4785517241379305    0.0    0.0    
  0.0    6.4785517241379305    0.0    
  0.0    0.0    6.4785517241379305    
  PRIMCOORD    
  8    1    
  Si    0.0    0.0    0.0    
  Si    1.6196379310344826    1.6196379310344826    1.6196379310344826    
  Si    0.0    3.2392758620689652    3.2392758620689652    
  Si    1.6196379310344826    4.858913793103448    4.858913793103448    
  Si    3.2392758620689652    0.0    3.2392758620689652    
  Si    4.858913793103448    1.6196379310344826    4.858913793103448    
  Si    3.2392758620689652    3.2392758620689652    0.0    
  Si    4.858913793103448    4.858913793103448    1.6196379310344826    
  BEGIN_BLOCK_DATAGRID_3D    
  3d_datagrid_density    
  BEGIN_DATAGRID_3D#0    
  29    29    29    
  0.0    0.0    0.0    
  6.4785517241379305    0.0    0.0    
  0.0    6.4785517241379305    0.0    
  0.0    0.0    6.4785517241379305    
  0.07949812615860939    0.13594286917898654    0.31541300737645955    0.43070041787307023    0.3317885482219663    
  0.1909328758436513    0.1028629417926741    0.05851503814423663    0.037439065171185205    0.02746098188680886    
  0.02263507541948689    0.020313321832755117    0.019206168931642092    0.018709302842069914    0.018573488458938563    
  0.018709308210233023    0.01920616040750905    0.02031332239469995    0.022635088746791782    0.027460974884176575    
  0.03743907677382281    0.05851501497986117    0.10286293849184475    0.1909328591138782    0.3317885247271891    
  0.43070054498904403    0.3154130951029483    0.13594291762017846    0.07949812615860939    0.1359428729394622    
  0.19879391139791283    0.36199586390511607    0.4296334973342236    0.31663403620762953    0.18260044899252384    
  0.10012077264167468    0.058161900497126835    0.037862344836883506    0.02804646864301312    0.02315906459414433    
  0.020703440380898382    0.019464603700597452    0.01887894432316797    0.018709295293890225    0.018878937893265845    
  0.01946461513860021    0.02070344982683307    0.023159077478053017    0.02804647938793583    0.037862338306972214    
  0.058161899103103896    0.10012075304759653    0.18260043442563878    0.3166340714519504    0.4296335567656395    
  0.3619959843385277    0.19879388063748585    0.1359428729394622    0.3154129784251046    0.3619959998531077    
  0.43373452510507504    0.39740010389662694    0.27210883715744144    0.16050130333951534    0.09300972134469289    
  0.057358222637936    0.039158578601254365    0.02977913931152744    0.02472171389717342    0.02189729327851635    
  0.020298980841180637    0.019464620415201573    0.019206169884971227    0.019464608585314982    0.020298978385614844    
  0.021897312279288643    0.024721739747533562    0.029779129308296744    0.03915859875011109    0.057358203658945964    
  0.09300970508497457    0.16050133356929996    0.2721087662360304    0.3974000901810123    0.4337345904209992    
  0.361995888532199    0.3154129784251046    0.43070039338596827    0.42963354054309577    0.39740014400249535    
  0.3113543820345505    0.20993320493786422    0.13214515518651124    0.08400835268243106    0.05671528280285329    
  0.04147246427243736    0.032711389610011354    0.0273839082024373    0.0240146492667888    0.021897295504031095    
  0.02070343850747173    0.020313338835612274    0.020703453836239033    0.021897288758710123    0.024014654551277836    
  0.027383901124830193    0.032711390052088646    0.04147249050330077    0.056715277524560785    0.0840083403660947    
  0.13214512595923694    0.20993321402909593    0.311354404008185    0.39740011389957897    0.4296335891597278    
  0.43070039338596827    0.3317884912618908    0.3166339853820691    0.27210879866518495    0.20993321617497407    
  0.15036715544305246    0.10528783436653325    0.07542212173327126    0.05671525042529528    0.044849653759040556    
  0.03690393362565944    0.03132935353522022    0.027383892485334106    0.02472173048106913    0.02315907918830156    
  0.022635084427034838    0.023159066621127503    0.024721716868255784    0.027383881469020457    0.03132936461526693    
  0.03690391539246533    0.04484965899134293    0.056715268437515565    0.07542208372582691    0.10528780071552804    
  0.15036717326911955    0.2099331905233996    0.27210880200732285    0.3166340265034151    0.3317884912618908    
  0.19093288205925937    0.18260043849754592    0.16050128716883397    0.13214512401250197    0.10528783845018377    
  0.08393705177176985    0.06842640887004166    0.05735822629532487    0.04901983632866342    0.0423221471311169    
  0.036903943787240746    0.03271137715878209    0.029779148885038752    0.02804649718132916    0.027460974304649208    
  0.028046471071023184    0.029779110710287427    0.03271138890288253    0.036903927773668785    0.042322142439651246    
  0.04901986085044991    0.05735822935067213    0.06842640107344987    0.08393707673203052    0.10528781634988219    
  0.13214515159545623    0.16050129932747093    0.18260044639697232    0.19093288205925937    0.1028629058824726    
  0.1001208015677653    0.09300969621658724    0.08400835922098612    0.07542210847774197    0.06842640636405817    
  0.0629124317381908    0.05816189353652538    0.053568472875731424    0.049019843482843356    0.044849608256323545    
  0.041472472703423816    0.03915855248962957    0.03786232436298139    0.03743905000806726    0.03786233195480268    
  0.03915855314141742    0.04147245923480258    0.04484963357891618    0.04901986699187052    0.05356850738924563    
  0.05816185952911028    0.06291242797690705    0.06842641990121624    0.07542211660379869    0.08400834639434343    
  0.09300970344009064    0.10012079386779936    0.1028629058824726    0.0585150191084281    0.05816190236923402    
  0.05735821265412864    0.05671527363390887    0.056715275487889995    0.057358223574412254    0.058161888559862145    
  0.05851503647458107    0.05816189731941343    0.057358244837754285    0.056715272264644324    0.05671525996500267    
  0.057358219439715454    0.05816190502202164    0.058515035954117126    0.05816192272123318    0.05735822672628684    
  0.05671526604049736    0.05671528012493765    0.05735824096135449    0.05816190858236148    0.05851504584583561    
  0.05816189001277877    0.057358247684641726    0.05671527099652319    0.056715311017407136    0.05735820899313831    
  0.05816190371357653    0.0585150191084281    0.0374390541980843    0.03786233734770932    0.03915856298963098    
  0.04147247434764816    0.04484963110655245    0.04901981186440992    0.05356848884931144    0.058161893323892495    
  0.06291242927241811    0.0684264128268969    0.07542210032057262    0.0840083539453507    0.09300970404120401    
  0.10012081693709038    0.10286294294678505    0.10012079128157214    0.09300970334037643    0.08400835121334521    
  0.07542208462705227    0.06842642614628489    0.06291243701751921    0.05816185268981942    0.05356845196585134    
  0.0490198219502463    0.044849634927830374    0.04147245061253831    0.0391585628879737    0.03786233484405746    
  0.0374390541980843    0.027460967796271177    0.02804647918434671    0.02977913952562009    0.032711380655753776    
  0.03690391914330053    0.04232214159867608    0.04901985506749357    0.05735822405954342    0.0684264179083258    
  0.08393704797078258    0.10528781566921892    0.13214512648967955    0.16050128859383797    0.18260045686197077    
  0.19093287371972972    0.1826004407032836    0.16050130460230638    0.13214513700988678    0.10528783324792787    
  0.08393707202896783    0.0684264166365677    0.05735822420121253    0.04901982074109594    0.04232214852472103    
  0.036903923136116616    0.032711392184828665    0.02977913448666995    0.028046479192454874    0.027460967796271177    
  0.022635065422780626    0.023159054833944388    0.024721743426567484    0.02738388016166538    0.03132934686108136    
  0.03690393051672299    0.044849642749774675    0.056715265299003496    0.07542210476784951    0.1052878291151563    
  0.1503671307432714    0.20993320297207288    0.27210876790434657    0.31663411154282833    0.33178850883127814    
  0.316634123186841    0.27210878022812884    0.2099332068769445    0.1503671723505768    0.10528781308005972    
  0.07542213398321722    0.05671528333141821    0.04484963641330522    0.03690390923800435    0.03132934978826174    
  0.027383887077767923    0.024721726569617568    0.02315907161627776    0.022635065422780626    0.020313329385166157    
  0.020703431791728007    0.021897303770989748    0.02401465665972031    0.02738389013240522    0.03271139557727663    
  0.04147248046936657    0.05671528718479625    0.0840083769541051    0.13214514699559587    0.20993320237097293    
  0.31135437385542214    0.3974001201198453    0.4296335296538251    0.43070053894611743    0.42963357877575525    
  0.3974000795702783    0.31135440315212165    0.20993321615224086    0.1321451922677465    0.08400838821704848    
  0.05671526038977516    0.04147245529363566    0.03271137747788828    0.02738387354236273    0.024014665885269636    
  0.021897297347505458    0.020703455602476547    0.020313329385166157    0.019206166848378677    0.01946460636757488    
  0.02029899359663437    0.02189728883755594    0.024721741853282776    0.02977915006712135    0.039158563469854565    
  0.05735822622137204    0.09300969095783712    0.16050131849062052    0.2721087901104276    0.3974001106233738    
  0.4337345775296145    0.3619959172538549    0.31541300235268005    0.3619960028369292    0.43373457191956827    
  0.39740009140829646    0.2721088040745319    0.1605013192731603    0.09300973383158948    0.05735819265387005    
  0.03915857279159195    0.029779143403606607    0.024721728478368517    0.021897286738178433    0.02029900635684212    
  0.019464617117101277    0.019206166848378677    0.01870929579593584    0.018878956916956263    0.019464601596906557    
  0.02070343686022976    0.023159079051020635    0.02804646344970416    0.03786234195387136    0.05816189983488032    
  0.10012078606942122    0.18260041411960073    0.31663406981098546    0.42963360733735023    0.3619959426842226    
  0.19879384878302878    0.13594287727168913    0.19879385929621077    0.3619959296896066    0.4296335564834515    
  0.31663399165068257    0.1826004463298831    0.10012079063321142    0.0581618737674782    0.03786233714103874    
  0.028046487300859377    0.023159061102990555    0.020703444709211725    0.019464624233307262    0.018878948715539932    
  0.01870929579593584    0.018573492144900734    0.018709308452861756    0.01920617249504997    0.02031331377123141    
  0.022635092332465984    0.02746094964199971    0.03743905505380929    0.0585150157081502    0.10286293011692152    
  0.1909328796820793    0.33178854013470616    0.43070049900134805    0.315412998159205    0.13594289135597476    
  0.07949813650038631    0.13594292062563496    0.3154129459322124    0.4307005238969732    0.3317885506624867    
  0.19093287090037683    0.10286297085886692    0.05851498853270335    0.037439069740964864    0.027460959918557272    
  0.022635069780968707    0.020313321743604874    0.019206150537950467    0.018709305492651013    0.018573492144900734    
  0.01870930476342137    0.018878944638165234    0.019464598454146345    0.020703431914719402    0.02315907851866811    
  0.028046469574103696    0.037862342306813186    0.058161901795168225    0.10012080248177846    0.18260041195816204    
  0.31663403275063845    0.4296335662817923    0.3619959471612895    0.1987939028027605    0.13594286819622844    
  0.19879388483543248    0.3619958793920385    0.4296336150323901    0.31663403618290425    0.18260045139204664    
  0.100120780506244    0.05816186853149916    0.03786233239784939    0.02804648631039083    0.02315907909303704    
  0.020703444098981616    0.019464607676887177    0.01887895092957571    0.01870930476342137    0.01920616961998472    
  0.01946461578713294    0.020298986184381147    0.02189728818187902    0.024721721130342145    0.029779141558307808    
  0.03915858250060411    0.057358237616131603    0.09300967744743525    0.16050137222662939    0.2721087721134641    
  0.3974001568716371    0.4337345295625479    0.3619960112439646    0.31541302922948067    0.36199590442029117    
  0.4337344969573427    0.3974000432411969    0.27210879050019204    0.160501283053342    0.09300974133897583    
  0.05735819221554404    0.039158578200182564    0.029779121115594352    0.024721739352618753    0.02189729001144644    
  0.020298990960870397    0.01946461888873355    0.01920616961998472    0.020313324906586064    0.0207034325419001    
  0.02189729404021792    0.02401465260869531    0.02738389372151604    0.03271139418133418    0.04147247867338079    
  0.056715287804689096    0.08400833926816852    0.13214512582372331    0.20993322136250694    0.3113544149933023    
  0.39740012921477713    0.42963356665569363    0.43070050414787686    0.42963357095885457    0.397400038189442    
  0.3113543946641723    0.20993322391935443    0.1321451626900198    0.0840083819980396    0.056715274970988924    
  0.04147244642500057    0.03271136875419689    0.027383890327454117    0.02401466101962564    0.021897299302460767    
  0.020703447132135507    0.020313324906586064    0.022635075053074827    0.023159068620597432    0.02472173806167438    
  0.027383891104247618    0.031329364797887616    0.03690393907789217    0.04484964387218264    0.05671527360494856    
  0.07542210907158278    0.10528785048402373    0.15036717431313726    0.20993325952138042    0.27210876708073    
  0.31663404113373544    0.3317885388928724    0.3166340790451648    0.2721087911736983    0.20993319114792255    
  0.15036715007404314    0.10528782454907837    0.0754221437805634    0.056715261825474296    0.04484963297891281    
  0.0369039173044956    0.03132934953482799    0.02738389004781322    0.02472172790755493    0.02315907671726502    
  0.022635075053074827    0.02746095900349174    0.02804648458880339    0.029779130245473677    0.03271136328068072    
  0.03690394043279845    0.042322143353470155    0.049019832788936894    0.05735823315501632    0.06842640709292308    
  0.08393705792394496    0.10528781690558806    0.13214513366141742    0.16050133877094883    0.1826004413734937    
  0.1909328872268527    0.18260041921439302    0.16050126367440337    0.13214512975325657    0.10528779683781035    
  0.08393704868049823    0.06842641366341634    0.057358235679519684    0.049019849773531396    0.042322120156549126    
  0.03690392214408494    0.03271139093728437    0.029779132158194478    0.028046486856715635    0.02746095900349174    
  0.03743905183590014    0.0378623465397712    0.03915855299687997    0.04147246149665565    0.04484963854583375    
  0.049019834719643156    0.05356847277033629    0.05816187984596943    0.06291241506186426    0.06842640658338572    
  0.0754220741550025    0.08400838352267709    0.09300967903839692    0.10012077863388616    0.10286293034067895    
  0.10012076733403477    0.09300969212223027    0.08400836977692341    0.0754221038521345    0.06842643276540222    
  0.06291244364152662    0.05816185592617331    0.053568477632232124    0.04901982516395578    0.04484963058030523    
  0.041472448233915424    0.0391585802311734    0.037862334643620106    0.03743905183590014    0.05851501868452428    
  0.05816191484559696    0.05735822099836164    0.05671527826116097    0.056715283501353485    0.05735823623595889    
  0.058161896345179674    0.058515023371400125    0.058161894036302945    0.05735825032757698    0.05671526876118015    
  0.05671527228057288    0.05735822711709348    0.05816189263213479    0.058515029206453927    0.05816191422714627    
  0.05735821689887565    0.056715280344248595    0.056715281123945735    0.057358229166780204    0.05816190395408455    
  0.05851503215315732    0.05816190804225339    0.05735823796150513    0.05671528170499518    0.056715274739871466    
  0.05735823252394188    0.058161909235903635    0.05851501868452428    0.1028629316559769    0.10012081762447884    
  0.09300968310895812    0.0840083526278144    0.07542209535113104    0.06842640260850183    0.06291241888350282    
  0.05816189554129149    0.05356847491292532    0.04901985029987711    0.044849621596805715    0.04147247180182609    
  0.03915855918850792    0.0378623353282549    0.03743903986956634    0.0378623465714908    0.039158566088089396    
  0.04147247667688315    0.044849640560873635    0.049019847480159646    0.05356849419974002    0.05816187367536262    
  0.06291242058105173    0.0684263900294625    0.07542211601075104    0.0840083437209542    0.09300972847298472    
  0.10012078817581752    0.1028629316559769    0.19093285926085343    0.1826004560820035    0.16050133558646645    
  0.13214513163350824    0.10528782167399253    0.08393706294790837    0.06842642276826347    0.05735822828823452    
  0.049019841505442203    0.04232214770070403    0.036903934698720185    0.032711382511209426    0.029779136860239544    
  0.028046488665430504    0.02746095622356856    0.028046493053610077    0.02977912086196199    0.03271138422137218    
  0.03690392976055807    0.042322133857518186    0.049019847889937844    0.05735823107976554    0.06842641180737097    
  0.0839370615429756    0.10528781994558693    0.13214513952608842    0.16050133217531432    0.1826004333322242    
  0.19093285926085343    0.3317885321622702    0.3166340117007433    0.272108807571701    0.20993318000734035    
  0.1503671368943363    0.10528785528510812    0.07542210699081049    0.05671526156679059    0.04484964341397414    
  0.03690394514268103    0.03132935472842166    0.027383886593823625    0.024721724370987398    0.023159077480121675    
  0.0226350846424552    0.02315907781867852    0.024721729949192063    0.027383887231923084    0.03132935202766031    
  0.036903915842094445    0.044849658555609566    0.05671527515500841    0.07542210052463068    0.10528778777884244    
  0.15036713940537863    0.2099331888297827    0.2721087922786387    0.3166341026992458    0.3317885321622702    
  0.4307004795188061    0.4296335811914208    0.397400143864014    0.3113544080257023    0.20993321346842156    
  0.13214518036270617    0.08400837137630744    0.05671523735816222    0.04147248856413968    0.03271139253012252    
  0.027383894258594058    0.024014645976804846    0.02189729557603437    0.020703444474465864    0.020313338639103867    
  0.020703437620132208    0.021897290207513728    0.024014667793146142    0.027383893956557125    0.032711393683988524    
  0.04147247428765676    0.056715277778308405    0.08400836028256829    0.13214514397399976    0.2099332269953464    
  0.31135440952965554    0.3974000957958311    0.42963367109191347    0.4307004795188061    0.31541303988262526    
  0.3619959529734645    0.4337346036670651    0.397400077982117    0.2721087784272191    0.16050132067967762    
  0.09300970419070932    0.05735822872171247    0.039158565154449654    0.029779138819808    0.024721740088416017    
  0.021897300212228087    0.020298987139043302    0.019464611511512096    0.019206155309991826    0.01946460129621794    
  0.020298968658881297    0.021897297086812924    0.024721726569598645    0.029779123218965895    0.039158586966218094    
  0.05735823427748217    0.0930096892743308    0.16050131174077611    0.27210882973583655    0.3974001090508777    
  0.4337345792907247    0.36199591834251554    0.31541303988262526    0.13594288940970498    0.1987938972072661    
  0.36199595188303    0.42963354336691734    0.31663408143824673    0.18260044523120186    0.10012076660207254    
  0.05816189969996369    0.037862327736746325    0.02804646446432235    0.02315907286705148    0.02070345749938893    
  0.01946462199956787    0.018878946237072963    0.018709298465672673    0.018878931188151222    0.019464611862631515    
  0.02070344204182482    0.023159065301283782    0.028046493309251616    0.03786234829915539    0.058161896761886864    
  0.1001207791073887    0.1826004230027039    0.3166340533805082    0.4296335447166428    0.3619960447003969    
  0.19879387144631008    0.13594288940970498    0.07949812615860939    0.13594286917898654    0.31541300737645955    
  0.43070041787307023    0.3317885482219663    0.1909328758436513    0.1028629417926741    0.05851503814423663    
  0.037439065171185205    0.02746098188680886    0.02263507541948689    0.020313321832755117    0.019206168931642092    
  0.018709302842069914    0.018573488458938563    0.018709308210233023    0.01920616040750905    0.02031332239469995    
  0.022635088746791782    0.027460974884176575    0.03743907677382281    0.05851501497986117    0.10286293849184475    
  0.1909328591138782    0.3317885247271891    0.43070054498904403    0.3154130951029483    0.13594291762017846    
  0.07949812615860939    0.13594288095922877    0.19879385521553838    0.3619958764574472    0.42963357358883913    
  0.3166340770767141    0.18260041173844258    0.10012078633103075    0.05816189792976978    0.037862327968278986    
  0.02804649115152398    0.02315906533720494    0.020703435412376986    0.019464622475903484    0.018878938994904018    
  0.018709302697071054    0.018878937797666816    0.019464608791820073    0.020703439683215183    0.023159063603064696    
  0.02804648286606433    0.037862348674364346    0.05816187961187055    0.10012076810711143    0.1826004153062746    
  0.3166340089579224    0.42963362410978545    0.36199597434970904    0.19879388126528624    0.13594288095922877    
  0.19879387303309304    0.2636622651004449    0.4043941079963989    0.43356879081746164    0.3120743546191492    
  0.18352329161479314    0.10432465980518846    0.06291241345164532    0.042080494498829404    0.031438487867209534    
  0.02571160912973849    0.022504277381353407    0.020610069978293878    0.019478131811320045    0.018878924710906915    
  0.018696965315282175    0.018954166935695568    0.019857853524586862    0.021921958324789534    0.026239687596966477    
  0.03509973250975816    0.053568459932064584    0.0917804689449992    0.1671135204046478    0.29211750801850295    
  0.41326882151574784    0.3907442970522513    0.2585807605230925    0.19879387303309304    0.36199588708118186    
  0.40439426546410634    0.4541184064052552    0.4024528921966767    0.2789804342566373    0.17185207463554564    
  0.10534196736151048    0.06842640653394748    0.04827780147986661    0.036855908867126634    0.029907261199918645    
  0.02546988150407408    0.022534346509540185    0.020610094192466708    0.01946461780202591    0.018954168334041146    
  0.01904124713039937    0.019839350370144167    0.021740645410130436    0.02563170963799775    0.03338317207502688    
  0.049019830381087086    0.0803554198576532    0.14063477942776717    0.24245570262162233    0.3651894886076037    
  0.4255530802741776    0.3907441921797969    0.36199588708118186    0.4296335645658516    0.4335688648623905    
  0.40245301946952006    0.3222475759327976    0.22799185937291408    0.15362835282009327    0.10512431526607409    
  0.07542207897626649    0.05695509196601227    0.04473266405694506    0.03610176905235738    0.029878103116032576    
  0.02546990503379875    0.022504287783850784    0.02070344929462204    0.019857869613397645    0.01983935500443642    
  0.020637547686250462    0.022485180039393277    0.026013491647322074    0.03255075349792103    0.044849620461620776    
  0.06805592061254316    0.11036455023715896    0.1805394531205456    0.2757419198497052    0.36518955266241204    
  0.4132688876937315    0.4296335645658516    0.3166340013582036    0.3120742883826422    0.2789804106608003    
  0.2279919005436892    0.17643457194735931    0.13495794554687118    0.10512433193787103    0.08400835825600762    
  0.06805592874670109    0.05512747756516419    0.04450943819331511    0.03610175524053747    0.0299072690512484    
  0.025711629331929314    0.023159065118500206    0.021921968622600433    0.021740644339128985    0.022485167101101728    
  0.024224496851791642    0.02732055562288021    0.03255072220083139    0.041472469659303304    0.056955062158664985    
  0.08314421559598897    0.12423012797097083    0.18053943167185188    0.24245563362412775    0.2921174722396882    
  0.3166340013582036    0.18260043237655837    0.18352325383742096    0.17185203339645552    0.15362833240061297    
  0.13495797223672362    0.11883882930340657    0.10534197117955621    0.09300968647744635    0.08035542104438155    
  0.06736787352542202    0.05512748923261892    0.04473266977231766    0.03685591933799655    0.03143850008495191    
  0.028046482171060996    0.026239693654985307    0.025631686730182783    0.026013500314816668    0.027320551645878658    
  0.029663833794152352    0.03338318538139644    0.03915855892398434    0.048277796043612584    0.06244115908329205    
  0.08314422260373754    0.11036456858087222    0.14063474863468464    0.1671135319635987    0.18260043237655837    
  0.10012075864821911    0.10432467435878737    0.10534192545435915    0.10512434735030829    0.10512433365915252    
  0.10534197595927994    0.10432465781994726    0.10012080429999569    0.09178048922502056    0.08035544675073339    
  0.06805588833526387    0.056955091120408634    0.048277785219567625    0.04208050250212595    0.03786232405550622    
  0.03509971806786613    0.033383147446260385    0.03255071796403858    0.03255071515042674    0.03338319454540298    
  0.03509972992744323    0.03786233205014658    0.04208049204079938    0.048277811777269045    0.05695508431387252    
  0.06805592063408415    0.08035540997493917    0.09178050125113991    0.10012075864821911    0.05816190964908937    
  0.06291239686911296    0.06842640053889915    0.07542208184392249    0.0840083781149401    0.09300967810428126    
  0.10012080247835944    0.10286295404232469    0.10012081089403142    0.09300970786264712    0.08400837198509079    
  0.07542208822073203    0.0684264054124267    0.06291242591543991    0.05816191072904832    0.053568487928921306    
  0.04901985121942653    0.04484962309242588    0.04147247576697815    0.03915856202802063    0.037862340397012854    
  0.03743904160852111    0.037862347688197476    0.03915855371166686    0.04147246592891004    0.04484962788505097    
  0.04901984558708907    0.05356846265254953    0.05816190964908937    0.03786231580973569    0.04208050714398805    
  0.04827776463519619    0.05695510311916292    0.06805590266949235    0.08035542537247947    0.09178049012324822    
  0.10012079866049266    0.10432465305068538    0.10534196990970765    0.1051243408375841    0.10512432380134652    
  0.1053419649958182    0.10432467476640202    0.1001207951887799    0.09178050662908471    0.08035542847260951    
  0.06805591049466662    0.056955065035955904    0.04827780955782429    0.0420804796414902    0.037862309931036356    
  0.035099694681299504    0.03338316094840799    0.032550705508198975    0.03255072062725431    0.03338314955226698    
  0.03509972824631409    0.03786231580973569    0.02804647304992876    0.03143847988247581    0.03685591702600726    
  0.044732656686370956    0.05512749300398987    0.06736787090920089    0.0803554412068249    0.09300967678910242    
  0.10534197946241648    0.11883889328251936    0.13495794190653104    0.15362832697303794    0.1718520319765536    
  0.18352329196695125    0.182600424137023    0.1671135555712253    0.14063471026050406    0.11036456862071184    
  0.08314422103776707    0.06244115720872332    0.04827781152149511    0.03915853248559687    0.03338316324507466    
  0.029663842815315474    0.02732054586892672    0.026013494412689714    0.02563171303638096    0.026239688816348018    
  0.02804647304992876    0.02315905272266718    0.025711621408853    0.02990726352037222    0.03610175663981952    
  0.044509423731896314    0.05512747841750758    0.06805590033479772    0.08400836064968877    0.1051243384295633    
  0.13495795642537348    0.17643456940874563    0.22799185242988132    0.278980419712675    0.31207434823487984    
  0.3166340720032388    0.292117509593502    0.24245569299641792    0.18053945140654065    0.12423011678304388    
  0.08314419441541247    0.05695510177157177    0.04147247651103745    0.03255070540513405    0.02732053855001951    
  0.024224485454016054    0.022485175692717057    0.021740637916610798    0.021921969435202804    0.02315905272266718    
  0.02070344375222138    0.022504261082929012    0.025469912907791804    0.0298781049849699    0.03610175983944084    
  0.04473267260272087    0.05695510712112404    0.07542209054033902    0.10512436074019708    0.15362833318566205    
  0.22799185869771288    0.32224748502067285    0.40245294429275075    0.43356888232960605    0.429633602818109    
  0.41326890100206254    0.3651895448471673    0.27574191001704373    0.18053949220637394    0.11036459774171972    
  0.06805592078841187    0.04484961327375654    0.03255072201337528    0.02601348024692671    0.022485167900710493    
  0.020637557098712237    0.019839358379356877    0.019857868662378497    0.02070344375222138    0.01946460294816454    
  0.020610078917302807    0.0225343506773909    0.025469900493858617    0.029907278431830542    0.03685591020456921    
  0.0482778025586865    0.06842641693657275    0.10534197529920265    0.17185204954381375    0.27898040655778383    
  0.4024529283637942    0.45411837681931955    0.404394201697198    0.3619959203154105    0.3907442894958523    
  0.42555301859727845    0.3651895508052033    0.24245567791022554    0.14063475897247799    0.08035544983518297    
  0.04901982741271894    0.03338315846541473    0.025631711305820662    0.021740648549713047    0.019839350465388386    
  0.019041266096886646    0.01895418732391052    0.01946460294816454    0.018878928057099433    0.019478147881462904    
  0.020610063129958077    0.022504283957662647    0.02571164201935733    0.03143847136448145    0.04208051673256128    