#     DFTpy    
  CRYSTAL 
    
  PRIMVEC    
  4.743655172413792    0.0    0.0    
  0.0    4.743655172413792    0.0    
  0.0    0.0    2.6134482758620687    
  PRIMCOORD    
  4    1    
  Si    0.0    0.0    0.0    
  Si    2.371827586206896    2.371827586206896    1.3067241379310344    
  Si    0.0    2.371827586206896    0.6533620689655172    
  Si    2.371827586206896    0.0    1.9600862068965517    
  BEGIN_BLOCK_DATAGRID_3D    
  3d_datagrid_density    
  BEGIN_DATAGRID_3D#0    
  21    21    13    
  0.0    0.0    0.0    
  4.743655172413792    0.0    0.0    
  0.0    4.743655172413792    0.0    
  0.0    0.0    2.6134482758620687    
  0.0516124827364162    0.09679166897320586    0.26330812333877296    0.4304045391205586    0.43798916171669644    
  0.39264651795889177    0.3826840860816107    0.40433371346648805    0.4146743094506035    0.39064184818093706    
  0.3717243436381444    0.3906418091388345    0.4146744061015389    0.40433366439209567    0.38268419719070484    
  0.3926464448602607    0.43798924490850333    0.4304044061663526    0.2633082252409323    0.09679166476518401    
  0.0516124827364162    0.09679167286651638    0.14988107540674223    0.3067614713503852    0.42689804072847903    
  0.41061920945717717    0.36392317882904535    0.3548219290262493    0.37808042107200013    0.3977904045464332    
  0.38953429029464903    0.3783224074322109    0.3895343078588381    0.39779031021730704    0.37808051948272703    
  0.35482178146380844    0.36392332991238424    0.41061908612319714    0.4268981900207276    0.3067614538973334    
  0.1498811135808134    0.09679167286651638    0.2633081316760815    0.30676149229815164    0.3866845877680998    
  0.3970621373377044    0.34147840243116595    0.29521533288862345    0.28755595388439725    0.311691185683858    
  0.34552923823462994    0.36506156484234314    0.36874516821523684    0.365061438029431    0.34552935847711264    
  0.31169111806310146    0.2875560283414269    0.29521520287963793    0.34147855646206177    0.3970619756052277    
  0.3866846483215894    0.3067614678334856    0.2633081316760815    0.43040454423983193    0.4268980224163456    
  0.3970621082366646    0.3303210871071621    0.2612493511106359    0.22106885526737777    0.21473980022217676    
  0.235806082504222    0.27174213828310556    0.302870866803876    0.3143170009550445    0.30287087194730966    
  0.2717420824074223    0.23580618010971524    0.21473967516108944    0.22106897586020008    0.26124925126584775    
  0.33032120922536096    0.3970620411384035    0.42689804603117515    0.43040454423983193    0.43798908187467767    
  0.410619300900199    0.3414783746271669    0.2612493848920872    0.19895380244297764    0.16617083911257177    
  0.16091926439113904    0.17770183433353526    0.20780112079946264    0.2364840505481904    0.24823581906099032    
  0.23648400618490248    0.2078012044989327    0.1777017667007213    0.16091931511477417    0.16617076002655046    
  0.19895389123539323    0.26124930241190253    0.34147846184840713    0.4106192253728464    0.43798908187467767    
  0.392646607723573    0.3639230645648972    0.29521541147723357    0.2210688426693478    0.16617087664226715    
  0.13746157666169487    0.13251738251964199    0.14666357211639458    0.1722712073123723    0.19743874272012005    
  0.20822313808138634    0.19743878509330515    0.1722711507701735    0.1466636280948815    0.1325172691107152    
  0.1374616765672688    0.16617076667530825    0.22106892664023406    0.29521537071330073    0.3639231259776602    
  0.392646607723573    0.38268400470295705    0.35482204888859387    0.2875558163483946    0.2147398506420104    
  0.16091920744984822    0.13251739021334344    0.12733420580931648    0.1411097206126032    0.16640210146332732    
  0.19142285643928159    0.2021864458058597    0.19142280879628407    0.16640215050260945    0.14110966887305879    
  0.12733427191948818    0.13251730939996434    0.16091928611832906    0.21473973606725313    0.2875558807024461    
  0.35482202928078244    0.38268400470295705    0.4043339038285594    0.378080239256044    0.31169133020638073    
  0.23580596262137754    0.17770194564679925    0.1466635062223275    0.14110975258504002    0.15656967630692187    
  0.18521839060032094    0.21355860033377705    0.22558080195673383    0.21355863462910424    0.18521831572115602    
  0.15656974481746844    0.14110966676741    0.14666358470119484    0.17770184201444977    0.23580608536367825    
  0.31169126482138426    0.37808029180084796    0.4043339038285594    0.41467407715191557    0.39779053588419827    
  0.3455290620939245    0.27174231642129676    0.2078009965871642    0.1722712647935088    0.16640206370382055    
  0.18521839521238817    0.2197060379978666    0.2537650806477229    0.26811136580088923    0.2537650419627606    
  0.21970609830108012    0.18521831635601863    0.1664021320796287    0.17227119014566958    0.20780114544114522    
  0.2717422274636479    0.34552915419820024    0.3977905076317334    0.41467407715191557    0.39064209300683556    
  0.389534063367982    0.36506179749517986    0.3028706765397081    0.23648417441788702    0.1974386475938653    
  0.1914229470159098    0.21355853662107974    0.2537650898783248    0.2934398143569856    0.3101328715812682    
  0.2934398236004746    0.25376501887584074    0.21355863619462473    0.19142282617014164    0.19743875849490844    
  0.23648403120873962    0.3028707864912265    0.36506171201043197    0.38953406776494237    0.39064209300683556    
  0.3717241251513967    0.3783226078353615    0.3687449220279333    0.31431720003535224    0.24823563252230638    
  0.20822321332524737    0.20218637267404585    0.2255808623015271    0.2681112791501258    0.3101328505863451    
  0.3278268014969715    0.31013283822576143    0.2681113420930449    0.2255807605532527    0.20218646367134233    
  0.20822316955403314    0.24823574211304072    0.3143171066229492    0.3687450102946965    0.3783226146738508    
  0.3717241251513967    0.3906420581258178    0.38953407450906435    0.36506176772090276    0.30287070500617513    
  0.23648411485469287    0.19743867296497705    0.19142292219001028    0.21355855752087513    0.2537651110014898    
  0.29343983288143716    0.31013283062659536    0.2934398704728968    0.2537650477917711    0.21355864024329732    
  0.1914228241166776    0.1974387877617031    0.23648403001070978    0.30287080558594126    0.36506168734303124    
  0.38953407411002755    0.3906420581258178    0.41467417884148866    0.3977905124889797    0.34552906479625783    
  0.27174229235746156    0.20780105000705232    0.17227126302146448    0.1664020842319857    0.18521838056332232    
  0.2197060504109035    0.2537650426714789    0.26811138070394025    0.2537649627242979    0.21970614154779883    
  0.1852183086888799    0.1664021505896656    0.1722711610380018    0.20780117682830587    0.27174219500652863    
  0.345529160317056    0.39779049033798936    0.41467417884148866    0.4043338376571467    0.37808033772919036    
  0.31169127577002986    0.23580603992130544    0.17770186702792987    0.14666352875314065    0.1411097138293763    
  0.1565697038507508    0.18521832695184026    0.2135586683172551    0.22558074980812817    0.21355866257835057    
  0.18521830270788606    0.1565697841617545    0.14110964887105587    0.14666362535680336    0.17770180449482453    
  0.23580610628300172    0.3116912196874397    0.3780803470694101    0.4043338376571467    0.3826840318195821    
  0.3548219589341225    0.2875559132354853    0.21473981178138407    0.16091924080300715    0.1325173354276379    
  0.1273342641048279    0.1411096646357696    0.16640211097973603    0.19142282678315076    0.20218650493280252    
  0.19142277089494295    0.16640219682589094    0.14110960471562103    0.1273343006246907    0.13251726695472535    
  0.16091929642625044    0.21473971964809963    0.2875559361279395    0.35482194411732937    0.3826840318195821    
  0.39264653371396635    0.363923111390293    0.29521536165806667    0.2210689257553923    0.1661708264017263    
  0.13746162708052254    0.1325173332130272    0.14666361342628598    0.1722711756156453    0.19743880095106764    
  0.20822307397547893    0.19743885423659463    0.17227109771716717    0.14666369059515283    0.13251722604327557    
  0.13746172829623277    0.16617071992704305    0.2210689770841023    0.2952153100248019    0.3639232177510206    
  0.39264653371396635    0.4379891725365433    0.4106192090777644    0.3414784263209259    0.2612492799785776    
  0.19895384404198294    0.1661708009730907    0.16091928691897148    0.17770180252785292    0.2078012042145887    
  0.23648397632241192    0.2482358542722963    0.23648394566179823    0.20780126296888504    0.17770171154353087    
  0.16091939152466275    0.16617069210449992    0.1989539444048526    0.26124919687624976    0.3414785056709403    
  0.41061914432919133    0.4379891725365433    0.4304044799818088    0.42689811857937365    0.39706202320399725    
  0.3303211493359263    0.2612493083540419    0.22106891417809343    0.21473973066731802    0.23580615761168994    
  0.2717421037867482    0.30287093845191554    0.31431696096878775    0.3028709230971361    0.2717420390336334    
  0.23580624165783204    0.21473959214243243    0.22106902609989149    0.2612491923733564    0.3303212227670804    
  0.39706198974912055    0.4268981255838707    0.4304044799818088    0.2633081782981285    0.3067614223361704    
  0.3866845927293584    0.39706208543094584    0.34147841666389106    0.2952152772405094    0.28755599488703965    
  0.3116911524450442    0.3455293063126433    0.3650614932272429    0.36874521601941745    0.3650614514296337    
  0.34552940041385666    0.311691004414984    0.28755608442940883    0.29521516266613274    0.34147856230605395    
  0.39706194439317494    0.3866847497814478    0.30676141626043607    0.2633081782981285    0.09679166585150611    
  0.1498810957723002    0.30676149987285917    0.4268980915945053    0.41061919026786475    0.3639232061670135    
  0.354821899225442    0.37808041235648476    0.3977903334981286    0.3895343191173533    0.3783224169992737    
  0.38953434300081097    0.3977902492029039    0.3780805023453007    0.35482176041482477    0.3639233577195734    
  0.4106190345682848    0.42689820697820763    0.3067613924109069    0.1498811118633283    0.09679166585150611    
  0.0516124827364162    0.09679166897320586    0.26330812333877296    0.4304045391205586    0.43798916171669644    
  0.39264651795889177    0.3826840860816107    0.40433371346648805    0.4146743094506035    0.39064184818093706    
  0.3717243436381444    0.3906418091388345    0.4146744061015389    0.40433366439209567    0.38268419719070484    
  0.3926464448602607    0.43798924490850333    0.4304044061663526    0.2633082252409323    0.09679166476518401    
  0.0516124827364162    0.0876481238326214    0.13815032691396195    0.2892612938004511    0.40267667812437374    
  0.3790841147805064    0.32421221516959037    0.3055039251865168    0.32449174679254744    0.36056250550781105    
  0.3887766897259037    0.3977893301082768    0.3887767603934043    0.3605624435406036    0.3244918763942679    
  0.30550376562765513    0.32421241300815756    0.3790839706950616    0.4026767366975659    0.2892612517754375    
  0.13815039813690036    0.0876481238326214    0.14130453657948436    0.1944798208294431    0.32697187200968636    
  0.3988181632972149    0.35776117749965586    0.3026645706621194    0.2847791674999293    0.30273793208853034    
  0.33832609800304086    0.36838725790503263    0.3788979299071311    0.3683871752494708    0.33832615595155524    
  0.30273780663469974    0.28477928378174255    0.3026644804810581    0.35776135186967706    0.3988180729369387    
  0.32697197214386065    0.19447978991894477    0.14130453657948436    0.30988014945741515    0.34327968807114345    
  0.39239688229390635    0.37227084607881156    0.3035149546610314    0.2509527561649167    0.2350847125809378    
  0.2502674790298027    0.28310626112092063    0.314150547979757    0.32625488652004964    0.31415052821027417    
  0.2831062143974038    0.2502675894553367    0.23508456092629604    0.2509528830428296    0.3035148583535094    
  0.37227092163674513    0.3923967932340986    0.3432797304781186    0.30988014945741515    0.4580043794998011    
  0.4459705102087079    0.39806744402282224    0.31713212067485586    0.2406925532326531    0.1950641020720036    
  0.18173115446525323    0.19373073767585966    0.22111609036301175    0.24824086380829538    0.2592858042504821    
  0.24824076204504403    0.2211161551961093    0.1937306618685043    0.18173122030628402    0.19506400086863118    
  0.24069268083445586    0.3171320116107584    0.3980675620969833    0.44597043854736707    0.4580043794998011    
  0.4658019542454254    0.433523941920247    0.3536745324485377    0.2633031681345239    0.19356454348229227    
  0.15482215455906848    0.14354240646815297    0.15320455900388455    0.1753242781428491    0.19746026394634458    
  0.20671586300058448    0.1974602794982486    0.17532423140571848    0.15320464812638007    0.14354228895992394    
  0.15482226181707912    0.1935644414807617    0.263303255946428    0.3536745002721075    0.43352398504088135    
  0.4658019542454254    0.43763359492984155    0.40384990341166793    0.32360178202421175    0.23738878080981363    
  0.1729788949483015    0.1373677069374663    0.1268499338707545    0.1354487031207657    0.15512610966570925    
  0.17500027843091903    0.1835103826467929    0.17500024768914949    0.15512615781613384    0.1354486356112361    
  0.12684998732979608    0.1373676454202457    0.17297898342193677    0.2373886514285705    0.32360188820007774    
  0.4038498624328584    0.43763359492984155    0.4455936051548996    0.4128291267003764    0.33315406280400306    
  0.24553522012272386    0.17935335856885354    0.1425526950732018    0.1315528624513133    0.14041351117338713    
  0.161040093517834    0.1819843406761356    0.1909254193762479    0.18198434946114558    0.1610400336264024    
  0.14041360729060737    0.13155275425598284    0.1425527872005127    0.17935325333171648    0.2455352757045732    
  0.3331539967133848    0.412829189257753    0.4455936051548996    0.45748390143555157    0.43443246660961365    
  0.3683091921788005    0.28178046141024515    0.20952454609843266    0.1678867494476129    0.15549499144300855    
  0.16600490532268156    0.19063878605713092    0.2158027981622273    0.22643768091645117    0.21580275036089466    
  0.19063882997863665    0.16600480082856556    0.1554950675907318    0.1678866435794831    0.2095246580528433    
  0.28178038792393584    0.3683092813137655    0.4344324174857596    0.45748390143555157    0.3916329761627714    
  0.39876190599902794    0.38786426453332945    0.3278824992613655    0.25402042187094276    0.20603204382996124    
  0.19186753274756818    0.2053941653557078    0.23606195670037253    0.2673697511390466    0.28055564937290606    
  0.26736977030463294    0.23606188272092013    0.20539424896218283    0.19186740086700618    0.20603215949512277    
  0.25402033614134567    0.327882541587831    0.3878642040298115    0.39876195382108764    0.3916329761627714    
  0.272430725863033    0.30902797283061484    0.3687714103790884    0.35893031755761634    0.2939750725791032    
  0.24203597809114488    0.2264860494507514    0.24307319119978227    0.2792965376041239    0.31574201228054355    
  0.3309612929668278    0.3157419362602055    0.2792966287891137    0.24307309970065957    0.22648609842006084    
  0.24203588726837025    0.29397515866851115    0.358930211978974    0.3687714861182697    0.30902787870446397    
  0.272430725863033    0.21898670767770145    0.26382615054260783    0.3513051934182972    0.3677478825447498    
  0.30993880143631736    0.2572314723868806    0.24116731609731495    0.25895987680265076    0.2973756556737277    
  0.3357246216553353    0.35163139077447314    0.33572470407616484    0.29737556885610444    0.2589599929554894    
  0.24116720250922655    0.25723162090206964    0.30993864646753533    0.3677479756893783    0.35130514076847047    
  0.26382623352232054    0.21898670767770145    0.2724307381196412    0.30902792025826253    0.36877142712486327    
  0.3589303282490708    0.29397503986611623    0.24203596781862768    0.2264860423989337    0.24307317670091827    
  0.27929663773483143    0.3157419908201102    0.33096123287188633    0.3157419277969824    0.27929667597801816    
  0.2430730670666221    0.2264861494103986    0.24203586396927498    0.29397518728831107    0.35893018719349445    
  0.3687715201553875    0.30902786476268546    0.2724307381196412    0.3916329427422374    0.39876195492937533    
  0.38786417518718364    0.32788250285747106    0.25402039624696965    0.20603211448156783    0.1918674823003578    
  0.20539418947225452    0.23606188872665876    0.2673697972607227    0.2805555824032967    0.2673697708577155    
  0.2360618533989135    0.20539429345730437    0.19186735274473785    0.20603220167645495    0.25402031205298914    
  0.3278825804328583    0.3878641262953332    0.3987619994310332    0.3916329427422374    0.45748393796816583    
  0.4344324113367179    0.36830926648321616    0.28178045799339557    0.2095245593470083    0.1678867051241964    
  0.1554950371438155    0.16600482877388054    0.1906387961867838    0.21580272872021392    0.22643772625286296    
  0.21580268781236603    0.19063888584855204    0.16600475747277815    0.15549513207652904    0.1678866167719456    
  0.2095246676907359    0.2817803297185687    0.36830934023054496    0.43443237277318547    0.45748393796816583    
  0.4455935207108015    0.4128291939804686    0.3331540147044943    0.24553527690143487    0.1793533092321556    
  0.1425527314629392    0.1315528190937411    0.14041355754508775    0.1610400101622024    0.18198443635530684    
  0.1909254107622083    0.18198441871960733    0.16103996737730464    0.14041361859165044    0.1315527078552392    
  0.14255283680879824    0.17935318659915597    0.24553539443775563    0.3331539260867068    0.4128292176695513    
  0.4455935207108015    0.43763365350965444    0.40384979455884484    0.323601860490101    0.23738873137704372    
  0.172978953748198    0.13736766731458336    0.12684998165990105    0.13544864778680832    0.15512616698009793    
  0.17500023001205225    0.18351043563543337    0.17500022485849737    0.15512620278631412    0.13544858852239813    
  0.12685003862399694    0.13736760015723312    0.1729790429821256    0.23738860109655233    0.323601939568264    
  0.40384980879205123    0.43763365350965444    0.4658018568267309    0.43352399645419903    0.35367449117506655    
  0.26330319338625274    0.19356449113910756    0.15482220967547428    0.1435423380065979    0.15320460255297355    
  0.17532423494752797    0.19746033266452986    0.20671579681892185    0.19746033966320892    0.17532420606913826    
  0.15320469958999486    0.14354225477600305    0.15482230981789133    0.1935643881279874    0.2633033173852004    
  0.3536744058261495    0.43352408081392774    0.4658018568267309    0.4580044651741718    0.4459705027025468    
  0.39806751165560184    0.31713207579315    0.24069263341683672    0.1950640703026787    0.1817311675578398    
  0.1937307206749739    0.221116137867145    0.24824082228652145    0.25928583624546353    0.24824072870742453    
  0.22111619681970146    0.19373063727109605    0.18173122219714602    0.19506397458782784    0.2406927508566641    
  0.31713198494132955    0.39806759777997713    0.445970407963387    0.4580044651741718    0.3098801442919227    
  0.3432797068474203    0.39239677755552177    0.37227087920447416    0.30351491352406534    0.25095275723320154    
  0.235084672588471    0.2502675344219676    0.2831062179512471    0.31415058221675934    0.3262548267224342    
  0.3141506142314778    0.2831061607021272    0.250267608748967    0.23508454576964988    0.2509529151685816    
  0.30351480159248956    0.3722709301431322    0.3923967873318468    0.34327974385570964    0.3098801442919227    
  0.1413045504110812    0.1944798168393454    0.3269719408222374    0.3988181852260937    0.35776121803746236    
  0.30266457531762675    0.2847791967513342    0.30273789647810573    0.3383260523288328    0.36838721822292947    
  0.37889799664030405    0.3683871683840221    0.33832612694984837    0.30273779481074714    0.284779269355999    
  0.30266447971277005    0.3577613522440424    0.3988180553981548    0.326971981732634    0.19447978077499523    
  0.1413045504110812    0.0876481238326214    0.13815032691396195    0.2892612938004511    0.40267667812437374    
  0.3790841147805064    0.32421221516959037    0.3055039251865168    0.32449174679254744    0.36056250550781105    
  0.3887766897259037    0.3977893301082768    0.3887767603934043    0.3605624435406036    0.3244918763942679    
  0.30550376562765513    0.32421241300815756    0.3790839706950616    0.4026767366975659    0.2892612517754375    
  0.13815039813690036    0.0876481238326214    0.21898709016913967    0.26382576483636433    0.3513056279748708    
  0.36774740626392277    0.3099392938161756    0.25723092112676055    0.24116793115703652    0.25895913534159737    
  0.2973765416230399    0.33572361352543634    0.3516324815568424    0.3357235925381316    0.29737661911591434    
  0.25895908055338984    0.24116802047975316    0.25723086896123515    0.3099393928800698    0.36774725046703766    
  0.351305746508801    0.26382581118021453    0.21898709016913967    0.272430333113751    0.30902831022900157    
  0.36877098049271073    0.35893076712910815    0.293974546531278    0.2420364969376002    0.22648542423002904    
  0.24307388844352545    0.2792957434980059    0.31574298417727326    0.3309602053106793    0.3157429905846212    
  0.2792956881418229    0.24307395671261783    0.2264853070086149    0.242036603991629    0.2939744723908927    
  0.3589308921166342    0.36877090892780834    0.309028366859958    0.272430333113751    0.3916334362054698    
  0.39876152119048935    0.38786464246473606    0.32788202325658083    0.2540208653924233    0.20603160366777518    
  0.19186804616403197    0.20539353637406746    0.23606269301725893    0.26736886510121993    0.2805565450080046    
  0.2673688092130032    0.2360627923148589    0.2053934699984735    0.19186811048727181    0.20603148251497344    
  0.25402100656211196    0.3278819191307069    0.3878647317665147    0.3987615056752068    0.3916334362054698    
  0.45748343961871357    0.43443287784922163    0.36830880953132905    0.2817808843691457    0.20952412369321183    
  0.1678871566215473    0.15549452829065544    0.16600544580866797    0.19063808484955858    0.2158035802657634    
  0.22643682826077924    0.21580356908361165    0.19063802800007226    0.1660055142701038    0.15549443505490132    
  0.16788723973507202    0.20952403877137657    0.2817809537339112    0.36830873751900994    0.4344328988600783    
  0.45748343961871357    0.4455940121954258    0.4128287323704234    0.3331544218394227    0.2455349105013573    
  0.1793536895418268    0.14255229885754353    0.13155331043430674    0.14041297614542642    0.16104069315853578    
  0.18198362908455354    0.19092622552503996    0.18198360357674684    0.16104076137591414    0.14041292378450376    
  0.13155336878911805    0.14255220675186558    0.17935382133294514    0.24553477786792793    0.3331545227337372    
  0.41282868016138635    0.4455940121954258    0.4376331775648876    0.4038502556642872    0.32360141449592533    
  0.23738912553557984    0.1729785377166215    0.13736808038756676    0.12684950526794667    0.13544920188828743    
  0.15512551129760685    0.17500097425017974    0.18350962828208908    0.175000991110505    0.15512544779121684    
  0.13544928644726417    0.12684940492855243    0.1373681977276228    0.17297845006709414    0.2373891878957829    
  0.32360135718920385    0.4038503592732385    0.4376331775648876    0.4658023938767917    0.4335235888736779    
  0.35367489277380254    0.2633028159945428    0.19356493151155216    0.1548217780724805    0.14354283699488224    
  0.15320402395514018    0.1753249419020191    0.19745952864349842    0.20671664863078232    0.1974594547719518    
  0.17532500139860457    0.15320396651508986    0.14354291816397688    0.15482167790470186    0.19356503020051433    
  0.26330266270979025    0.35367500794750945    0.4335234891017611    0.4658023938767917    0.45800392302808135    
  0.44597091289349317    0.39806708286973347    0.317132502689168    0.24069215421176218    0.19506457737685892    
  0.18173059670483102    0.1937313710452105    0.22111538653839363    0.2482416553956535    0.2592849129579714    
  0.24824170121258038    0.22111530113036146    0.19373142557529344    0.1817305149079848    0.1950646845752678    
  0.24069204351688755    0.3171326426829123    0.3980669979641907    0.4459709701977323    0.45800392302808135    
  0.30988052202231126    0.34327928713565076    0.3923972771364703    0.3722704033449021    0.3035154102740298    
  0.2509522116714885    0.23508529923839802    0.2502667966859725    0.2831071008329703    0.31414962354634945    
  0.32625588672533373    0.3141495461285784    0.28310714240462725    0.25026668770445387    0.23508536262109278    
  0.2509521158129913    0.30351557696425774    0.3722702615719882    0.3923973811839683    0.3432792805622199    
  0.30988052202231126    0.1413042599008544    0.19448016755969466    0.3269715211876876    0.39881867242746244    
  0.3577606944148453    0.3026651711115758    0.2847785389440029    0.302738702773135    0.3383251193263479    
  0.36838825578385026    0.3788968768121922    0.36838827022093895    0.3383250826967378    0.3027387776526077    
  0.2847783886634268    0.30266531176137684    0.3577605357803432    0.3988187844473351    0.32697145332487254    
  0.19448017837098952    0.1413042599008544    0.08764838783845595    0.13815004632574868    0.28926168370854977    
  0.40267615457409994    0.3790846852081077    0.3242115733506192    0.3055045974580459    0.32449092167323124    
  0.3605634589365956    0.3887755953228102    0.3977904899838279    0.38877561641605923    0.3605635079253387    
  0.3244908314954094    0.3055047257283329    0.32421151211823596    0.37908477675863284    0.40267603902467364    
  0.2892617966914721    0.13815003422520356    0.08764838783845595    0.14130423946138576    0.19448016088344308    
  0.3269714644065299    0.3988186759216845    0.3577606404210732    0.3026651878059747    0.28477849604240224    
  0.30273872510655914    0.3383251664745848    0.36838829909043475    0.3788967662543613    0.36838827799891133    
  0.3383250755900713    0.3027387997692218    0.28477837944510553    0.3026653384206831    0.3577605534141819    
  0.39881877365773605    0.3269714495721444    0.19448018122245536    0.14130423946138576    0.3098805572823381    
  0.34327927840391764    0.3923973170523934    0.37227034235940976    0.30351547857320277    0.25095221339730506    
  0.23508531880782504    0.250266742945301    0.2831071228346937    0.3141495942380906    0.3262559539258515    
  0.314149484557642    0.2831072005316378    0.2502666663886651    0.23508539359255884    0.25095209268964874    
  0.3035156116565985    0.372270200225879    0.39239740552188684    0.34327922935653504    0.3098805572823381    
  0.45800387109358726    0.44597101330873806    0.39806700982829585    0.3171326044041457    0.24069209807207623    
  0.19506461954643942    0.18173057644685087    0.19373139508662968    0.2211153130893468    0.2482417159342894    
  0.2592848665103245    0.24824172263561914    0.22111529981994138    0.19373148238482585    0.18173046387931116    
  0.1950647313899904    0.24069198152953045    0.31713266388379774    0.39806696048187407    0.44597102524834564    
  0.45800387109358726    0.46580247615347536    0.43352348373571103    0.3536749828560076    0.2633027226204002    
  0.19356495640031918    0.15482170618355992    0.1435428928425287    0.15320398394372964    0.175324968474586    
  0.19745951012388555    0.20671670706382309    0.19745940983039117    0.1753250338295925    0.15320390158341646    
  0.14354296275356956    0.1548216469436859    0.19356504790749943    0.26330266431077937    0.35367507336914933    
  0.4335234158167446    0.46580247615347536    0.43763305446380496    0.40385035286723353    0.32360136222209096    
  0.2373891930629686    0.1729784957229118    0.13736814188998503    0.12684945888021218    0.1354492679859646    
  0.15512545800388342    0.1750010324277186    0.1835095678613383    0.17500108324946576    0.15512538929980055    
  0.1354493506430827    0.12684935783568516    0.13736825254748236    0.1729783814411093    0.23738926969458696    
  0.3236013096955262    0.4038504377762314    0.43763305446380496    0.4455940981591468    0.4128286457469314    
  0.3331545072978745    0.24553479182293086    0.17935377633673288    0.14255226556847048    0.13155334326358334    
  0.14041293710099761    0.16104075524356254    0.18198356950197145    0.190926258084106    0.18198353809278156    
  0.1610408196601965    0.1404128792055455    0.13155341920938582    0.14255215777961083    0.17935385780622176    
  0.24553472677664748    0.33315456906647783    0.41282861665896453    0.4455940981591468    0.45748339235192903    
  0.4344329711606589    0.36830870266337684    0.2817809107673411    0.2095241151528787    0.16788720863245168    
  0.155494484784657    0.16600551054429688    0.19063804052714553    0.2158036237811221    0.22643680044396133    
  0.21580364476659328    0.1906379714882267    0.16600557984576578    0.15549436743497716    0.1678873047515678    
  0.20952401915294244    0.281781035709194    0.3683086782417472    0.43443300664147544    0.45748339235192903    
  0.3916335189099804    0.3987614895041471    0.387864669844453    0.3278819967723805    0.25402091293864953    