#     DFTpy    
  CRYSTAL 
    
  PRIMVEC    
  7.5361020438238535    6.010943617889655e-07    9.923541030344826e-07    
  6.010945046027585e-07    7.536104628118968    1.003207394682069e-06    
  9.923542299544826e-07    1.0032074177165516e-06    7.536104105763491    
  PRIMCOORD    
  16    1    
  Si    1.1120292208582852    6.424074209162122    2.6560232082093074    
  Si    6.424073351650793    1.1120316134321333    4.88007981702054    
  Si    1.112030353706753    1.1120306319959339    1.1120310233587596    
  Si    2.656027109180265    2.656028212172363    2.6560279346738453    
  Si    6.424071524218896    2.6560233935454773    1.112029776746814    
  Si    1.112028972341819    4.880084051679786    6.424074150389381    
  Si    2.6560223990659404    1.1120318414237669    6.424074756819701    
  Si    4.880079542816469    6.424075951436286    1.1120298672918683    
  Si    4.8800791620592205    2.6560286556819506    6.424078266852156    
  Si    2.6560243641187795    4.880077432127627    1.1120262107978542    
  Si    4.880076662669254    4.880081180805819    4.880079713803005    
  Si    6.424073565098803    6.424077115667791    6.424075709173588    
  Si    2.6560274046078343    6.424080526853307    4.880079980021329    
  Si    4.880075547356365    1.112025797945358    2.656025376987757    
  Si    6.424076259326582    4.88008049171196    2.656028113311875    
  Si    1.1120261230022006    2.6560262898273224    4.880077369038019    
  BEGIN_BLOCK_DATAGRID_3D    
  3d_datagrid_density    
  BEGIN_DATAGRID_3D#0    
  33    33    33    
  0.0    0.0    0.0    
  7.5361020438238535    6.010943617889655e-07    9.923541030344826e-07    
  6.010945046027585e-07    7.536104628118968    1.003207394682069e-06    
  9.923542299544826e-07    1.0032074177165516e-06    7.536104105763491    
  0.05206229718725019    0.05375903883837487    0.058391523399644533    0.06476344093919512    0.07116120509305303    
  0.07599506853120568    0.07859058514683072    0.07943394651943816    0.0795517585210637    0.07943403166452695    
  0.07859063261525485    0.07599527992810447    0.0711613047103728    0.06476366450743112    0.05839165206299245    
  0.053759286471026214    0.0520624382477531    0.05375935759562648    0.05839191100252468    0.06476384829069282    
  0.07116178955341552    0.07599542994668614    0.07859113422629661    0.07943409752896248    0.07955224102787789    
  0.07943400117150064    0.07859099164008765    0.07599515853488722    0.071161576744623    0.06476346762692203    
  0.058391745072393884    0.05375906412868602    0.05206229718725019    0.053759044497585146    0.062071272091153415    
  0.07406862980425309    0.08807625047693704    0.10125173150865228    0.1110015389843486    0.11650739302455561    
  0.11863005587013052    0.1190423380152544    0.11863017145301152    0.11650762391828443    0.11100173178003774    
  0.10125204088268809    0.08807638436380026    0.07406896054064696    0.062071400828783055    0.053759322763227146    
  0.04947238193889924    0.048555687973245    0.04983272792502239    0.051959101606088735    0.0537875472751358    
  0.054753948426818695    0.055011106410757946    0.05503358276090425    0.05501110324277553    0.05475382092801452    
  0.05378748898621346    0.05195890305899533    0.04983260809343459    0.04855547284662293    0.04947227242914165    
  0.053759044497585146    0.058391535060419254    0.07372380678459046    0.09462406529641892    0.11858233809756452    
  0.14105335384019685    0.15788907678443548    0.16780180320980673    0.17208879624107087    0.17310508998146817    
  0.1720889421670396    0.1678019726612118    0.15788951529247838    0.14105363755840425    0.11858276300535284    
  0.09462427356558585    0.07372412989053749    0.05839164371736099    0.04881961622597798    0.04384307800725081    
  0.041919647542094506    0.04158857722400839    0.04178660705469766    0.041931706051243106    0.04192973826620965    
  0.041912705296091333    0.04192973846577049    0.04193171647615982    0.041786565262767965    0.0415885368334179    
  0.041919494359350544    0.04384302854626346    0.048819416439483676    0.058391535060419254    0.06476346982835036    
  0.08655643413588197    0.1162606650497002    0.15034611913204068    0.1826387623039193    0.20760266034658723    
  0.22311382195404653    0.23044833356117206    0.23239196142437973    0.2304484851940952    0.22311419770280064    
  0.2076031224866462    0.18263935843607104    0.15034648364464503    0.11626115721875893    0.08655662354405395    
  0.06476373018895255    0.05090063138369968    0.0431254635484203    0.0393394945911538    0.03778523624318324    
  0.03723609689130701    0.03700851154255768    0.03687326796990673    0.036830210364008735    0.0368732845169425    
  0.037008516797042056    0.03723610507277439    0.037785166886192385    0.03933951656531567    0.04312532287148664    
  0.05090058967542691    0.06476346982835036    0.07116119108067229    0.09697679996562408    0.13240379464504443    
  0.17334429605404475    0.21237806075462176    0.24329346598163437    0.26362625525616373    0.273812761183283    
  0.27657856462140895    0.27381302719909256    0.2636265418213734    0.24329410934068676    0.21237849432660044    
  0.17334488984651386    0.13240409757775615    0.09697719227201618    0.0711612825821128    0.05481620381190122    
  0.045666959143497034    0.04118991079384869    0.0393147246296967    0.038645069342270966    0.038390312623974285    
  0.03826802623430106    0.038233266368135226    0.03826803600487515    0.038390366628401576    0.03864508005180721    
  0.03931477625779846    0.04118983447815131    0.045666975649737825    0.054816051196086256    0.07116119108067229    
  0.07599512157838592    0.10168413168624785    0.1371929378565637    0.17862583147807923    0.2183371911309935    
  0.2500800228088156    0.27150572671668777    0.28228358515811336    0.28510269671810096    0.2822837777968098    
  0.2715060847442348    0.2500804435819025    0.2183378601628019    0.1786261684605527    0.1371934658389525    
  0.10168434499372121    0.07599541051803937    0.059952905442816284    0.05137181259183801    0.047626862028063245    
  0.04647272291724916    0.04637728632252114    0.04647369617132474    0.04648569363279703    0.04647842029097696    
  0.0464857578081495    0.046473730788553    0.04637746333618401    0.04647270449438966    0.047626955647752704    
  0.05137173049607327    0.059952894491554436    0.07599512157838592    0.07859055391185987    0.09962744813552213    
  0.12926878560597677    0.16429425084797453    0.19821146938706102    0.22524842029615727    0.24304390031240403    
  0.2516203125350046    0.25376793254530344    0.2516205701865963    0.24304415197832743    0.2252489775354852    
  0.19821182476510457    0.16429476952007221    0.12926905184603896    0.09962781483508226    0.078590666598819    
  0.0662203705725335    0.06074741426641268    0.05974914975155104    0.060911228500631825    0.062497257927281356    
  0.0635039944571948    0.06381982295291201    0.06386022252008458    0.06381989727222043    0.06350412487500416    
  0.062497383500098494    0.06091136887255435    0.05974909100942824    0.06074745988081886    0.06622019571927566    
  0.07859055391185987    0.07943396288818949    0.0923434893423947    0.11226527831954992    0.13665050556710526    
  0.16067190557295252    0.17955679205248493    0.19127877838682916    0.19658995059577428    0.19791067536971524    
  0.1965900069865914    0.1912790431577788    0.17955705137865796    0.1606723304692577    0.1366507622237412    
  0.1122657167979733    0.09234369381796878    0.07943428944979332    0.07389977967748228    0.07448046219203876    
  0.07899710371227854    0.08487993768280412    0.08987745358724221    0.0928107306935313    0.09393112774092557    
  0.09417456230953639    0.09393123480653419    0.0928108520373879    0.08987768574110137    0.08487997866474893    
  0.07899716898421516    0.07448032648192143    0.07389970937176364    0.07943396288818949    0.07955180479223174    
  0.08295176749229806    0.09238091861531973    0.10566139711989483    0.11937652978404005    0.13018378173617062    
  0.13659031662042334    0.13932787760597465    0.140007073255754    0.13932797120176174    0.1365903958850475    
  0.13018406327781185    0.11937671174419894    0.10566170138554506    0.09238115644532446    0.08295214119113747    
  0.07955201138221178    0.08295216295052714    0.09238129893631636    0.1056616141172453    0.11937684197295456    
  0.13018357856242438    0.13659033197639492    0.13932735477027633    0.14000708343638352    0.13932738683936702    
  0.13659051761730379    0.13018364119295722    0.11937684224774482    0.10566136316021046    0.09238115982928398    
  0.08295176477241742    0.07955180479223174    0.07943403545215465    0.07389971037436605    0.07448032752184969    
  0.07899705368542387    0.08488005872468943    0.08987754169834422    0.09281112364943474    0.09393123942455599    
  0.09417511827602529    0.09393124251301208    0.09281123230267412    0.08987760811027425    0.08488029435396416    
  0.07899719156902313    0.07448069111171311    0.07389995301447529    0.0794345232073532    0.09234413045641734    
  0.11226600509481216    0.13665136664068028    0.160672432656659    0.17955747340289643    0.19127870686093826    
  0.1965902740371413    0.19791020936338902    0.19659030881361145    0.1912785965061583    0.17955741673077594    
  0.16067198882846548    0.1366509866369655    0.11226544856482501    0.09234371650754651    0.07943403545215465    
  0.07859076314467794    0.06622027023673865    0.06074745134582399    0.059749201724373056    0.0609112867355731    
  0.06249753672278591    0.06350410812637712    0.06382017726468814    0.06386029035648971    0.06382025729666044    
  0.06350411630345494    0.06249767013048379    0.06091136653320518    0.05974942411277427    0.06074767013843564    
  0.06622073543159736    0.07859120786226084    0.09962842630992477    0.12927012057468723    0.1642955719839859    
  0.1982131579556041    0.2252494115490499    0.24304525162019847    0.2516206272245412    0.2537688769198613    
  0.25162034721381027    0.24304482351881787    0.2252487753443792    0.19821241991825705    0.16429452176409862    
  0.12926938669806573    0.09962762015174877    0.07859076314467794    0.07599526690124973    0.05995301843232237    
  0.05137177490335432    0.0476269371992991    0.04647280974436478    0.04637735713656084    0.046473932614935945    
  0.046485745132525146    0.04647863131974896    0.0464857581992974    0.046474008519534114    0.046377418214195984    
  0.046472983494507084    0.04762707446546919    0.05137214000346409    0.059953366143829276    0.07599602695367054    
  0.1016854660879008    0.13719463128709114    0.17862816042950394    0.21833931852880337    0.2500825624993585    
  0.2715072346783385    0.28228561056032897    0.2851034123699677    0.28228518582050127    0.27150623789554745    
  0.2500814740431453    0.21833785078424645    0.1786268572324907    0.13719335292317666    0.10168465955465204    
  0.07599526690124973    0.07116150888890925    0.05481612721601659    0.04566704990192053    0.04118991450136333    
  0.039314741976324306    0.03864515857172714    0.03839032845961997    0.03826821454561453    0.038233278112788    
  0.03826827138478883    0.03839037151866454    0.03864533402901406    0.0393148602898826    0.04119018952962817    
  0.04566731609953347    0.054816691738250115    0.07116214659576664    0.09697824500114761    0.1324059605757642    
  0.17334672792390804    0.21238125567889563    0.2432960012954485    0.2636292989533231    0.27381448866474456    
  0.2765809205651562    0.2738138488893378    0.26362816340837075    0.24329442911429242    0.21237953707924956    
  0.17334486238396055    0.1324046634792564    0.09697706334573865    0.07116150888890925    0.06476362167280085    
  0.05090075085959058    0.04312535650997034    0.03933953306940258    0.03778519675231757    0.03723603697867802    
  0.037008582860273975    0.036873249278569456    0.036830329301751334    0.03687330397267407    0.0370087344087486    
  0.03723620849413984    0.03778551057606    0.03933974603380951    0.04312581696900066    0.05090119575796599    
  0.06476444332179469    0.08655796166853343    0.11626261101006498    0.15034892710997627    0.1826413981364944    
  0.20760597532007985    0.22311613073148442    0.23045116545571728    0.2323933299220935    0.2304504921139048    
  0.22311483299629448    0.20760449467413167    0.18263950682460114    0.1503473238884522    0.11626112467321154    
  0.08655698553934439    0.06476362167280085    0.058391829796350034    0.04881946188033306    0.04384308391362999    
  0.04191953238376562    0.04158850951793701    0.041786553426137796    0.04193163160615998    0.04192980868146982    
  0.04191270514391479    0.041929968120830774    0.04193185891253048    0.041786950352974805    0.04158884491838515    
  0.04192000154702502    0.043843513570503735    0.04882009883033279    0.058392483326090296    0.07372504787015154    
  0.09462590091399807    0.11858432357606452    0.14105611077245006    0.15789117294402624    0.16780450910376105    
  0.17209034270717463    0.17310716161994918    0.17208972916293602    0.16780349424695082    0.15788982556374653    
  0.14105461325291316    0.11858273142122014    0.09462478696106158    0.07372398027349955    0.058391829796350034    
  0.05375909914887564    0.04947243274014744    0.048555455534993644    0.04983261337191552    0.0519588683416406    
  0.05378734232253576    0.05475385090732113    0.055011062821133494    0.05503380571565288    0.05501130589295758    
  0.054754330062869984    0.05378796135847085    0.051959580406189886    0.04983318987301507    0.048556193789020034    
  0.049473008373979756    0.05375989768832484    0.06207241455497785    0.07406987276154291    0.08807802207868462    
  0.10125325440723937    0.11100364612241569    0.11650867847397103    0.118631842053636    0.11904305210528018    
  0.11863148197053737    0.11650788147640337    0.1110026940323388    0.1012520803982757    0.08807696734379075    
  0.07406885493886864    0.06207166862053414    0.05375909914887564    0.05206252995270811    0.05375907943415709    
  0.05839177142903198    0.06476347503090935    0.07116145593319169    0.07599507409724844    0.07859087522600894    
  0.07943410871988436    0.0795523163179709    0.079434587476574    0.07859162856063875    0.07599618863780157    
  0.07116251666158367    0.06476455529260107    0.05839265806219722    0.05375993434818333    0.052063165748304545    
  0.05375984374241203    0.05839262094566811    0.06476434346088468    0.07116255750102038    0.0759959187305009    
  0.07859185548061096    0.0794344932219472    0.0795528190438906    0.07943420462066446    0.0785914076064235    
  0.07599526677056077    0.07116187877774909    0.0647635011884905    0.05839199270019838    0.053759070296515915    
  0.05206252995270811    0.053759055237363886    0.06207166131871272    0.07406865244593851    0.08807669651868877    
  0.10125172080363637    0.11100194271808972    0.11650744821180332    0.11863071468367946    0.11904280691562538    
  0.11863145726804626    0.1165087823903909    0.11100366737567674    0.10125353411002962    0.08807816437722411    
  0.07407003980172241    0.06207252616140314    0.053759877830953456    0.049473116305042475    0.048556011532130114    
  0.04983333672372539    0.05195933862527267    0.05378810669241733    0.05475410752509911    0.05501162198195846    
  0.055033668962053126    0.055011484712161364    0.05475380663605011    0.05378778769661391    0.05195883078520481    
  0.049832877904895254    0.04855543115684111    0.04947257791323295    0.053759055237363886    0.05839198975159386    
  0.07372384610728693    0.09462470374187949    0.11858237648722346    0.1410540052407513    0.15788894135369652    
  0.16780240526148893    0.17208893171293155    0.1731063677831122    0.17209002494114142    0.16780436332627566    
  0.15789149963716434    0.1410564029122765    0.1185845954918054    0.09462627063586225    0.07372511202171587    
  0.05839273578903567    0.04881997427932704    0.04384369256621372    0.04191977369556396    0.0415890582254455    
  0.04178665428441731    0.04193212978276795    0.041929728894605396    0.04191304047360602    0.041929614536885616    
  0.04193198155782415    0.04178643053712187    0.04158882026059435    0.041919363738387894    0.04384334797964023    
  0.04881933183785081    0.05839198975159386    0.06476344077476844    0.08655714794183142    0.11626072349952973    
  0.15034700964728565    0.18263862535745984    0.2076033567043846    0.22311350939069977    0.23044925597437202    
  0.23239235361389252    0.23045060273000995    0.22311600714031762    0.20760635466123153    0.18264176518898503    
  0.15034951485797976    0.11626281413944578    0.08655838668644203    0.06476437269121715    0.050901487090481874    
  0.04312558135415145    0.03934000429822438    0.03778522429712119    0.03723649742548474    0.03700844042905179    
  0.03687361215738719    0.03683006518454711    0.03687358205135937    0.037008322685236295    0.03723636785681953    
  0.03778497814234981    0.03933980213811564    0.04312517870516072    0.05090103574408949    0.06476344077476844    
  0.07116185989743201    0.09697685065228824    0.1324047391906542    0.17334425430610528    0.21237891109243937    
  0.24329295061094236    0.26362686830999593    0.2738122613115554    0.27657979779729663    0.27381368382148863    
  0.26362932556304813    0.24329617846416363    0.2123819111051757    0.1733469792175187    0.1324066913354513    
  0.09697824559267312    0.07116259386057747    0.05481649869256278    0.04566763917154656    0.04118991041130479    
  0.03931519190590516    0.03864496925513003    0.03839069300225669    0.03826789155398458    0.038233602230654695    
  0.03826783099786693    0.0383906478812373    0.03864482996548391    0.039315059091193046    0.04118961403731083    
  0.045667375664470794    0.05481591744512786    0.07116185989743201    0.07599505691628539    0.10168502732248566    
  0.13719288233410976    0.17862684951492225    0.21833679800268016    0.2500805777495177    0.2715047301309918    
  0.28228404842593646    0.28510208849541746    0.28228519918158984    0.2715067880200256    0.2500831306273135    
  0.2183395633246497    0.1786289482188095    0.13719478561523418    0.1016860953300536    0.07599589123414309    
  0.05995383126056661    0.051371850600030834    0.04762746867969881    0.04647260516526607    0.046377778152583475    
  0.04647353662782001    0.04648614480897336    0.046478173156819916    0.04648609633864888    0.04647345738187606    
  0.04637775411610005    0.04647241589614633    0.047627284176858624    0.05137150169358718    0.059953420008803195    
  0.07599505691628539    0.0785912500415701    0.09962735677655088    0.12926970579915592    0.16429399608114148    
  0.19821221295373098    0.22524746718567273    0.24304402425792482    0.25161895486216795    0.253768206158063    
  0.25161986287605365    0.24304546410034647    0.2252494738105766    0.19821395221480695    0.16429571670882978    
  0.12927091605623459    0.09962832028229186    0.07859179451436792    0.06622048866662147    0.06074812486567918    
  0.05974905834931588    0.06091182855751357    0.06249714822453842    0.0635045899699143    0.06381963138509779    
  0.06386073826568803    0.06381955014976849    0.06350449809670951    0.06249696365168875    0.060911692200334995    
  0.05974869680902744    0.060747875559447766    0.06621996212589144    0.0785912500415701    0.07943373931032378    
  0.09234421680642779    0.11226512244192273    0.1366512315249078    0.16067134715087492    0.17955708410539648    
  0.19127763984837917    0.1965899097445133    0.19790939675897318    0.1965902330341564    0.19127841495007766    
  0.1795580914637547    0.16067249072719678    0.13665210248018378    0.11226603386209899    0.09234477541736101    
  0.07943435302155362    0.0739005648414674    0.07448037764689754    0.07899780204106592    0.0848797886707893    
  0.0898782211381475    0.09281051022671612    0.09393178952329098    0.09417424828356824    0.09393168924034542    
  0.09281032004241145    0.08987797032885712    0.08487944630670967    0.07899748020741289    0.07447990709726986    
  0.07390022024755002    0.07943373931032378    0.0795523069454084    0.08295153235186847    0.09238155650901222    
  0.10566105112227993    0.11937697818882964    0.1301830697898626    0.1365903302633353    0.1393267342541685    
  0.1400070112694169    0.13932694309865593    0.13659061858216498    0.1301835313984996    0.1193773838491099    
  0.10566156780057552    0.0923819380519429    0.08295202768026694    0.07955267734867526    0.08295194618725235    
  0.09238190296768299    0.10566133561187654    0.11937754941937424    0.13018335505116405    0.13659109710140638    
  0.13932701317114704    0.14000768895417814    0.13932681320033669    0.1365907995558669    0.130182875648062    
  0.11937711203449164    0.10566067212055254    0.09238150997725894    0.08295139493534079    0.0795523069454084    
  0.07943371581445685    0.07390017422127582    0.07448007136892447    0.07899748256776569    0.08487965461147057    
  0.08987773761235539    0.09281044515084567    0.09393121537768667    0.09417425257158597    0.0939312316508992    
  0.0928105340684798    0.08987780722679879    0.08487986686453344    0.0789975599051088    0.07448040854568658    
  0.07390034144929303    0.0794341862115028    0.09234449325201927    0.1122655217119879    0.13665180332037935    
  0.16067189018312023    0.179558067555823    0.19127824463578783    0.1965908685075539    0.1979095050052447    
  0.19659057095870522    0.19127764708649028    0.17955745667616452    0.1606710221976191    0.1366511286639628    
  0.11226482398231619    0.09234402411812404    0.07943371581445685    0.07859104888726758    0.06621997088114036    
  0.060747767024978645    0.059748931196542426    0.06091155775563028    0.062497150018306226    0.0635042075749502    
  0.06381966843362274    0.06386029797309208    0.06381969422219427    0.06350415431419078    0.06249720276669979    
  0.06091150835153964    0.059749057214155465    0.060747855604113915    0.06622030141253493    0.07859134335626959    
  0.09962781373177805    0.12927012563246415    0.16429472477601406    0.1982132069322575    0.2252485317777874    
  0.24304539780149037    0.25161967811586555    0.25376891239779853    0.2516192544283266    0.24304472855544185    
  0.2252475631781047    0.19821234125497547    0.16429360405247279    0.1292694790561615    0.09962713092036996    
  0.07859104888726758    0.07599493208939684    0.059953226978380895    0.05137156845812617    0.047627138209993446    
  0.04647257832351579    0.04637753845395159    0.04647362748487967    0.046485804873840346    0.04647829492133963    
  0.04648576914598933    0.04647361381791773    0.046377447980557276    0.046472636542095484    0.047627104193211374    
  0.05137174797122005    0.05995338172459448    0.07599542982582044    0.10168527949617087    0.13719356958359433    
  0.17862765498915584    0.2183379717714852    0.250082064931341    0.27150580801978347    0.2822851602413392    
  0.285102036139544    0.28228474230819756    0.27150488468470213    0.2500810600083233    0.21833668269070325    
  0.17862663715219174    0.1371926215231952    0.10168470731705241    0.07599493208939684    0.07116157755575836    
  0.05481593133185894    0.045667177913330165    0.04118974374459953    0.03931487379933511    0.03864496965694083    
  0.038390414314511394    0.03826798365674647    0.03823329276778687    0.038267993814077826    0.03839036390995373    
  0.03864500483166579    0.039314832530832594    0.04118983271097324    0.04566724862549938    0.054816207936524676    
  0.07116189022945478    0.09697738610988045    0.13240528343453303    0.17334531736792103    0.21238016805086712    
  0.2432943242629857    0.2636282233530425    0.2738128165291164    0.27658000208651584    0.27381231092853875    
  0.2636274659600583    0.24329319580754508    0.2123791295224065    0.17334403495960862    0.13240452063450314    
  0.09697665867742566    0.07116157755575836    0.06476337936565699    0.05090078428501054    0.04312523364198042    
  0.03933958877849283    0.03778508795109518    0.037236098611567736    0.037008451228517314    0.0368732671234031    
  0.03683014429002007    0.0368732372500337    0.0370084492764047    0.03723608080645749    0.03778518095329286    
  0.039339571388600364    0.043125429506350704    0.050900931525435456    0.06476381186228426    0.08655736191070273    
  0.1162614810590845    0.15034783690275688    0.18263975496074317    0.20760461537499847    0.2231144177388004    
  0.23044990508678553    0.23239192209409207    0.23044957777943842    0.22311370476228784    0.2076038950000466    
  0.1826386977754245    0.15034696579978382    0.11626063960117691    0.08655691705782524    0.06476337936565699    
  0.05839174788256009    0.0488193488618256    0.043843053141759514    0.04191945203606617    0.041588509714812476    
  0.041786468332403646    0.0419316019802005    0.04192968215790813    0.041912589157957716    0.04192971293567172    
  0.04193159072083403    0.041786564733093695    0.04158850188365822    0.041919565048946596    0.043843139863489033    
  0.04881961179290197    0.0583919923125787    0.0737243105843875    0.09462503056716703    0.11858314726203399    
  0.14105483926704437    0.15788982277932861    0.16780326095687137    0.17208909693581922    0.17310620888408135    
  0.17208880250516775    0.16780276951518314    0.15788914130626014    0.14105419811696435    0.11858235133072896    
  0.09462457914964802    0.07372380077711303    0.05839174788256009    0.05375902432377697    0.04947228046222932    
  0.048555407294135676    0.04983249972619205    0.051958822739497326    0.05378725127560769    0.054753799334021566    
  0.05501085726374232    0.05503356616928432    0.05501087374039233    0.05475384924896082    0.05378731801845664    
  0.05195897744793027    0.04983252746243419    0.048555633821159176    0.04947240717188207    0.05375935315690345    
  0.062071739689085914    0.0740691518616976    0.088077094050691    0.10125232715883171    0.11100259091843284    
  0.11650781597482354    0.11863094518268771    0.11904240564491243    0.11863082352140493    0.11650745470122817    
  0.11100224231853935    0.10125181420115609    0.08807670185955409    0.07406872188009227    0.06207149704157834    
  0.05375902432377697    0.05206229718725019    0.05375903883837487    0.058391523399644533    0.06476344093919512    
  0.07116120509305303    0.07599506853120568    0.07859058514683072    0.07943394651943816    0.0795517585210637    
  0.07943403166452695    0.07859063261525485    0.07599527992810447    0.0711613047103728    0.06476366450743112    
  0.05839165206299245    0.053759286471026214    0.0520624382477531    0.05375935759562648    0.05839191100252468    
  0.06476384829069282    0.07116178955341552    0.07599542994668614    0.07859113422629661    0.07943409752896248    
  0.07955224102787789    0.07943400117150064    0.07859099164008765    0.07599515853488722    0.071161576744623    
  0.06476346762692203    0.058391745072393884    0.05375906412868602    0.05206229718725019    0.05375901712183704    
  0.06207130619468953    0.07372372698934225    0.08655650231948613    0.09697671140128818    0.10168415538991414    
  0.09962741102805303    0.0923434959902706    0.08295176989470117    0.073899691603966    0.06622029057612798    
  0.059952929386975086    0.0548161756670818    0.05090065761157694    0.0488195968628515    0.04947237742123335    
  0.05375938758945865    0.06207168114421282    0.07372432336832391    0.08655722259365946    0.09697736700523063    
  0.10168494983469828    0.09962774506666718    0.0923440940770159    0.0829517834326924    0.07390004292402741    
  0.066220125424358    0.059953161262111525    0.05481600166414234    0.05090073940114634    0.04881938478218882    
  0.049472299464014435    0.05375901712183704    0.06207129629508135    0.0795890269757532    0.10294673917556156    
  0.1283609114957083    0.14899674127076828    0.15873341913614986    0.15560513895891037    0.1423889530297576    
  0.12500711894751831    0.10814824585011873    0.09369993805661014    0.08179287913670295    0.0716490760201512    
  0.06280281257447967    0.05567880608795959    0.05104289429208899    0.04947237381253625    0.05104296413585453    
  0.05509783861925642    0.06028407735439763    0.06466679679630485    0.06651444348196207    0.06524179181734335    
  0.061586389486264125    0.05693175380911281    0.05245797482551626    0.04875297587158603    0.045896385105687984    
  0.04398907981106107    0.04351694872599236    0.04539649025868404    0.051042629811849906    0.06207129629508135    
  0.0740686644410743    0.10294677575121731    0.14175212681473529    0.18389982244993738    0.21815007426796745    
  0.2351998837794053    0.23178045312645182    0.211332648241535    0.18280346706368988    0.15449755873643548    
  0.13025663488119016    0.11035352266082582    0.09334291182005765    0.07817447446848436    0.06514594550898135    
  0.05509761852836996    0.048555704366473884    0.04539652397476451    0.044866487402374984    0.045855938316115105    
  0.04712884300119601    0.04761054398771816    0.04686459863132024    0.04516952991317357    0.04307626087701524    
  0.041108278540926045    0.039586051172614566    0.03864958080255237    0.03869637090974687    0.04049712451972491    
  0.04541461294221418    0.05567876770014937    0.0740686644410743    0.08807626190763865    0.12836092482176897    
  0.18274044224058036    0.24064173113219528    0.2868140794917195    0.31162933140353305    0.311193277210018    