#     DFTpy    
  CRYSTAL 
    
  PRIMVEC    
  7.129964807929156    5.68700054866207e-07    9.388739417931034e-07    
  5.687001899834482e-07    7.129967252950881    9.491423255075862e-07    
  9.388740618731034e-07    9.491423473006896e-07    7.129966758746297    
  PRIMCOORD    
  16    1    
  Si    1.0520995023689166    6.0778666170515905    2.51288423291659    
  Si    6.0778658057534445    1.0521017660016592    4.617081503528416    
  Si    1.0521005741656708    1.0521008374572312    1.052101207728647    
  Si    2.5128879236555806    2.512888967204991    2.5128887046614827    
  Si    6.077864076805903    2.5128844082645845    1.052100028299381    
  Si    1.0520992672455534    4.617085509972493    6.077866561446241    
  Si    2.512883467379752    1.0521019817063186    6.077867135194688    
  Si    4.61708124410181    6.07786826543074    1.0521001139647617    
  Si    4.617080883864412    2.512889386812864    6.077870456063717    
  Si    2.5128853265315407    4.617079247162666    1.0520966545273112    
  Si    4.617078519172109    4.6170827938162855    4.617081405873503    
  Si    6.07786600769827    6.077869366919229    6.077868036224113    
  Si    2.512888203161903    6.077872594268399    4.6170816577447304    
  Si    4.617077463965902    1.0520962639243512    2.512886284814764    
  Si    6.077868556728144    4.617082141859221    2.512888873672313    
  Si    1.0520965714631598    2.5128871484593835    4.617079187473096    
  BEGIN_BLOCK_DATAGRID_3D    
  3d_datagrid_density    
  BEGIN_DATAGRID_3D#0    
  31    31    31    
  0.0    0.0    0.0    
  7.129964807929156    5.68700054866207e-07    9.388739417931034e-07    
  5.687001899834482e-07    7.129967252950881    9.491423255075862e-07    
  9.388740618731034e-07    9.491423473006896e-07    7.129966758746297    
  0.07160743005397135    0.07383886568159986    0.0799505593757676    0.088326860419389    0.09680921904202607    
  0.10348033307053132    0.10760985269233835    0.10948925559274301    0.10948929193531395    0.10760996863746622    
  0.10348048496622199    0.09680937985811598    0.08832711504453902    0.07995069657605264    0.07383921980674456    
  0.07160756308387038    0.07383934263644532    0.07995101491856504    0.08832741306622464    0.09680985466152149    
  0.10348090671805214    0.10761036330480772    0.1094896598080661    0.10948963517092464    0.10761016381861446    
  0.10348069247296962    0.09680954573314983    0.0883270196079718    0.07995077124300487    0.07383887030986735    
  0.07160743005397135    0.07383881990883234    0.08519166813454354    0.10123185126512262    0.11997518223727352    
  0.13810518944067657    0.15244878897832245    0.16178782554534643    0.16632803245049363    0.1663280954949165    
  0.16178801029816994    0.15244908721320943    0.13810549887356877    0.11997546636950175    0.10123226496030288    
  0.08519180859794842    0.0738391792014468    0.06776724288454226    0.06622168404188433    0.0675200512944975    
  0.06996899913720335    0.07222576325433856    0.07358315211829734    0.07410588758222315    0.07410573682164578    
  0.07358315479021199    0.0722255715011654    0.0699688378904535    0.06751985822154262    0.06622141940159987    
  0.06776710314299032    0.07383881990883234    0.07995061753159141    0.10055925375285991    0.1280982455044899    
  0.1596809875711863    0.1903489745967121    0.21578182079801747    0.23342850246305175    0.24218082243442887    
  0.24218070714641055    0.23342894138632705    0.21578205146314977    0.19034943900197024    0.15968139918621335    
  0.12809858787430942    0.10055960458548714    0.07995078872066569    0.06672324183389089    0.05961786162049141    
  0.056565610657443685    0.0556999592274632    0.05566212318059701    0.05570802292696761    0.055684178189598935    
  0.055684262833445373    0.055707851135810706    0.05566216736160721    0.055699847732028795    0.05656556045100536    
  0.05961772558721602    0.06672300580682905    0.07995061753159141    0.08832681469746213    0.11660338607158126    
  0.15439833933688335    0.1978150874606164    0.2405364411447768    0.277818788405085    0.3052971030765933    
  0.3192294772855088    0.31922974805671783    0.3052972155641292    0.2778194996375008    0.24053679927541724    
  0.19781573073504005    0.15439874220619457    0.1166036772218961    0.08832707078585667    0.06978772763457503    
  0.059096926848331996    0.053650555894257615    0.05117993483994515    0.05014028681073375    0.049699579398756466    
  0.04951490813332656    0.04951474266493525    0.04969975230066502    0.05014020928751777    0.05118000066678125    
  0.053650452334316964    0.05909685546925502    0.06978761573943913    0.08832681469746213    0.09680928081394359    
  0.12890088389207272    0.17179918801403152    0.2211088933010627    0.27041464327831394    0.3149157741888247    
  0.3490235184747934    0.36698262500210943    0.3669822762592356    0.3490243275092628    0.31491602760943055    
  0.2704154869985327    0.2211092179174771    0.17179977441883726    0.1289011703480827    0.09680954045329779    
  0.07586445794265922    0.06384562612315889    0.05775585242099939    0.0550575913368713    0.05401225957809236    
  0.0536228857513725    0.05345214352455317    0.05345232882232819    0.053622777109725094    0.05401249408738217    
  0.05505753161887191    0.05775598604893994    0.0638455219491015    0.07586435893165926    0.09680928081394359    
  0.1034803933041556    0.13354661929374287    0.17401368923239788    0.2206940989388631    0.2677404666256567    
  0.3102740206468293    0.3429502398732385    0.36051324806311397    0.3605138710478455    0.34295016018930014    
  0.3102747974884894    0.2677406251579556    0.2206948814515057    0.17401392881056377    0.13354708479386262    
  0.10348052494087366    0.0843260544820041    0.07399169156427814    0.06951793110126196    0.06829162162513555    
  0.06839970965491472    0.06874343109475507    0.06891097072366105    0.06891078383323893    0.06874367666636239    
  0.06839962632516326    0.06829187544556432    0.06951785589933393    0.07399174872059584    0.08432584311217556    
  0.1034803933041556    0.1076097637175354    0.1297361087030966    0.16077356307533722    0.19717395043624572    
  0.2338421815785646    0.2663768949298076    0.29070923385430103    0.3035922027335095    0.3035917166180715    
  0.2907101718682713    0.2663767733503576    0.23384313540124269    0.19717393816447243    0.16077432329784733    
  0.12973619791014063    0.10761019206761337    0.09491076615517266    0.09005729261388948    0.0904675547662631    
  0.0934011474895758    0.09662096830989664    0.09898856711291196    0.10017576138654675    0.10017605222888634    
  0.09898835341079329    0.09662141627717172    0.09340100767376693    0.09046784599066512    0.09005704003353018    
  0.09491080577213169    0.1076097637175354    0.10948955483575067    0.11981384233402993    0.13754093651108    
  0.15987633208862276    0.1828127136760306    0.20280409844555877    0.217232940578702    0.22463333745229158    
  0.2246339899782957    0.21723248555552419    0.2028049471062148    0.18281246434037715    0.15987722746076682    
  0.13754093453867983    0.11981456506880304    0.10948957884548519    0.10720778961871688    0.11197202187710027    
  0.12140927033479958    0.13234630430699929    0.14197834483856886    0.14874190586893163    0.15214526068115355    
  0.15214480499325633    0.14874250775947934    0.14197800667633773    0.1323467129248348    0.1214087783805162    
  0.11197216220422132    0.10720722928252183    0.10948955483575067    0.10948892688846786    0.10720789208449631    
  0.11197138593351458    0.12140954433167551    0.13234589630697002    0.14197887701224599    0.14874196017362165    
  0.1521458647547708    0.15214519533063772    0.14874281069386852    0.14197834350162328    0.1323467844186661    
  0.12140921212575108    0.11197224809102203    0.10720780522106224    0.10948984236564811    0.11981469393381637    
  0.13754130241151857    0.15987716283710343    0.1828128337871156    0.20280441199017663    0.2172327068059007    
  0.2246330699458525    0.22463372906276102    0.21723211007900226    0.20280497768751085    0.18281199925064018    
  0.15987732062138205    0.13754039186017292    0.11981469515503353    0.10948892688846786    0.10761051808082013    
  0.09491024284352666    0.09005774709567646    0.0904672099744744    0.09340171594671468    0.09662082838160732    
  0.09898918196849563    0.10017586749992761    0.10017654496085691    0.09898858337417066    0.09662168012207775    
  0.09340119440127023    0.09046812132039708    0.09005745293813817    0.0949112763564477    0.10761058587873829    
  0.12973697393971464    0.16077496727815832    0.19717495243536023    0.23384352410938183    0.2663776869631546    
  0.29070994767186353    0.3035926452549602    0.30359162391771555    0.2907105695609917    0.26637633347624057    
  0.2338435476561807    0.19717354271873871    0.16077475927137463    0.12973567701646654    0.10761051808082013    
  0.10348003576853756    0.08432652239889867    0.07399123465577288    0.06951848606466447    0.06829134051330277    
  0.06840031956377822    0.06874332018119002    0.0689114217680029    0.06891080123473259    0.0687440266435957    
  0.0683997800230133    0.06829213475161297    0.06951807095560068    0.0739922640076667    0.08432644359453749    
  0.103481414503925    0.1335480258109886    0.17401551040998156    0.22069623507376782    0.26774259691457725    
  0.3102759249162733    0.34295205087901653    0.36051443758011653    0.3605151485304725    0.3429504045564213    
  0.31027574711633865    0.2677403215294755    0.22069566272947044    0.1740134836966269    0.13354766441142918    
  0.10348003576853756    0.09681008599925063    0.07586399384519343    0.0638460877673742    0.057755501595552344    
  0.05505807984681611    0.05401199711275372    0.053623266993144916    0.05345205527903324    0.05345263288714379    
  0.05362280609348951    0.05401275142375146    0.0550576679661449    0.05775640804853788    0.06384591249010947    
  0.07586520093406258    0.09681035819404363    0.12890264092113313    0.17180140551756945    0.22111154161759958    
  0.27041743804376234    0.31491879435998477    0.34902610187166644    0.36698515827439643    0.3669836853339585    
  0.34902601526572974    0.3149163981989222    0.27041655917936125    0.22110902797020116    0.1718006006909727    
  0.1289007873470941    0.09681008599925063    0.08832664528047227    0.06978814521206447    0.0590964770126381    
  0.05365093548886802    0.05117956037166193    0.050140642143284495    0.04969936834564834    0.04951520364088972    
  0.04951472171408288    0.04970003216659488    0.050140329472729984    0.051180394847154115    0.05365073272934695    
  0.05909755097376113    0.06978825943585046    0.08832813736084212    0.11660498891587023    0.15440081320479626    
  0.1978178644870954    0.24053977171885899    0.2778218877297145    0.3053003927744404    0.3192317848930248    
  0.3192321939122762    0.30529831730515655    0.27782100459816184    0.24053705574359466    0.1978166162631489    
  0.1543985407758541    0.11660431119616914    0.08832664528047227    0.07995122184319418    0.06672275630133112    
  0.05961819199444621    0.05656514565819793    0.055700258406688595    0.05566176304562205    0.05570827158664243    
  0.05568407462489794    0.05568459442925189    0.055708028171171174    0.055662645053187125    0.05570016419205586    
  0.05656621368373298    0.05961830536525381    0.06672401372859257    0.07995172496553658    0.10056101394452491    
  0.12810028072142007    0.15968368519091164    0.19035171133688572    0.21578479184706395    0.23343101387616974    
  0.242183397911397    0.24218226286864417    0.23343064201785085    0.2157826803052697    0.19035058982258968    
  0.15968140501446565    0.12809925664019078    0.10055931729881208    0.07995122184319418    0.07383873326074403    
  0.06776753975670233    0.06622110820035244    0.06752025150355949    0.06996837764846722    0.07222590917362673    
  0.07358278459876405    0.07410615988090723    0.07410585867297534    0.07358376478649897    0.07222609642796486    
  0.06996971100162536    0.06752059089606231    0.06622245519652849    0.06776794069568082    0.07384008728170528    
  0.08519297226113388    0.10123364402112936    0.11997706784505413    0.13810743138801027    0.152450797823551    
  0.16178995043839342    0.16632950750111283    0.16632967220271533    0.1617887057527485    0.15245018355402035    
  0.1381056580593011    0.11997618763626379    0.10123205341607754    0.08519225397143819    0.07383873326074403    
  0.07160787240953409    0.07383867889343744    0.07995119195604798    0.08832655976633078    0.0968098610043937    
  0.10348014576897925    0.10761051462411418    0.1094894671171908    0.10949026865652976    0.10761079501691329    
  0.10348186608347607    0.0968106101541642    0.08832840144740968    0.07995188413254874    0.07384015424198584    
  0.07160844082876353    0.07384011722972558    0.07995175108449949    0.08832831230891823    0.09681051271616024    
  0.10348181956524173    0.1076109075334137    0.10949050596524959    0.10948990929435284    0.10761089757204806    
  0.10348070164165606    0.09681003770338922    0.08832701808045032    0.07995114780715303    0.07383885424714319    
  0.07160787240953409    0.07383876799876495    0.08519232003184375    0.10123165721498206    0.11997609714331363    
  0.1381049001539186    0.15244958214634674    0.16178786037532022    0.16632911322328783    0.1663289275923514    
  0.16178981084795813    0.1524507782465299    0.13810762607744706    0.11997728850322752    0.10123386321479132    
  0.08519311118933669    0.07384017077539189    0.06776794567414503    0.066222417518007    0.06752048460214477    
  0.0699696820753821    0.07222607764607311    0.073583741672758    0.0741060127307992    0.07410627475194638    
  0.07358309371013544    0.07222600884870649    0.06996878191823902    0.06752019230079884    0.0662214300483938    
  0.06776746318390556    0.07383876799876495    0.07995119827338548    0.10055916748471187    0.12809926747776346    
  0.15968073965617027    0.1903499837312283    0.2157814847470895    0.23342948580016892    0.24218123872128222    
  0.2421825819026191    0.23343063690543486    0.21578490755805066    0.19035184141727055    0.15968400402989164    
  0.12810058256067097    0.10056121361280074    0.07995182394983724    0.06672408680511194    0.05961827420062613    
  0.0565662011605581    0.05570013023809102    0.055662624272980465    0.05570805612977803    0.055684620492621864    
  0.055684133520155846    0.05570827985068183    0.055661969288356664    0.05570016686469462    0.05656543181976945    
  0.05961807817208574    0.06672297404287748    0.07995119827338548    0.08832677159618568    0.11660438603510409    
  0.15439812378493753    0.19781639419410582    0.24053591383028466    0.2778198807188907    0.30529676998523575    
  0.3192308488868764    0.3192306516727305    0.30529995509734326    0.27782172632250396    0.24054013033685231    
  0.19781829807313994    0.154401253100184    0.11660530546623894    0.08832832906354651    0.06978833812972379    
  0.05909761432196787    0.05365072904550843    0.05118041487414563    0.05014028350903761    0.04970002188873883    
  0.04951479143030954    0.049515152349830324    0.04969947840958987    0.05014055814063643    0.051179797788486414    
  0.05365074893312831    0.05909672936048897    0.06978809720473252    0.08832677159618568    0.0968101597693923    
  0.12890071837644354    0.17180055250838658    0.22110835214874708    0.2704158844311965    0.3149149188830985    
  0.3490244095912311    0.3669820312779091    0.3669838915194004    0.349025350755609    0.314918889704364    
  0.2704175629959652    0.22111209599928408    0.17180188685370457    0.12890298791632684    0.09681054632122348    
  0.07586534508285908    0.06384593326050017    0.057756428284708776    0.055057609321554506    0.054012722137996995    
  0.05362278544178382    0.053452618746172124    0.05345205282879558    0.05362319662551194    0.05401212833408888    
  0.05505788963188362    0.05775571568612642    0.0638459593308849    0.07586421710641837    0.0968101597693923    
  0.1034801688632802    0.1335478580826479    0.1740132132672619    0.22069549598559982    0.26773935994653164    
  0.310274750217369    0.34294882451234154    0.36051378672866535    0.3605131862768065    0.34295169214842847    
  0.3102757023628815    0.2677428897825175    0.220696601274736    0.1740159303539178    0.13354839089024448    
  0.10348167581053323    0.0843266050709292    0.07399232911889625    0.06951805164005949    0.06829218128403636    
  0.06839966822213378    0.06874391900782496    0.0689107579711783    0.06891128239050838    0.06874328295233811    
  0.06840008671437217    0.06829144142199921    0.06951828461243598    0.07399146067298967    0.08432647743720581    
  0.1034801688632802    0.10761072161170493    0.12973567279843812    0.16077491704532476    0.19717301930048925    
  0.23384322874878355    0.2663753721432868    0.29070949941509155    0.30359053864623026    0.3035919293302113    
  0.290709523134182    0.26637790720680127    0.23384368713155987    0.19717546110290562    0.1607754375339618    
  0.12973733611992339    0.10761091669080715    0.09491152526307206    0.09005751978930163    0.09046818115349688    
  0.09340122061897371    0.09662157144942575    0.09898843526921879    0.10017639019334532    0.10017564625551073    
  0.09898892109318994    0.09662081265924603    0.09340143987178005    0.09046733003200746    0.09005762340752871    
  0.09491039959803728    0.10761072161170493    0.10948899783003121    0.1198150201471504    0.13754012607685978    
  0.15987753516494327    0.1828114862311679    0.20280464665010856    0.21723130082262881    0.22463320561035974    
  0.22463255162563858    0.2172326871876053    0.20280440783759693    0.18281312870070898    0.15987748373291286    
  0.13754167772135434    0.11981506980910905    0.10949018379583653    0.10720805697086157    0.11197251890325759    
  0.12140935606719282    0.1323469298339198    0.1419783020843624    0.14874263030768448    0.1521449368710406    
  0.15214548122292587    0.14874175519049904    0.14197857799112695    0.13234589060177382    0.1214092796543858    
  0.11197151975521513    0.10720798451791336    0.10948899783003121    0.10948987972865061    0.1072071401207891    
  0.11197253059812436    0.12140853678561757    0.13234678255615412    0.14197761416349125    0.14874224243792644    
  0.15214455726315343    0.15214518204463953    0.14874179519789937    0.14197851747075793    0.13234643035939397    
  0.1214094836592387    0.11197234891168124    0.1072080355082965    0.10948998085841898    0.11981494296257424    
  0.137541238692828    0.15987753545543268    0.1828126656401205    0.2028050109783252    0.21723240753726458    
  0.22463370035039626    0.22463296130898278    0.21723264574342607    0.20280381636603032    0.18281244422938045    
  0.15987630457743301    0.1375409512074904    0.11981393964035639    0.10948987972865061    0.10760970828965911    
  0.09491118084238873    0.09005684524380739    0.09046816121763385    0.09340076886319966    0.09662138746530759    
  0.0989881600391525    0.1001760145444658    0.10017558972994542    0.0989886133587785    0.09662102849496255    
  0.09340126196990009    0.09046784244236877    0.09005742283533531    0.09491122150925514    0.10761046820044208    
  0.12973675110355148    0.16077480149814222    0.1971744921441132    0.23384349907204433    0.2663770729164109    
  0.2907101706420394    0.30359167880710636    0.30359190977432204    0.2907091850812576    0.26637662094446823    
  0.2338421060060695    0.19717389324639564    0.16077364896983215    0.1297363461803796    0.10760970828965911    
  0.10348075004812163    0.08432569031373982    0.07399211356530871    0.06951766957370062    0.06829202705900428    
  0.06839956068657284    0.06874364919385965    0.06891073141463912    0.06891092889427994    0.06874341364464803    
  0.0683997724792296    0.06829169280750047    0.06951796258943013    0.07399202983842641    0.08432615147362948    
  0.10348105428002184    0.13354758134964773    0.17401477118263178    0.22069561405285107    0.26774150860037055    
  0.3102753312557095    0.34295065877939257    0.36051412115594766    0.36051337970858593    0.3429503786031728    
  0.3102739868798632    0.26774057197025874    0.22069424784147182    0.17401388655935232    0.13354669989094978    
  0.10348075004812163    0.09680927088988851    0.0758646927904937    0.06384533592057115    0.05775617825921016    
  0.05505742130505941    0.054012461635409556    0.05362271842214734    0.0534523092691815    0.05345213873582065    
  0.05362285443954644    0.05401230022982957    0.05505755699567573    0.057756054128705984    0.0638456269271302    
  0.07586487943808436    0.09680979037447435    0.12890195991192396    0.17180044484952428    0.22111017814491926    
  0.2704163140335403    0.3149170815907981    0.34902493603001544    0.3669831239929949    0.36698295738214676    
  0.3490240260673664    0.31491619303324103    0.2704149568151918    0.2211091452509003    0.17179947230379802    
  0.12890123207227666    0.09680927088988851    0.08832707977648206    0.06978749996910824    0.059097050819012495    
  0.053650308187126704    0.051180063094518564    0.050140136175416135    0.04969965539615795    0.04951475832407341    
  0.049514824054470316    0.0496996094084917    0.05014022940012014    0.051180012110503506    0.053650417376566464    
  0.05909718771316974    0.06978772647853913    0.08832758121169104    0.11660408769960105    0.15439969069813742    
  0.1978165835670841    0.24053804032065393    0.27782032524105577    0.3052983108418172    0.31923058382530306    
  0.3192301369261625    0.3052977401849882    0.27781933887957877    0.24053693798762021    0.19781547161928537    
  0.15439869685318697    0.11660352684264813    0.08832707977648206    0.07995063117570354    0.0667231564097976    
  0.05961759074173474    0.056565583454848994    0.05569969836995968    0.05566210010701541    0.055707830438592225    
  0.05568416240573895    0.0556840935124974    0.055707863096060205    0.055662082978924714    0.05569976863928791    
  0.05656568192049719    0.059617723861481904    0.06672350058364125    0.07995091302511671    0.10056018890806649    
  0.12809918226932654    0.15968229236467765    0.190350296125325    0.21578306676655187    0.23342962795145208    
  0.2421816059240737    0.24218144507107553    0.23342912230604687    0.21578233209688588    0.19034950360480563    
  0.15968140457556884    0.12809857869101188    0.10055948685993273    0.07995063117570354    0.07383890747206266    
  0.06776700326140954    0.06622145717553353    0.06751966928472201    0.06996871406999476    0.07222542810351457    
  0.0735829148953162    0.07410562398128244    0.07410564585695    0.07358299634859145    0.07222550817442305    
  0.06996884058236257    0.06751977612719547    0.06622174512503054    0.06776711081817668    0.0738393935896722    
  0.08519209750636764    0.10123269403451    0.11997603058689013    0.13810616880250923    0.15244972436609328    
  0.16178864310302757    0.1663287141074694    0.1663285232609654    0.16178841196926178    0.15244928180956935    
  0.13810557720929817    0.11997558228401117    0.1012320718843363    0.08519181553710319    0.07383890747206266    
  0.07160743005397135    0.07383886568159986    0.0799505593757676    0.088326860419389    0.09680921904202607    
  0.10348033307053132    0.10760985269233835    0.10948925559274301    0.10948929193531395    0.10760996863746622    
  0.10348048496622199    0.09680937985811598    0.08832711504453902    0.07995069657605264    0.07383921980674456    
  0.07160756308387038    0.07383934263644532    0.07995101491856504    0.08832741306622464    0.09680985466152149    
  0.10348090671805214    0.10761036330480772    0.1094896598080661    0.10948963517092464    0.10761016381861446    
  0.10348069247296962    0.09680954573314983    0.0883270196079718    0.07995077124300487    0.07383887030986735    
  0.07160743005397135    0.07383884276430604    0.08519165015971673    0.10055930878348995    0.11660333381617558    
  0.12890086575666476    0.13354672457581596    0.12973585947958546    0.11981414376276724    0.10720748907302091    
  0.09491069491843529    0.08432601116146712    0.07586447443004286    0.06978760633709818    0.06672335835112204    
  0.06776715098656208    0.07383934921926512    0.08519212117111372    0.100560063503919    0.11660414609249138    
  0.12890171407485634    0.13354743940036468    0.129736418011917    0.11981455965703687    0.1072076818533914    
  0.09491087929098926    0.08432609271794568    0.07586445300381787    0.0697876834244556    0.06672305823815228    
  0.06776707483064716    0.07383884276430604    0.08519170216587747    0.10874182798780492    0.13881734753644684    
  0.16994747413021538    0.19439301168644105    0.20531338328188106    0.20076859739603992    0.18408616730880048    
  0.16135199067320713    0.13834146888743515    0.11792379564307466    0.10080413905185943    0.08692584032975002    
  0.07640656403573406    0.0698869149205562    0.06776722561059526    0.06988698736585364    0.07517605295486685    
  0.08147149338824931    0.08635830712357478    0.08778863797731336    0.08522546176284189    0.07984947618267262    
  0.07344987586167857    0.06754216274985034    0.06285508424302462    0.05981685459624971    0.05907019512407209    
  0.06182234731356237    0.06988657765596876    0.08519170216587747    0.10123182101859238    0.1388174178556312    
  0.1866223697860191    0.23536470212240995    0.2736687361101065    0.29421772222524983    0.2926965557544231    
  0.2693301724080883    0.23309788364572895    0.1950594811899795    0.16089441307042043    0.1320625306211409    
  0.1083101037534544    0.08923084667061663    0.07517584145469189    0.06622162791950882    0.06182246896203734    
  0.0609142321059641    0.06186877703882569    0.06301155778521017    0.06304332284033815    0.06152458361240144    
  0.058943540413297614    0.05611152926445424    0.05372390496560484    0.05228234475859685    0.052366177635395424    
  0.05501494769756741    0.06210827725887645    0.07640645867883651    0.10123182101859238    0.11997533234696713    
  0.16994746348500445    0.232528793222668    0.2931802010287041    0.3394375451798173    0.370197685674424    
  0.37870444856188495    0.35422815080340386    0.3056127624224586    0.25181286231302447    0.20309657489007732    
  0.16214329304561753    0.12868560074750746    0.10180076308313417    0.08147125813380293    0.06751993484417684    
  0.05907028212641841    0.05486433696285079    0.05329653025201845    0.05290343899912685    0.052710420768988665    
  0.052249706072000135    0.05154101050613174    0.05087981021274304    0.05056897623507124    0.05101710234791922    
  0.052911656744826764    0.05760680583195104    0.06768171956839313    0.08692560705517324    0.11997533234696713    
  0.1381052097057067    0.19439307896803348    0.26289501145129757    0.32505093622514153    0.37082524694902214    
  0.4073998552511482    0.42654181661938195    0.4057438638477253    0.35055792040005496    0.28652626794536445    
  0.22856176769525643    0.180155604034381    0.14101276186661432    0.10991943545206782    0.08635807223982471    
  0.06996879767523102    0.05981693382918914    0.05449040535811381    0.05233129736453621    0.0519923933502169    
  0.05261321851379332    0.05363061840977931    0.05481857720148978    0.05619360204769342    0.05774830246149973    
  0.05965507852574982    0.06254459342839977    0.06802051336666834    0.07925680341434249    0.10080395601835726    
  0.1381052097057067    0.15244879910465045    0.20531343427729143    0.26957809853465    0.32724494109202434    
  0.3694599312694438    0.40337198849777506    0.4206094407938498    0.3995072723784272    0.3451101062467601    
  0.28210745009964094    0.22545518862734237    0.17831049505071384    0.14027850543894874    0.11033726051680876    
  0.0877883969623025    0.07222567286646453    0.06285502809169022    0.05845655894284814    0.05754813181843674    
  0.058866468820465756    0.06159749444491102    0.06526954776906264    0.06958925397574166    0.07417939667567601    
  0.07840342800820607    0.08184505328712627    0.08483466990116444    0.08920314749622    0.09864541100199228    
  0.11792366208042192    0.15244879910465045    0.16178805672669752    0.20076839235988597    0.2506830979447405    
  0.29854109281222824    0.3346154366080909    0.3584294659669447    0.36305700939240343    0.3385194946864881    
  0.2922649832887091    0.24124183264685575    0.19560180808319372    0.15764018771682253    0.1270221800565531    
  0.10300418792113324    0.08522545801249198    0.07358306543880833    0.0675422803824156    0.06629129269605706    
  0.06875311448639673    0.07383787547207506    0.08087636200482856    0.08959801999613395    0.09964604930412876    
  0.10992257814273967    0.11854470458227197    0.12383216055911442    0.1253592783573099    0.12515332404351062    
  0.1277660311685494    0.13834111435855256    0.16178805672669752    0.16632766527545095    0.1840864121165766    
  0.21203291566264293    0.24248435568894922    0.2665330913658999    0.27836962092102313    0.2734750196814947    
  0.25099879108712436    0.2179993008410631    0.1835290800491485    0.15275913660632262    0.12713615076336804    
  0.10659995051335563    0.09079371899047926    0.07984941177628205    0.07410591387505167    0.07344985873633741    
  0.07752522903254869    0.085651583775094    0.09717158921767229    0.11181764484584969    0.12943863318010135    