#     DFTpy    
  CRYSTAL 
    
  PRIMVEC    
  6.037379310344827    0.0    0.0    
  0.0    6.037379310344827    0.0    
  0.0    0.0    3.3262068965517235    
  PRIMCOORD    
  4    1    
  Si    0.0    0.0    0.0    
  Si    3.0186896551724134    3.0186896551724134    1.6631034482758618    
  Si    0.0    3.0186896551724134    0.8315517241379309    
  Si    3.0186896551724134    0.0    2.494655172413793    
  BEGIN_BLOCK_DATAGRID_3D    
  3d_datagrid_density    
  BEGIN_DATAGRID_3D#0    
  27    27    15    
  0.0    0.0    0.0    
  6.037379310344827    0.0    0.0    
  0.0    6.037379310344827    0.0    
  0.0    0.0    3.3262068965517235    
  0.07880020295360794    0.1350095436880066    0.31356035028600143    0.42836675567887716    0.3351042323772221    
  0.20565043980192782    0.13218313884470886    0.10784474412318719    0.11877495487451721    0.16200903150463164    
  0.2341427371285817    0.3151673581746558    0.372633894743363    0.39132368498450704    0.37263390056482326    
  0.3151673133121049    0.23414274201043572    0.1620090237900834    0.11877495548280706    0.10784473347735422    
  0.13218312040467006    0.20565040294046272    0.3351042643428019    0.4283667162999181    0.31356036728385095    
  0.13500953069509403    0.07880020295360794    0.13500952808281805    0.1972251337264411    0.3579615630355466    
  0.4236975408222698    0.31595133229170863    0.19320170987927698    0.12511019806979773    0.10257538675129102    
  0.11276953664042655    0.15290627543593632    0.22016974206249007    0.2973358904861648    0.35437936686013444    
  0.37380729675653684    0.3543793822277254    0.29733582345711057    0.22016970353824866    0.15290628869892237    
  0.11276957579601252    0.10257537968591021    0.12511018150978603    0.19320173190287565    0.3159513556013942    
  0.4236975621058715    0.3579615473623568    0.19722516300107007    0.13500952808281805    0.31356037207574894    
  0.35796158386803567    0.4239813540599887    0.3838561815910705    0.26258202127060903    0.16111001201681696    
  0.10692781879746674    0.08892298276095567    0.0971935360192408    0.1292759825277287    0.1832015426738696    
  0.24730613816460803    0.29841494120433326    0.3172910386761633    0.2984149354186912    0.24730604850320734    
  0.18320156614502545    0.12927596145533474    0.09719353870468889    0.0889229701218599    0.10692781973723071    
  0.1611100110229049    0.26258209579954706    0.3838561469783857    0.4239812843911662    0.35796150827546014    
  0.31356037207574894    0.42836670210436384    0.4236974755657693    0.38385616774101167    0.29255130414751657    
  0.192427738923962    0.12182005579936232    0.08446113451974104    0.07180841579637577    0.07765825554917694    
  0.09995243955673905    0.13701693262580014    0.18158058469944532    0.21873579363507462    0.23320903052570527    
  0.21873580886660698    0.18158066230142006    0.13701691742292518    0.09995244334636977    0.07765824886977969    
  0.07180842700108256    0.08446111466550732    0.12182002895425305    0.19242779149497888    0.2925512499810829    
  0.383856070573309    0.42369749326983136    0.42836670210436384    0.3351042723826894    0.31595134726463237    
  0.26258204550209874    0.19242780755812947    0.1297926908517381    0.087191273575865    0.064042303058814    
  0.05593680525895364    0.059562127769638894    0.07338626785324413    0.09587254254039075    0.12238806607257183    
  0.14448410669240444    0.1532167082130026    0.14448408634198126    0.1223880924096841    0.09587254356826297    
  0.07338625292635231    0.05956212448230976    0.055936808136525906    0.06404231187774673    0.08719125420893369    
  0.1297926714928599    0.19242779218955106    0.26258207702093134    0.3159513275033353    0.3351042723826894    
  0.2056503760084455    0.1932017505157113    0.1611099891068997    0.12182005677624401    0.08719126451210915    
  0.06287491030900383    0.049086377042575166    0.04401589487402354    0.04597506835237286    0.053915248697577876    
  0.0665626376820099    0.08100527084818646    0.0927406218819034    0.09732174078836399    0.09274061750152303    
  0.08100527086697165    0.06656261978623602    0.053915258786498964    0.04597506069044026    0.04401589789448503    
  0.04908638213293202    0.06287492610144889    0.08719125538509054    0.12182004871426762    0.1611100175910382    
  0.1932017088788849    0.2056503760084455    0.13218311713113676    0.1251101956811143    0.10692781701140326    
  0.0844611276741831    0.06404229242311807    0.04908637120406806    0.040217649202347903    0.03666307810170548    
  0.03752411645129893    0.04205461195240952    0.04921406364660244    0.057204958656804306    0.06353065398197232    
  0.06593636572310747    0.06353065170463501    0.057204984027517676    0.04921404658402708    0.042054606760453646    
  0.03752412341228185    0.036663089087507456    0.0402176446511992    0.0490863559631732    0.06404229867695045    
  0.0844611371141256    0.10692781774423718    0.1251101773658175    0.13218311713113676    0.10784471691700727    
  0.10257536455099447    0.08892297042930179    0.07180843505131264    0.05593680313615345    0.044015900767412144    
  0.036663086733213786    0.03337995787536941    0.03354673512286586    0.036475769529352116    0.04120829312283957    
  0.04645051280520597    0.05053388739336729    0.05205270130563073    0.050533876193458824    0.046450532158166226    
  0.041208290699043436    0.03647576879371473    0.03354672714987795    0.03337995710870628    0.03666308983865724    
  0.044015891731195446    0.05593680011423836    0.07180844157333062    0.08892296962522553    0.10257536201314353    
  0.10784471691700727    0.11877495854413016    0.1127695645181477    0.0971935336137129    0.07765827275900365    
  0.05956213578205325    0.04597505726369875    0.03752412828239361    0.03354673516130636    0.033197517188043944    
  0.035634533735872734    0.03986642155670034    0.04461647661705574    0.04833084342100432    0.04972618080100081    
  0.04833084410287682    0.04461648783436977    0.039866405062121926    0.035634534532078245    0.033197514163427436    
  0.03354673590789971    0.037524128662837886    0.04597505676044543    0.05956213580931741    0.0776582851705567    
  0.0971935361634971    0.11276954694029667    0.11877495854413016    0.16200903249727855    0.15290628657892552    
  0.12927598542110005    0.09995245712010958    0.0733862672110437    0.05391525939843694    0.04205461156704096    
  0.036475766629174546    0.0356345309295976    0.03830087444919505    0.043315342568786594    0.0491017557714347    
  0.05374733546201022    0.055550046948797144    0.05374731587691873    0.0491017569400165    0.04331534052563407    
  0.03830087256191144    0.03563454239289404    0.03647577212347644    0.042054620794287664    0.053915254901837406    
  0.0733862604319217    0.09995246433873538    0.12927598020996    0.15290628590475727    0.16200903249727855    
  0.23414274098903662    0.2201697057488292    0.18320158034536896    0.13701694828814773    0.09587251281054043    
  0.06656261965117188    0.049214046876638766    0.041208273675246494    0.03986639686549377    0.04331531442311112    
  0.050060913400114086    0.058050687475869014    0.06460004385706886    0.06717389691181866    0.06460006422713317    
  0.05805071712847544    0.05006089263777582    0.043315328926472996    0.039866392710869114    0.04120828299162915    
  0.04921404554485786    0.0665626039975467    0.09587252527537575    0.13701691839986305    0.18320153148161925    
  0.2201696990439795    0.23414274098903662    0.31516735279023084    0.29733592120221014    0.24730609664165587    
  0.18158060498031642    0.12238804371803806    0.08100526789769538    0.05720498159806437    0.046450540604410166    
  0.04461648397409335    0.04910174869608488    0.05805070518574001    0.06887064782311715    0.0778299454289278    
  0.08134132953330023    0.07782996516353086    0.06887064751562329    0.05805072340896746    0.04910173788013488    
  0.04461647503577443    0.04645051941755906    0.057204972141283346    0.08100527141666057    0.12238805744790228    
  0.18158062569258193    0.24730607685022216    0.29733582226627503    0.31516735279023084    0.37263387617634264    
  0.3543793582892319    0.29841491467473275    0.21873581674365497    0.14448408978470034    0.09274061890673244    
  0.06353064342520642    0.05053387946765813    0.048330844658400034    0.05374731411883909    0.06460007042201488    
  0.07782994310191955    0.08888608095706686    0.09324122628837701    0.08888608483011146    0.07782996035805256    
  0.0646000668503589    0.05374733370112114    0.04833084541008171    0.05053388588849276    0.06353064178612461    
  0.092740626625898    0.14448405095182165    0.21873581299385408    0.2984148806785872    0.3543793952024678    
  0.37263387617634264    0.3913236533400823    0.3738073401350712    0.3172910407030498    0.23320904278050614    
  0.15321670894047043    0.0973217605593883    0.06593639706637897    0.05205271194669797    0.049726182578280514    
  0.05555001748958884    0.0671739000171679    0.0813413144784353    0.09324125326298373    0.09795175501510704    
  0.09324125736040212    0.0813413005541372    0.0671738746656321    0.055550024631909535    0.04972619746938955    
  0.052052716906306744    0.0659363909695521    0.0973217431750488    0.15321670507133714    0.23320897991962475    
  0.31729102511629576    0.3738072978394016    0.3913236533400823    0.37263382760839037    0.35437932370654435    
  0.2984149307373924    0.21873580988571917    0.14448407629969648    0.09274061268261569    0.06353064819456723    
  0.05053387505209007    0.048330847944135016    0.05374732718543359    0.06460006085295704    0.07782994581129533    
  0.08888608785341089    0.09324123210533776    0.08888610230571313    0.07782995632618088    0.06460006308736138    
  0.05374733371999957    0.04833084901727447    0.05053387075456884    0.06353064680015559    0.09274062000927587    
  0.14448407077526823    0.21873585951957528    0.2984149234274075    0.3543794055220747    0.37263382760839037    
  0.3151673321659007    0.29733594380709577    0.24730610265055003    0.18158063682469797    0.12238804822100413    
  0.08100527671292576    0.057204969378978975    0.0464505372361319    0.04461648687296674    0.0491017473884227    
  0.05805070045969188    0.06887064523361548    0.07782995069131828    0.08134131716135988    0.0778299600119488    
  0.06887064951103541    0.05805071412991225    0.0491017602063239    0.04461647790054616    0.046450541248138195    
  0.0572049759693507    0.08100526543851862    0.12238806503023099    0.1815806517978777    0.24730608779135294    
  0.2973358494781155    0.3151673321659007    0.23414271826869199    0.2201697349935825    0.18320155331141144    
  0.13701695900533298    0.09587249550035877    0.06656260774345432    0.04921404330026913    0.04120827206899897    
  0.039866388897143085    0.04331532263662844    0.05006090373936215    0.058050684656927094    0.06460006319207358    
  0.06717390326516942    0.06460003334927442    0.0580507087532388    0.050060885376218583    0.04331533715172657    
  0.03986638596273633    0.04120827932800761    0.049214041326808046    0.06656260483728546    0.09587252970976275    
  0.13701691214194456    0.18320155339164576    0.22016971498121385    0.23414271826869199    0.1620090402690795    
  0.1529062990442212    0.12927597498024687    0.09995245763630986    0.07338626349018323    0.05391526339425866    
  0.04205461247806679    0.03647576887722514    0.035634531952553915    0.038300882310918855    0.04331534541896337    
  0.049101744567196445    0.05374734237478299    0.055550041022306255    0.05374733536507141    0.04910176456632438    
  0.043315334148877074    0.038300878516440685    0.03563451922328372    0.03647577470813626    0.04205461001818764    
  0.05391525941637867    0.07338626193568791    0.09995245790518469    0.1292759766938196    0.15290626396807835    
  0.1620090402690795    0.11877494203524563    0.11276956277312075    0.097193522780472    0.07765828184525896    
  0.05956213903694481    0.045975057733950796    0.03752413069133713    0.03354673768531664    0.033197511119835696    
  0.03563453300261881    0.039866419287146806    0.04461648097231884    0.04833084028116376    0.04972617610284247    
  0.0483308401537549    0.04461649370373599    0.03986641326749627    0.035634537508864264    0.033197516253825235    
  0.03354673934898479    0.037524129954765104    0.04597505249940408    0.05956214052547319    0.07765828806370709    
  0.09719353775682059    0.11276955461811938    0.11877494203524563    0.1078447281794717    0.10257536648205909    
  0.08892297205406956    0.07180841141546741    0.05593680234910954    0.04401590154501801    0.03666308029532947    
  0.033379957080934455    0.03354672874947361    0.036475764265099    0.041208293437946325    0.04645051824488821    
  0.05053388787727302    0.05205269494992554    0.050533886579107706    0.046450537930228214    0.04120828552654479    
  0.03647576832811409    0.03354672660690215    0.033379962662779844    0.03666308678340063    0.04401588501464881    
  0.055936799282784784    0.07180842994167212    0.0889229596147918    0.10257536284234989    0.1078447281794717    
  0.13218310586891172    0.12511020907812623    0.10692783694712493    0.08446113253571629    0.06404229540402215    
  0.04908637136838    0.04021764401194687    0.036663087352882574    0.03752411792497984    0.04205460626851224    
  0.04921406149184123    0.0572049527765861    0.06353064563538238    0.06593637252439404    0.06353064493192942    
  0.05720498076228472    0.04921404881772045    0.04205460816252778    0.03752412456710297    0.03666307998800039    
  0.04021765225806172    0.049086361914593736    0.06404229843036598    0.08446113720264167    0.10692782927318274    
  0.1251101998824685    0.13218310586891172    0.2056504112810752    0.1932017406508816    0.16111001561301827    
  0.12182005739273631    0.08719125652604798    0.0628749181652071    0.04908638253617443    0.04401590346935818    
  0.04597505897543621    0.05391525822048712    0.06656263881867146    0.08100527088537539    0.09274062486046536    
  0.09732172994398425    0.09274062950069942    0.08100528386340411    0.06656261345568644    0.0539152595398342    
  0.0459750588075875    0.04401590526219264    0.04908638172963675    0.0628749177208557    0.08719125655444962    
  0.12182007047673506    0.16111000029603392    0.1932017203384325    0.2056504112810752    0.3351042799189619    
  0.31595140809695005    0.26258205199725976    0.19242779516041075    0.12979268204904162    0.08719126529820113    
  0.06404229743095269    0.055936809428159345    0.05956213368341649    0.07338626306235514    0.09587253728991303    
  0.12238805580184771    0.1444840903230649    0.15321670134400361    0.14448402901664295    0.12238806733480047    
  0.095872539452545    0.07338627028507849    0.059562138210077484    0.05593680400972008    0.06404231552665712    
  0.08719125300483377    0.12979267678475553    0.19242779592109108    0.26258209382108144    0.3159513373824178    
  0.3351042799189619    0.42836663671504355    0.42369752810075223    0.38385616412128776    0.2925512502422773    
  0.19242775713733629    0.12182004423003916    0.0844611226216552    0.07180841604572154    0.0776582686257417    
  0.09995242829370922    0.13701695347908935    0.1815805934696361    0.2187358250624354    0.23320899460535047    
  0.218735820317342    0.1815806600426344    0.13701693597966352    0.0999524408786415    0.07765825248666598    
  0.07180842416812118    0.08446112775332516    0.12182002444490816    0.19242778282217599    0.29255128514204115    
  0.3838561101486609    0.4236974537098725    0.42836663671504355    0.31356035499124485    0.3579615959421238    
  0.4239813961183453    0.3838561404197995    0.26258206449670757    0.16111001656199653    0.106927832623353    
  0.0889229806184882    0.09719353261215288    0.12927598321829706    0.18320152429317585    0.2473061292835762    
  0.29841492582858736    0.3172910465855519    0.29841488750469575    0.24730608271160753    0.18320160200283936    
  0.12927597279783548    0.09719354077094272    0.08892297469631597    0.10692781924001248    0.16111001106342723    
  0.26258208268202216    0.38385614417431546    0.4239813306659801    0.35796152936637815    0.31356035499124485    
  0.1350095097053323    0.197225150517409    0.3579615889061393    0.4236975261862648    0.315951318071421    
  0.19320172521076773    0.12511020983658613    0.10257538081990179    0.11276954538260275    0.15290627026884193    
  0.22016971188941314    0.2973358953476517    0.3543793879078004    0.3738073352391996    0.35437930433441134    
  0.29733587252684507    0.22016973485503302    0.15290626558498424    0.11276957151968467    0.10257539542344724    
  0.12511018878450475    0.1932016988094067    0.31595134395374663    0.4236975034721046    0.35796153918715357    
  0.1972251760133579    0.1350095097053323    0.07880020295360794    0.1350095436880066    0.31356035028600143    
  0.42836675567887716    0.3351042323772221    0.20565043980192782    0.13218313884470886    0.10784474412318719    
  0.11877495487451721    0.16200903150463164    0.2341427371285817    0.3151673581746558    0.372633894743363    
  0.39132368498450704    0.37263390056482326    0.3151673133121049    0.23414274201043572    0.1620090237900834    
  0.11877495548280706    0.10784473347735422    0.13218312040467006    0.20565040294046272    0.3351042643428019    
  0.4283667162999181    0.31356036728385095    0.13500953069509403    0.07880020295360794    0.1382166008584591    
  0.20081307356076983    0.3612417997128448    0.424457184270038    0.31353095092605293    0.18777257285535293    
  0.11591218948022336    0.08739196757787097    0.0866925011694908    0.10723887421170204    0.14539303433865147    
  0.19270228201898545    0.23279694819711771    0.24849597465989479    0.232796985340908    0.19270226262053464    
  0.14539300845948594    0.10723887734117764    0.08669251792793334    0.08739197206589604    0.1159121806918235    
  0.187772576319421    0.31353096631808364    0.4244571595224339    0.36124181820596285    0.20081303318290808    
  0.1382166008584591    0.2005875010316227    0.26177410283290864    0.3934327626971168    0.4140222161435581    
  0.29493249946963085    0.1765775334703486    0.11003590058743759    0.08357860532620136    0.08295886664125736    
  0.1020649562737386    0.13747679783128758    0.181438723238703    0.21875701936475916    0.2333881848969102    
  0.21875704623608985    0.18143867838342856    0.137476765334872    0.10206494850313858    0.08295887873197147    
  0.08357861603126404    0.11003589381872492    0.17657753590707548    0.2949325493220054    0.41402224291078693    
  0.3934327699192842    0.26177411060236094    0.2005875010316227    0.3600948822353023    0.39254726252858485    
  0.42711198785471743    0.36553589840388545    0.24453792181411468    0.14792570175699038    0.09490100202637661    
  0.07359293905411383    0.07313683025213949    0.08858149324096028    0.116945568875273    0.15203693406485136    
  0.1819200047235264    0.19370172265973523    0.18191996076675185    0.1520369235770311    0.11694556214008558    
  0.08858150240642955    0.07313683545392786    0.07359292480445422    0.09490099114082542    0.1479257150794038    
  0.24453796044087797    0.365535841217003    0.4271119063299931    0.3925472022839747    0.3600948822353023    
  0.42426959679867504    0.4140675427360845    0.36604820207505545    0.2749419761917349    0.17995450130753535    
  0.11294423145462845    0.0761101929575746    0.06094853223959601    0.060619056707214354    0.0716130016404415    
  0.09148792452831997    0.11566959991443086    0.13616093905575455    0.14429888561181725    0.13616096253890458    
  0.11566964570599735    0.09148792366747624    0.07161301134300274    0.06061905260550108    0.060948545971064035    
  0.0761101777243743    0.11294420757234354    0.1799545411299675    0.2749419260366736    0.3660481165179564    
  0.4140675506020603    0.42426959679867504    0.31874124818977195    0.29989035526342545    0.24854809180631726    
  0.18231448428276245    0.12313208053970848    0.08219089393209054    0.05900350855946013    0.04914877292469432    
  0.04886522277215959    0.05591779962736978    0.06849462672406863    0.08339823732816769    0.09576761354150631    
  0.10065654706231313    0.09576758587840423    0.08339825771291952    0.06849461232920948    0.05591778509223364    
  0.048865209963016236    0.049148775235555296    0.059003506194812406    0.08219088119006643    0.12313206955682598    
  0.1823144711985434    0.24854807910051704    0.2998903225419986    0.31874124818977195    0.2004562887511446    
  0.1883637220794415    0.1571919996297311    0.11902925221977935    0.08517081809277317    0.06096943475774229    
  0.04665582755580342    0.04032572565041445    0.04000035993547429    0.04428982593748629    0.05187795632948966    
  0.060639393835716614    0.06770749851433867    0.07044745148613019    0.06770750245971185    0.06063939577288288    
  0.051877938289529045    0.04428983507262151    0.04000035706232323    0.04032572191537017    0.04665583891937733    
  0.06096943887754162    0.08517082819798678    0.11902924242813169    0.1571920111213086    0.18836367491684844    
  0.2004562887511446    0.13853879192124527    0.1310174529129732    0.1115827247361529    0.08756634991463892    
  0.06579741977851451    0.049723365959661946    0.03983592722144749    0.03520658277824252    0.03473637392252729    
  0.037461552261074324    0.042301334386247634    0.04779475666242346    0.05213455100628403    0.053778477617916896    
  0.052134554979559336    0.04779477166664707    0.04230132402855282    0.03746154171914775    0.034736375343997185    
  0.03520658701936098    0.03983592893112431    0.04972335262849268    0.06579744003362166    0.08756634986708883    
  0.11158272343996775    0.13101744905401766    0.13853879192124527    0.12620132483637053    0.11960679055563934    
  0.10252181178000805    0.08126169300552602    0.06179272698018758    0.04726066364043603    0.03815848813163899    
  0.033697174777630276    0.03295183409246267    0.03502715617222516    0.038883227600496076    0.043262888554719006    
  0.04669674012476665    0.04798325927524131    0.04669673326947623    0.043262914684919045    0.03888321960076682    
  0.03502715207305861    0.03295183128174518    0.033697173543381996    0.03815849407027817    0.04726065427803264    
  0.06179272233820042    0.08126169640856772    0.10252181718975348    0.11960677180288916    0.12620132483637053    
  0.15628141499793102    0.14748597962141208    0.12484485148578651    0.09686383816642179    0.07145063497012354    
  0.052724220231894096    0.04117532186132348    0.03552019279634277    0.0343182227688469    0.03639508228778173    
  0.0406027636100627    0.04549520089675089    0.04938284963932231    0.05086499785160814    0.049382850662371754    
  0.045495224775793264    0.04060275331398349    0.036395082729171725    0.03431822323158839    0.03552020158233101    
  0.04117532342100621    0.05272421408089611    0.07145063452501406    0.09686385590648762    0.12484485575115667    
  0.1474859666142273    0.15628141499793102    0.2320672021166456    0.21793075241929624    0.18113889694225394    
  0.13556823594170753    0.09488922806167242    0.065841129680136    0.048517425951105614    0.040238370488424234    
  0.038348873016142    0.04099660531223655    0.04669151736985248    0.05350179967989058    0.05906905225647172    
  0.061250861431057096    0.05906902716544467    0.053501797839995445    0.04669151653138452    0.040996601991521955    
  0.038348878435132204    0.04023837321089856    0.04851744259616198    0.06584112143109923    0.09488921088162501    
  0.13556823888537797    0.18113891004173982    0.21793072774986558    0.2320672021166456    0.3401732557063418    
  0.32143400691991697    0.2681170838629469    0.19655996757628502    0.13126413782712615    0.08558710193135066    
  0.05924905708866835    0.04700318430039076    0.04420122763357374    0.04791014421763358    0.05605802028474459    
  0.06604221032701749    0.07438377857540057    0.07768469535461105    0.07438376201220208    0.06604223019397554    
  0.0560580110880531    0.04791015546938685    0.04420122800084029    0.04700318647516481    0.05924905523492842    
  0.08558708349199558    0.13126416970635887    0.19655996584240853    0.2681170334714493    0.3214340010219137    
  0.3401732557063418    0.4189114538876898    0.40732937180076856    0.35710573300547427    0.2665321331702169    
  0.1737926504489925    0.10807181332924864    0.0711037414374535    0.05434455816165245    0.05052872516161873    
  0.055472862507167216    0.06649731785587792    0.08029666455680533    0.09195509597252624    0.09655254675841698    
  0.0919551113973942    0.0802966633393395    0.06649734610099277    0.05547285096563501    0.050528716769278705    
  0.054344544760025995    0.07110372574566312    0.1080718075593605    0.17379266171216537    0.26653214312485635    
  0.3571057379256897    0.40732925476167164    0.4189114538876898    0.4228094340524098    0.4295677882104431    
  0.4088902840189818    0.32036885620143346    0.2089531178962115    0.12649476605694623    0.08053605795040333    
  0.0600569863619196    0.05544106977278855    0.06145761508310812    0.07491113061690935    0.09188463351411935    
  0.1063476953965475    0.11206821493948678    0.10634768903247939    0.0918846376389192    0.07491114485043403    
  0.06145762570733501    0.0554410838663271    0.06005697923209833    0.08053606734768565    0.1264947775291886    
  0.20895309279497637    0.320368892441604    0.4088902614779606    0.4295678213866878    0.4228094340524098    
  0.4078091674983952    0.424007319356945    0.42165079563341495    0.3397835353767461    0.22272776225481766    
  0.13374026541125192    0.08414781304269987    0.062184181317294855    0.057274943829563295    0.06376329993236877    
  0.07820799055008881    0.09642455383913615    0.11200835850821851    0.11820454035470847    0.11200835925179663    
  0.09642454820575058    0.07820796553942347    0.06376330691980595    0.057274967968312294    0.062184176966478315    
  0.08414781760954634    0.13374024448604468    0.22272783117290548    0.3397835213096359    0.4216507938837518    
  0.4240072541290881    0.4078091674983952    0.4228094511957337    0.42956777515829336    0.40889034673913405    
  0.32036882223539087    0.20895310139060985    0.1264947694650748    0.08053606088629935    0.06005697082743811    
  0.055441084289633416    0.06145760587490763    0.07491114651196867    0.09188462776152495    0.10634768292386394    
  0.11206817883493314    0.10634770812475555    0.09188462188742126    0.07491112849110018    0.06145761883059121    
  0.05544108491117879    0.060056967136654205    0.08053606001444658    0.1264947688004309    0.20895310735172345    
  0.3203688875305786    0.4088902720113229    0.429567816904922    0.4228094511957337    0.4189114014379431    
  0.40732934898943673    0.3571057669025847    0.26653210205202077    0.17379266618506042    0.1080717963908465    
  0.0711037283620059    0.054344559798633375    0.050528719988777726    0.05547285412760579    0.06649733044077877    
  0.08029666680840382    0.09195512358627857    0.09655252728730439    0.09195512919596367    0.08029666470079094    
  0.06649733379113473    0.05547287459388691    0.05052870853937181    0.05434456615106983    0.07110374101314293    
  0.10807179439293661    0.17379266359653694    0.2665321060081655    0.357105714538396    0.40732929989472694    
  0.4189114014379431    0.3401732614187099    0.32143403934548836    0.2681170430818661    0.19656000580999936    
  0.1312641425450317    0.08558709032549017    0.05924905135807766    0.0470031870871538    0.044201221727519814    
  0.04791015181058365    0.056058029382832615    0.06604219693909502    0.07438377509293093    0.07768467681459325    
  0.07438376074894984    0.06604221991984352    0.05605800304454736    0.047910160275283525    0.04420122895141529    
  0.04700319281375463    0.059249046598519275    0.08558709007339407    0.13126417748791883    0.19655998838518254    
  0.2681170311246793    0.3214339660213097    0.3401732614187099    0.23206723885292427    0.21793075824158392    
  0.1811388980374904    0.1355682332195778    0.09488922903129726    0.06584113606980772    0.04851743100372357    
  0.04023837348740438    0.03834887157535612    0.0409966160842062    0.04669151783678393    0.0535017910707366    
  0.05906907224407651    0.06125086926438474    0.05906904542242146    0.05350181604996409    0.04669151131661811    
  0.04099660876328015    0.038348862930293694    0.04023838216331794    0.048517425654180484    0.06584112954471456    
  0.09488922737786668    0.1355682337477688    0.18113889435928857    0.217930710039843    0.23206723885292427    
  0.15628141816461594    0.14748597507872008    0.12484483641783076    0.09686385566093476    0.0714506355138973    
  0.05272421527593926    0.041175326862071364    0.03552020278065145    0.03431822239999481    0.036395083632791154    
  0.04060275755931768    0.045495201410822125    0.049382851553829495    0.0508649875321827    0.049382852041592824    
  0.04549521506220796    0.04060275099361829    0.03639507949141339    0.03431822160333428    0.035520202339301137    
  0.04117533323381686    0.052724220309367874    0.07145063022926465    0.09686384457204125    0.1248448403006669    
  0.1474859566598015    0.15628141816461594    0.12620133467388792    0.11960678369097523    0.1025218045858061    
  0.08126168097333686    0.06179271857998927    0.04726067396769348    0.03815848778756434    0.03369717033747794    