#     DFTpy    
  CRYSTAL 
    
  PRIMVEC    
  1.6175074616175822    -2.8016051051434183    0.0    
  1.6175074616175822    2.8016051051434183    0.0    
  0.0    0.0    3.044671971103448    
  PRIMCOORD    
  1    1    
  Si    0.0    0.0    0.0    
  BEGIN_BLOCK_DATAGRID_3D    
  3d_datagrid_density    
  BEGIN_DATAGRID_3D#0    
  15    15    13    
  0.0    0.0    0.0    
  1.6175074616175822    -2.8016051051434183    0.0    
  1.6175074616175822    2.8016051051434183    0.0    
  0.0    0.0    3.044671971103448    
  0.0746886694768977    0.12810051658924873    0.30020448845123704    0.4183234207734113    0.3341093427532728    
  0.20887942161905687    0.1365975162109577    0.11544944577343177    0.13659751539547302    0.20887943105713236    
  0.334109367569745    0.41832341582796984    0.30020449998395465    0.1281005379833655    0.0746886694768977    
  0.12810053705796481    0.12807848462825597    0.2467957365239553    0.40074686824934214    0.3824660324887853    
  0.25523739513910737    0.1588657945476233    0.11642325293213696    0.11643163864767545    0.158855785177786    
  0.25525392908856176    0.382458801500497    0.40068570816360966    0.24683761654146488    0.12810053705796481    
  0.3002044820374148    0.24679570339232146    0.30028612885937805    0.40070520000010534    0.3958600533562891    
  0.2822253687929236    0.17649958930372478    0.1187595688013143    0.10171998075851352    0.11875837337259881    
  0.1765007303519786    0.28220576908235445    0.39594324520790536    0.40068568427895895    0.3002044820374148    
  0.4183234063341701    0.40074683533585126    0.40070521287588085    0.41827541602545215    0.38243351079485494    
  0.2822781050735457    0.18308104102793202    0.12068996515044988    0.09320002321206136    0.09321139091670849    
  0.12067815784107724    0.18310757806176384    0.2822057199074771    0.3824588112877869    0.4183234063341701    
  0.33410935418869986    0.382466023581708    0.3958600435738938    0.382433518333577    0.33417567868039716    
  0.2552578864418819    0.1764593848693447    0.12068689458148019    0.09048493999006185    0.08120049491753388    
  0.09048489782639833    0.12067815470510505    0.1765007256356157    0.25525392260434904    0.33410935418869986    
  0.20887943049971466    0.2552373992031483    0.2822253824722327    0.282278101648609    0.25525786477510737    
  0.2088192401900966    0.15885584360021487    0.11879085645233228    0.09320425581723203    0.08120174022479172    
  0.0812004824128831    0.09321138967443689    0.11875838066507909    0.158855785897391    0.20887943049971466    
  0.1365975024029588    0.15886578357107972    0.17649959381934938    0.18308106093916127    0.17645938427937025    
  0.15885585599628937    0.13664741682289186    0.11642851436465888    0.10169148411868033    0.09320424937757933    
  0.09048494813077848    0.09320002564786907    0.101719976201649    0.1164316379546366    0.1365975024029588    
  0.11544945290043138    0.11642323746061954    0.11875957901880121    0.12068996346436724    0.12068688737708627    
  0.11879085225125925    0.11642849961091421    0.11540323692247507    0.11642850543866443    0.11879085146255829    
  0.12068689751398781    0.12068996046050538    0.1187595619742864    0.11642326260318835    0.11544945290043138    
  0.13659751309101423    0.11643163999808236    0.10171999290631888    0.09320002606392479    0.09048494736323515    
  0.09320424277721553    0.1016914790490818    0.11642851714302935    0.13664742582642223    0.1588558581762155    
  0.17645938123759183    0.1830810334098993    0.17649959048630653    0.15886579146280977    0.13659751309101423    
  0.20887940152022091    0.1588557716889456    0.118758394020157    0.09321137636933681    0.0812004878266356    
  0.08120174644381324    0.09320424722321688    0.11879085471734452    0.15885585844620184    0.20881923962940666    
  0.25525787814186657    0.28227810630681305    0.28222539141229247    0.25523740743602424    0.20887940152022091    
  0.33410932507408536    0.25525390231466105    0.17650073644810654    0.12067815726479694    0.09048488605824248    
  0.08120049458197418    0.09048493681428937    0.12068690074463818    0.17645938853646365    0.2552579007125219    
  0.3341756578001156    0.38243352554645543    0.3958600287565681    0.38246604380866944    0.33410932507408536    
  0.4183234014503143    0.38245879890165985    0.2822057503097612    0.18310758559815687    0.1206781517495285    
  0.0932113773505693    0.09320001926714036    0.12068996670836857    0.18308104676227746    0.2822780820857636    
  0.38243352557954113    0.4182753765202321    0.4007052292323016    0.4007468909065144    0.4183234014503143    
  0.3002044923035495    0.4006856916683647    0.39594322691759165    0.28220576382511137    0.17650072626515764    
  0.11875838400673695    0.10171997561595433    0.11875957267156972    0.17649959006264285    0.2822253645870656    
  0.39586004142823816    0.4007052366461405    0.30028611943153866    0.24679571048093968    0.3002044923035495    
  0.12810051918932192    0.24683762516765542    0.40068569008086025    0.3824588330688981    0.25525393048592393    
  0.15885577133484208    0.11643163375441426    0.11642325602091093    0.15886579358279124    0.2552374130047024    
  0.38246602095914006    0.40074687191163727    0.24679571379872153    0.12807848503305222    0.12810051918932192    
  0.0746886694768977    0.12810051658924873    0.30020448845123704    0.4183234207734113    0.3341093427532728    
  0.20887942161905687    0.1365975162109577    0.11544944577343177    0.13659751539547302    0.20887943105713236    
  0.334109367569745    0.41832341582796984    0.30020449998395465    0.1281005379833655    0.0746886694768977    
  0.13979838253419202    0.19975327882267588    0.35145187902176545    0.4134267115949003    0.3118137884780183    
  0.19420498700122937    0.12829394809366365    0.1089913569393017    0.12829393152576057    0.19420499801692476    
  0.3118137697891004    0.4134266889855912    0.35145190518059666    0.19975330719943188    0.13979838253419202    
  0.19975330935058222    0.19969676102122075    0.3094990790913474    0.4140958217073669    0.36170156170963746    
  0.23692741587450677    0.14854610041810348    0.1098461340179848    0.10985587628939146    0.1485343485463937    
  0.23694472050029827    0.3616882123125952    0.41406066075772346    0.30951439252150686    0.19975330935058222    
  0.35145187132891015    0.3094990340273367    0.3515518703456026    0.4140549148833775    0.3772048842942089    
  0.26225553562412546    0.16458785727821876    0.11192394558377382    0.09632246957164475    0.11192401779704284    
  0.16458713319994403    0.26224590229318523    0.37725677553670217    0.41406060311411214    0.35145187132891015    
  0.41342666419590446    0.41409578281147175    0.41405493497827595    0.41337142279592815    0.36167967729408    
  0.2622955962698796    0.17060924457021678    0.11366174229149986    0.08849814324408864    0.08850543219997115    
  0.11365375845696468    0.17062685577948786    0.2622458695597743    0.3616882242173941    0.41342666419590446    
  0.3118137854197371    0.36170154284027806    0.37720491726065386    0.36167971610235294    0.3118783795183561    
  0.23693930431045826    0.1645592942296841    0.11365931150660928    0.08601384558680994    0.07747692546433159    
  0.08601401779308585    0.11365374063134956    0.1645871370159136    0.23694476119617228    0.3118137854197371    
  0.19420497857253166    0.2369274099677883    0.26225553712525956    0.2622955905382485    0.2369392886883457    
  0.1941522817802514    0.1485388945334516    0.11194623160569789    0.08850081822174863    0.07747793724480875    
  0.07747691756692043    0.08850543639376066    0.11192401929487507    0.14853434921508846    0.19420497857253166    
  0.12829394007190723    0.14854609937327717    0.16458785646117474    0.17060926098262222    0.16455931027078088    
  0.1485388994929599    0.12833695967166373    0.1098509706205256    0.09630274677858262    0.08850082015369545    
  0.08601384307192342    0.0884981406665596    0.09632246317760552    0.10985587175373825    0.12829394007190723    
  0.10899136472780392    0.10984611666433725    0.11192394909544695    0.1136617381470449    0.1136593103496302    
  0.11194622176428383    0.10985095566010594    0.10895206773063672    0.1098509575984332    0.11194622645744849    
  0.11365931242032831    0.1136617383623181    0.11192393060474198    0.10984614196875853    0.10899136472780392    
  0.12829395229727633    0.10985587113651443    0.09632247801926899    0.08849814061860269    0.08601384477201987    
  0.08850080534081387    0.09630274629281621    0.10985096897693508    0.12833696624776056    0.1485388973098767    
  0.16455929343929732    0.1706092556521105    0.16458785888143254    0.14854610157438522    0.12829395229727633    
  0.19420498430532712    0.14853434330979803    0.11192402249642945    0.08850542026977454    0.07747691730309321    
  0.07747794517614659    0.08850081024044412    0.11194622681675938    0.14853890059129213    0.1941522579689164    
  0.2369393151523899    0.2622956107855021    0.2622555273284032    0.23692742225697336    0.19420498430532712    
  0.3118137644658264    0.23694472508063044    0.16458715287706033    0.1136537566377854    0.08601401457780204    
  0.07747692166705349    0.08601383843128635    0.1136593130324299    0.1645593010725679    0.23693931627496959    
  0.31187838797593986    0.3616797097764793    0.37720486662008124    0.3617015613767463    0.3118137644658264    
  0.413426678851901    0.36168821639493237    0.26224590787884744    0.17062685042848855    0.11365375142818887    
  0.08850542199940964    0.08849813334276938    0.11366173757846554    0.17060925966412793    0.26229559145284415    
  0.3616797121243836    0.41337137652533795    0.4140548898681051    0.41409584443865155    0.413426678851901    
  0.3514518888282215    0.41406062493540957    0.37725677582648126    0.2622459027479134    0.16458712943117748    
  0.11192401668692838    0.09632246600263433    0.11192394659393833    0.1645878590433074    0.26225552947225184    
  0.37720488733006885    0.4140549280699903    0.3515518915445562    0.30949905469479716    0.3514518888282215    
  0.19975329256937885    0.3095143999956882    0.4140606352854882    0.3616882268402696    0.23694472944461054    
  0.1485343401146707    0.10985587540627434    0.10984613388400082    0.1485461104675016    0.23692744129743962    
  0.3617015587959056    0.41409581707263177    0.3094990352973958    0.19969675450276206    0.19975329256937885    
  0.13979838253419202    0.19975327882267588    0.35145187902176545    0.4134267115949003    0.3118137884780183    
  0.19420498700122937    0.12829394809366365    0.1089913569393017    0.12829393152576057    0.19420499801692476    
  0.3118137697891004    0.4134266889855912    0.35145190518059666    0.19975330719943188    0.13979838253419202    
  0.33665895034020293    0.3717734223931535    0.4155597224389536    0.36586036251028464    0.25163918665397517    
  0.15770490262385622    0.10732283952172623    0.09239971607884581    0.10732282644866963    0.15770489561993903    
  0.25163918615274683    0.3658603695446553    0.41555975056356254    0.3717734462572332    0.33665895034020293    
  0.3717734548610277    0.3717241047018957    0.41010390094123744    0.39555435223011354    0.2974360288141074    
  0.19082372002179804    0.12282953219456884    0.0930770800244701    0.09308078225654061    0.12282459353546743    
  0.19083117761864785    0.2974286476653348    0.39554915803067237    0.41009732901621376    0.3717734548610277    
  0.41555972680529774    0.41010385084744405    0.415611775476301    0.395536702892886    0.3138146691787708    
  0.2109531184007974    0.13511167257313095    0.09470004865085338    0.08253702869524214    0.09470097734232728    
  0.13511001045566134    0.21095245946475888    0.3138250346254824    0.3955491224450767    0.41555972680529774    
  0.36586035751876317    0.3955543345456274    0.39553672069615087    0.3658364935216698    0.297431000772941    
  0.2109648694447672    0.1397406724749523    0.09605094536793826    0.07646559355105614    0.07646745300484586    
  0.09604877588584866    0.13974552774768695    0.21095244187550283    0.2974286592572551    0.36586035751876317    
  0.2516391879718075    0.29743602065500535    0.3138147149444922    0.29743101647836395    0.2516635653797882    
  0.19082555909446908    0.13510390512190365    0.09604966475906641    0.07455364500405509    0.06784346002194902    
  0.07455325717694743    0.09604877334184506    0.13511001573174414    0.19083119860186587    0.2516391879718075    
  0.15770489551484618    0.19082372767326058    0.21095311063854533    0.21096484929174397    0.19082555228090123    
  0.15768632821646275    0.12282837466843971    0.0947060399218193    0.0764667757191474    0.06784261458529324    
  0.06784345699856358    0.07646744727231936    0.09470097458612314    0.12282459068569082    0.15770489551484618    
  0.10732283521135498    0.12282953971034989    0.13511167264854537    0.1397406884399403    0.13510391152727108    
  0.12282837459758306    0.10733691382225416    0.09307832789388004    0.0825319169106611    0.07646676856722441    
  0.0745536469121848    0.07646559008358131    0.08253703049109781    0.09308078695362258    0.10732283521135498    
  0.09239971280877324    0.09307707748089147    0.09470005521270916    0.09605094445942723    0.0960496631173277    
  0.09470603756266126    0.09307831614057006    0.09238731059948228    0.09307832092771585    0.0947060402602727    
  0.0960496672652776    0.09605094215329579    0.09470004580500546    0.09307708872329229    0.09239971280877324    
  0.10732283930925175    0.09308078104778979    0.0825370387620052    0.07646559192504943    0.07455364923800903    
  0.07646676281519207    0.0825319147019519    0.09307832981304093    0.10733692749167728    0.12282837869264114    
  0.1351039022405174    0.13974068189098865    0.13511167224584222    0.12282953585659426    0.10732283930925175    
  0.15770489093671136    0.12282458791173215    0.09470098476611691    0.07646743652533024    0.06784345467410652    
  0.06784262467856671    0.07646676443435996    0.09470603706828278    0.12282838456905418    0.15768631685302795    
  0.1908255721110508    0.21096485628746406    0.21095311486655455    0.19082373583807793    0.15770489093671136    
  0.25163916418885013    0.19083115694138142    0.13511003075401823    0.09604878367861741    0.07455325473743292    
  0.06784346095413261    0.07455364719380582    0.09604967038660875    0.13510390495595828    0.19082556996834396    
  0.25166358113570175    0.297431031373318    0.31381465798899044    0.29743603401559615    0.25163916418885013    
  0.36586035470325107    0.2974286510459155    0.21095245382653002    0.13974553387709268    0.09604878606018487    
  0.07646743528375219    0.07646558445625488    0.09605094426706537    0.1397406853640139    0.21096484807986957    
  0.29743104080993266    0.36583646628474875    0.39553668953436105    0.3955543826767293    0.36586035470325107    
  0.41555972582132183    0.3955491324735503    0.3138250633958465    0.210952473772036    0.13511001380450896    
  0.09470097765722757    0.08253703220624027    0.09470005061479377    0.13511166720046375    0.2109530914760248    
  0.3138147061194929    0.39553673795081556    0.41561177308499325    0.41010388978563944    0.41555972582132183    
  0.37177342649681766    0.4100973020229307    0.39554913398599173    0.29742865816352176    0.19083118505757216    
  0.12282457821138898    0.093080782819521    0.09307709398738305    0.12282954001074135    0.19082373992420648    
  0.2974360238921462    0.3955543665916357    0.41010383889733487    0.3717240768293138    0.37177342649681766    
  0.33665895034020293    0.3717734223931535    0.4155597224389536    0.36586036251028464    0.25163918665397517    
  0.15770490262385622    0.10732283952172623    0.09239971607884581    0.10732282644866963    0.15770489561993903    
  0.25163918615274683    0.3658603695446553    0.41555975056356254    0.3717734462572332    0.33665895034020293    
  0.4119219605954214    0.3999366497376062    0.3511493981359901    0.2653180054802157    0.17759177515921218    
  0.11573156895691945    0.08275446332072371    0.07275991720915416    0.08275445802784252    0.11573156223342498    
  0.17759179133313585    0.26531798616042357    0.3511494217806278    0.3999366822337149    0.4119219605954214    
  0.3999366965913406    0.3999313138746985    0.36862076833817475    0.29794961342718257    0.209687211000533    
  0.13731632607466662    0.093025399805    0.07326100630686842    0.0732615686751895    0.09302435619139315    
  0.13731808413500887    0.20968605866670134    0.29794984111642236    0.3686186722170349    0.3999366965913406    
  0.35114940031711267    0.36862076559400925    0.351152964789713    0.29794892259290795    0.22183846499772208    
  0.1505250137477843    0.10110471079421643    0.07439911672660063    0.06616262797647017    0.0743993463508723    
  0.10110463354201059    0.15052359598106155    0.2218400410879861    0.29794979599682175    0.35114940031711267    
  0.2653180009118013    0.29794959070896476    0.29794893436859166    0.2653162168853556    0.2096869900261997    
  0.15052405390865298    0.10412389243948579    0.07529254938484259    0.0620442643212685    0.06204501149496642    
  0.0752917986260726    0.10412528274008295    0.1505235627319752    0.20968605833483725    0.2653180009118013    
  0.1775917907261065    0.20968720475858002    0.2218384603439441    0.2096870122460964    0.17759296752539586    
  0.13731762662031977    0.10110481134496484    0.07529186553192516    0.06074640360559366    0.056151177870849514    
  0.06074602237362315    0.07529179322031433    0.10110462593718433    0.13731808330721584    0.1775917907261065    
  0.11573157064655192    0.13731633067901738    0.15052500351667464    0.150524046453333    0.13731761488368505    
  0.11572933439229029    0.09302512159552602    0.07439934116608338    0.06204454230880654    0.0561508477980261    
  0.056151173622527625    0.06204501165858727    0.07439934375993722    0.09302435195258203    0.11573157064655192    
  0.08275446258270336    0.09302539043581154    0.10110471358789724    0.10412389850608403    0.101104805625471    
  0.09302512939774384    0.08275600989743175    0.07326038663211526    0.06616337179699963    0.06204453820112235    
  0.06074640666009974    0.062044264907422035    0.06616262067958506    0.07326157181533473    0.08275446258270336    
  0.07275991652072669    0.07326099822344323    0.07439912195153041    0.07529255325196517    0.07529186542365131    
  0.07439933749961311    0.07326037718845084    0.072760135867704    0.0732603832002646    0.07439933641892234    
  0.07529186737520183    0.07529254633148866    0.0743991032535748    0.07326101047990913    0.07275991652072669    
  0.0827544614556467    0.07326157481542958    0.0661626346864436    0.06204426056688137    0.06074640768276585    
  0.06204452769229306    0.06616336930882141    0.07326038413239008    0.08275601742035771    0.09302512303374925    
  0.10110480411267846    0.10412389284468301    0.1011047125013604    0.09302539850875931    0.0827544614556467    
  0.11573154950122261    0.09302434960609332    0.07439935761281201    0.06204500077374038    0.05615117607790954    
  0.05615084986553118    0.062044531415838204    0.07439933803824095    0.09302513184397924    0.11572933130964677    
  0.13731762001012204    0.15052405334488245    0.1505250106573905    0.1373163285437145    0.11573154950122261    
  0.17759178046451127    0.13731806320461398    0.10110463682479277    0.07529179983085693    0.06074601927534277    
  0.05615117791395326    0.0607464020620942    0.07529187223317524    0.1011048114709019    0.1373176237401574    
  0.17759296855728154    0.20968701193613398    0.22183843868585526    0.2096872402781699    0.17759178046451127    
  0.2653179966197504    0.20968603829929244    0.1505235891756349    0.1041252879799616    0.07529179654161496    
  0.062044999209433    0.062044261958114716    0.07529254905944098    0.10412388828033858    0.1505240216529365    
  0.20968701823584318    0.2653161991563306    0.2979489204823106    0.297949627462462    0.2653179966197504    
  0.3511494153357755    0.2979498201693167    0.22184003384913992    0.15052359379711844    0.1011046262249994    
  0.07439934844994675    0.06616262139680207    0.07439911404271965    0.10110471069709161    0.1505250032341496    
  0.22183847256319583    0.2979489484358337    0.3511529587092114    0.3686207829304953    0.3511494153357755    
  0.39993664855186734    0.36861865086030526    0.29794983345734594    0.20968607255572774    0.13731808955903907    
  0.09302435320265788    0.07326157240210289    0.07326100675881149    0.09302539680845408    0.1373163307916002    
  0.20968719817575626    0.2979496289172148    0.3686207732748753    0.39993129869554966    0.39993664855186734    
  0.4119219605954214    0.3999366497376062    0.3511493981359901    0.2653180054802157    0.17759177515921218    
  0.11573156895691945    0.08275446332072371    0.07275991720915416    0.08275445802784252    0.11573156223342498    
  0.17759179133313585    0.26531798616042357    0.3511494217806278    0.3999366822337149    0.4119219605954214    
  0.2911302668467732    0.2738131226396725    0.2278685009870876    0.16991650520659116    0.11820772137553831    
  0.08226530260704801    0.06254818937311452    0.056409672857867695    0.06254818389937358    0.08226531408110449    
  0.11820772211562706    0.16991648301405185    0.22786850630904174    0.2738131527753626    0.2911302668467732    
  0.27381314253864897    0.27381251383333904    0.24216539893442413    0.19048491124549594    0.13686167510746095    
  0.09492436917340581    0.06877341040803882    0.0567419691963254    0.056742298957874776    0.0687729068593961    
  0.0949249153378285    0.1368612100536171    0.19048530836695848    0.24216471504731152    0.27381314253864897    
  0.22786850652455787    0.24216537243315325    0.22786869605436755    0.19048523334871323    0.1440242802144087    
  0.10267445419101931    0.07363018296129445    0.05745198048636753    0.05235975353621932    0.05745202321657039    
  0.0736304050396085    0.10267400525929846    0.1440247267900647    0.19048527209419144    0.22786850652455787    
  0.16991647918446046    0.1904849004883609    0.19048522280580316    0.16991563197779536    0.13686225998668372    
  0.10267340482710231    0.07544528065654973    0.05797410112743117    0.049759353537207146    0.0497590791770635    
  0.0579742512432387    0.07544498129889507    0.10267399392693487    0.13686121614532212    0.16991647918446046    
  0.11820772788829816    0.13686167893493645    0.14402429961052052    0.1368622799714909    0.11820737917418452    
  0.0949249500338362    0.07363033366912368    0.057974232377632    0.04891798761149854    0.04602389594304653    
  0.048918042801718256    0.05797424423654038    0.07363040301108462    0.09492493857171931    0.11820772788829816    
  0.08226530403737797    0.0949243684082741    0.10267446209821922    0.10267339684634982    0.09492493332718924    
  0.08226484380039975    0.06877333366138444    0.05745189096664476    0.04975924915880289    0.04602371440295316    
  0.0460238923181046    0.04975908034039038    0.057452021621944314    0.06877290512805403    0.08226530403737797    
  0.06254818590102058    0.06877341392048668    0.07363018339302803    0.07544528565182328    0.07363034071529499    
  0.06877333852041634    0.06254837137563013    0.056741883124762485    0.05236000538956168    0.04975925157004198    
  0.04891798950445697    0.04975934804213559    0.05235975119799242    0.05674229621343602    0.06254818590102058    
  0.05640967725211771    0.05674196102111685    0.05745198832219053    0.05797410805586187    0.057974230659187075    
  0.05745189265294546    0.05674187540925954    0.05640997344542309    0.05674188298943754    0.05745188957237279    
  0.05797423255818202    0.05797410194286862    0.05745197576236684    0.05674197660836619    0.05640967725211771    
  0.06254819426256483    0.056742293395716153    0.05235976093630938    0.04975934590924556    0.048917990335176506    
  0.04975923739482223    0.05236000560298523    0.05674188552530497    0.06254837454741788    0.0687733321433337    
  0.07363033559325351    0.07544528191441012    0.07363018768062832    0.06877341127746056    0.06254819426256483    
  0.08226530602740309    0.06877290509340893    0.057452023476375076    0.049759067240605595    0.04602389355459674    
  0.046023719229351535    0.04975924334593522    0.05745189702910073    0.06877334053376027    0.08226482969102814    
  0.09492494949801052    0.10267341321747651    0.10267445593254089    0.09492437454002346    0.08226530602740309    
  0.11820772570397214    0.09492491954822788    0.07363040804581272    0.05797425235250407    0.04891804332417462    
  0.04602389362731005    0.04891798528890989    0.05797423984936716    0.07363033722330307    0.09492495451226954    
  0.11820737825976865    0.13686226928892523    0.14402427872451673    0.1368616769923708    0.11820772570397214    
  0.1699164893181246    0.13686120607295488    0.10267400062458867    0.07544497917082989    0.05797425196403829    
  0.049759067250169924    0.04975934561789996    0.057974101415219824    0.07544528749446056    0.10267339684548998    
  0.1368622723231966    0.16991561393052815    0.19048521547996686    0.19048491289375985    0.1699164893181246    
  0.22786850651040613    0.19048527775276106    0.14402472321516205    0.10267400115978426    0.07363039794848981    
  0.05745202445790005    0.05235975316551427    0.05745198487410922    0.07363018004900466    0.10267445628067265    
  0.14402429130314076    0.19048522856860173    0.22786870651951707    0.2421653793260225    0.22786850651040613    
  0.27381311824913346    0.24216472490179594    0.19048528727243755    0.13686121861470754    0.09492491538247595    
  0.06877290703859106    0.0567422966382362    0.05674197488204635    0.06877341705882818    0.09492437878045555    
  0.13686167292285    0.1904848966528302    0.24216538217446196    0.2738125022052778    0.27381311824913346    
  0.2911302668467732    0.2738131226396725    0.2278685009870876    0.16991650520659116    0.11820772137553831    
  0.08226530260704801    0.06254818937311452    0.056409672857867695    0.06254818389937358    0.08226531408110449    
  0.11820772211562706    0.16991648301405185    0.22786850630904174    0.2738131527753626    0.2911302668467732    
  0.18658849265389146    0.17594287129804032    0.1484235795713444    0.11456581008265837    0.08428181270674158    
  0.06258401217620405    0.050240005844905455    0.04630659152807657    0.05024000464665917    0.06258400335221423    
  0.08428182185354603    0.11456580537849699    0.14842358468349232    0.17594289731922982    0.18658849265389146    
  0.17594289339377225    0.17594354642852464    0.15689592562755736    0.12654883892006166    0.09530394023702386    
  0.0703221943889419    0.054164317345882784    0.04651364355363758    0.046513538192732067    0.05416459123369012    
  0.07032196581975071    0.09530401678650095    0.1265484493819413    0.156896532823358    0.17594289339377225    
  0.14842357416863344    0.15689590953989577    0.14842348967443117    0.12654862411010329    0.09953457497551284    
  0.0750556691878012    0.05722919548732307    0.04697094108692678    0.043687163584572315    0.04697075527653222    
  0.05722917688919732    0.07505571772503812    0.09953488938828284    0.12654842400130228    0.14842357416863344    
  0.11456579775916392    0.12654883768871217    0.1265486398861604    0.11456604172359133    0.09530404887979096    
  0.07505594299083737    0.058406698496264    0.047337782292162955    0.04198611479187488    0.04198632831471587    
  0.047337800210458976    0.05840673761518529    0.07505570929880845    0.09530402469666238    0.11456579775916392    
  0.08428180782699068    0.09530393652028718    0.09953459664881903    0.095304055015029    0.08428144190073857    
  0.0703220109972957    0.05722909083513262    0.047337804134696064    0.04142164442509933    0.03947153745786602    
  0.04142155275005468    0.04733780133021053    0.05722917021577353    0.07032198846741909    0.08428180782699068    
  0.06258400574209817    0.07032218737612103    0.07505566065061568    0.07505593957285682    0.07032200828513502    
  0.06258455874490972    0.05416412390738758    0.0469712497172514    0.04198591404209273    0.039471975041483406    
  0.0394715387540841    0.04198633121629132    0.046970757765927    0.05416459010158411    0.06258400574209817    
  0.05024000020940392    0.05416432188399156    0.05722919563618971    0.05840670345721753    0.057229095889789416    
  0.05416413217118315    0.050240097453571435    0.046513435208484104    0.04368726006913041    0.04198590684071783    
  0.04142164741455145    0.041986111947502736    0.043687163097760995    0.04651353674382542    0.05024000020940392    
  0.04630658963759962    0.046513641858278394    0.04697094878368927    0.047337787087989996    0.047337802454567326    
  0.04697124868790947    0.04651342561011687    0.0463068620674908    0.04651343300356981    0.04697124823896652    
  0.04733780330152288    0.04733778360505398    0.04697093708756367    0.04651364909477033    0.04630658963759962    
  0.05024000544536746    0.04651353294564337    0.04368717353443798    0.041986110169321716    0.041421649593053535    
  0.04198590070055458    0.04368725881675264    0.04651343426232729    0.050240104513131024    0.0541641243333461    
  0.05722909168688216    0.05840670336548601    0.05722919273905533    0.05416431498674425    0.05024000544536746    