#     DFTpy    
  CRYSTAL 
    
  PRIMVEC    
  10.891065417580672    2.0260784496551724e-09    -6.57860292413793e-10    
  2.0260784496551724e-09    10.891065420033305    -1.8978795751724137e-09    
  -6.57860292413793e-10    -1.8978795751724137e-09    10.891065420716124    
  PRIMCOORD    
  63    1    
  Si    2.7227664056917584    2.3857439203045683e-08    2.7227662992496287    
  Si    8.168299114482094    2.4870478427873268e-08    2.722766298920698    
  Si    2.722766406704798    5.445532733874091    2.7227662983006886    
  Si    8.168299115495133    5.44553273488713    2.7227662979717584    
  Si    2.7227664053628287    2.2908499415459472e-08    8.16829900960769    
  Si    8.168299114153163    2.3921538640287057e-08    8.16829900927876    
  Si    2.7227664063758676    5.445532732925152    8.168299008658751    
  Si    8.168299115166201    5.44553273393819    8.168299008329821    
  Si    1.3613831765250417    1.3613831069340625    1.3613831248220511    
  Si    6.806915885315377    1.3613831079471017    1.361383124493121    
  Si    1.3613831775380807    6.806915816950714    1.3613831238731113    
  Si    6.806915886328417    6.806915817963754    1.3613831235441813    
  Si    1.3613831761961117    1.361383105985123    6.806915835180114    
  Si    6.806915884986447    1.3613831069981617    6.806915834851183    
  Si    1.3613831772091507    6.806915816001775    6.806915834231174    
  Si    6.806915885999486    6.806915817014812    6.806915833902243    
  Si    2.7227664205263644    2.7227663352833598    3.444295655092252e-08    
  Si    8.168299129316697    2.722766336296399    3.411402640471562e-08    
  Si    2.7227664215394034    8.168299045300012    3.349401676333632e-08    
  Si    8.168299130329737    8.168299046313052    3.316508661712942e-08    
  Si    2.7227664201974338    2.72276633433442    5.445532744801018    
  Si    8.168299128987767    2.722766335347459    5.445532744472088    
  Si    2.722766421210473    8.168299044351071    5.445532743852078    
  Si    8.168299130000806    8.168299045364112    5.445532743523149    
  Si    1.3613831801736    4.084149582503591    4.084149588698918    
  Si    6.806915888963935    4.0841495835166315    4.084149588369987    
  Si    1.3613831811866395    9.529682292520242    4.0841495877499785    
  Si    6.806915889976974    9.529682293533284    4.084149587421049    
  Si    1.36138317984467    4.0841495815546525    9.52968229905698    
  Si    6.806915888635006    4.084149582567692    9.52968229872805    
  Si    1.3613831808577095    9.529682291571302    9.529682298108039    
  Si    6.806915889648045    9.529682292584344    9.529682297779111    
  Si    5.445532660336582    2.737258028853539e-08    5.22181134824836e-08    
  Si    10.891065370139959    5.445532738402274    5.09402435486905e-08    
  Si    5.445532661349621    5.445532737389232    5.12691736948974e-08    
  Si    10.891065368797989    2.743667972577677e-08    5.445532762247245    
  Si    5.445532660007652    2.6423640500949185e-08    5.445532762576176    
  Si    10.891065369811027    5.445532737453333    5.445532761298305    
  Si    5.445532661020692    5.445532736440293    5.445532761627235    
  Si    4.08414953480233    1.3613831438804822    4.084149582427982    
  Si    9.529682243592662    1.3613831448935214    4.084149582099053    
  Si    4.084149535815369    6.806915853897135    4.084149581479043    
  Si    9.5296822446057    6.806915854910174    4.084149581150113    
  Si    4.084149534473399    1.3613831429315424    9.529682292786045    
  Si    9.529682243263734    1.3613831439445816    9.529682292457114    
  Si    4.084149535486438    6.806915852948195    9.529682291837107    
  Si    9.529682244276772    6.806915853961234    9.529682291508175    
  Si    10.891065350569749    2.7227663260214006    2.7227663216584808    
  Si    5.4455326417794145    2.722766325008361    2.72276632198741    
  Si    10.891065351582787    8.168299036038052    2.7227663207095407    
  Si    5.445532642792454    8.168299035025015    2.7227663210384705    
  Si    10.891065350240817    2.7227663250724605    8.168299032016543    
  Si    5.445532641450484    2.722766324059421    8.168299032345471    
  Si    10.891065351253857    8.168299035089113    8.168299031067601    
  Si    5.445532642463523    8.168299034076075    8.168299031396533    
  Si    4.084149526168912    4.084149587428459    1.3613831227356563    
  Si    9.529682234959246    4.084149588441497    1.3613831224067263    
  Si    4.0841495271819515    9.529682297445108    1.361383121786717    
  Si    9.529682235972288    9.52968229845815    1.3613831214577865    
  Si    4.084149525839981    4.084149586479518    6.8069158330937185    
  Si    9.529682234630316    4.084149587492557    6.806915832764789    
  Si    4.084149526853021    9.529682296496171    6.806915832144777    
  Si    9.529682235643355    9.52968229750921    6.806915831815848    
  BEGIN_BLOCK_DATAGRID_3D    
  3d_datagrid_density    
  BEGIN_DATAGRID_3D#0    
  49    49    49    
  0.0    0.0    0.0    
  10.891065417580672    2.0260784496551724e-09    -6.57860292413793e-10    
  2.0260784496551724e-09    10.891065420033305    -1.8978795751724137e-09    
  -6.57860292413793e-10    -1.8978795751724137e-09    10.891065420716124    
  0.037528402508878955    0.038522820695847726    0.04135798248421442    0.04552497025404317    0.05005610653273911    
  0.053804542931334416    0.05571602853131566    0.05531125082904337    0.05293721584677669    0.04953548808217827    
  0.046166946740827886    0.043739092532187336    0.042993935222323074    0.0445372005695814    0.04910804746982069    
  0.05808223503913625    0.07443002727383977    0.10407446441678281    0.15672426973509127    0.24376336768090867    
  0.3551550587739138    0.39212532341632983    0.25197428106411207    0.10029627849492938    0.05713894657654253    
  0.10029631844740965    0.2519744447484527    0.3921253236438502    0.35515509466891676    0.24376331546816687    
  0.15672426535263093    0.10407445855345344    0.07443003247585568    0.058082213540286934    0.04910806107332222    
  0.04453719286273825    0.042993964504842004    0.04373903877113573    0.046166981185430334    0.04953543869522295    
  0.05293722931777647    0.05531125138972616    0.0557160211197725    0.05380454824590722    0.05005609171037585    
  0.045524962784476465    0.04135797557438197    0.03852281492686331    0.037528402508878955    0.038522816360043094    
  0.039607869790640494    0.042719284950330984    0.04729816626756244    0.05232148003291389    0.056489857542862135    
  0.05860937512460807    0.058121689968616684    0.0554089183277601    0.05155528561631888    0.04779571745720697    
  0.04512947378847244    0.0442994060605143    0.04587331351554407    0.0505963662913578    0.0598195462218008    
  0.07635471646410891    0.10576543277956225    0.15700873933924217    0.2406500428114693    0.34999053688540666    
  0.40406114741503507    0.29859780995329643    0.15096257133737423    0.10038034677322849    0.1509626430383537    
  0.2985979230921156    0.4040611042246364    0.34999050166286927    0.24064991552924322    0.15700872039689412    
  0.10576542452131293    0.0763547195125973    0.05981961986957488    0.050596314466439744    0.04587329766152078    
  0.044299361744948446    0.04512950827618965    0.04779569654544749    0.05155531334282014    0.055408860491294745    
  0.058121744035241577    0.058609366941584196    0.056489836339136394    0.0523214820869903    0.047298149722536584    
  0.04271928666730873    0.03960783736357772    0.038522816360043094    0.041358003249706635    0.042719293604958984    
  0.04663483829558395    0.05247480065921031    0.0589595117950185    0.06438767347501134    0.06714489142982498    
  0.06651631880878724    0.06297542198299265    0.057950816114219955    0.053090570150865934    0.04970472184512834    
  0.04860841197310415    0.05029714260587816    0.05548670841369947    0.06537704622189369    0.08222254892099347    
  0.11058078062535814    0.15746484950281    0.2309688300793788    0.3296412182955769    0.40990627125195483    
  0.39157885592426295    0.2990283937378335    0.2525154275800483    0.29902841001841296    0.3915790419575299    
  0.4099061585731143    0.3296411084897803    0.2309687049512895    0.15746487112819754    0.11058076928645288    
  0.08222256372038728    0.06537706350947012    0.05548673084117426    0.05029707652107436    0.0486084553489125    
  0.04970471971778293    0.05309060596007971    0.05795080241086149    0.06297544277143317    0.06651630968601276    
  0.06714490600797902    0.0643876764440302    0.058959503331289916    0.05247481641908796    0.04663480291422802    
  0.042719270540090726    0.041358003249706635    0.04552492950388843    0.04729815198627374    0.05247477044622279    
  0.0602763236610579    0.06908659400553818    0.07668110381115052    0.08080803453590596    0.08039652728553304    
  0.07602529591924717    0.06953607333465717    0.06318183097538269    0.05873095368501053    0.057213932046962804    
  0.05910093640447302    0.06495703227570788    0.07558858857260171    0.09236070935335593    0.1182214384718905    
  0.1576121701191574    0.21494313998225464    0.2903471859622406    0.3676972132513677    0.4102598107309776    
  0.4049305750003786    0.3931855865347159    0.404930599460374    0.4102597754769913    0.36769721816716244    
  0.2903472528452193    0.21494302794966907    0.15761216606684791    0.11822144669830044    0.09236074455478437    
  0.07558859812170148    0.06495701670272101    0.05910091917496967    0.057213884114578326    0.05873101572339854    
  0.06318184967631824    0.06953614027205172    0.07602525000206044    0.08039654296881414    0.0808080282785408    
  0.07668107535744206    0.06908665366907088    0.06027627687788928    0.05247478562945327    0.047298141409532216    
  0.04552492950388843    0.05005612063099937    0.05232147619165761    0.0589595311885902    0.06908666968979668    
  0.08081633686227593    0.09153336638599352    0.09823976081914201    0.0992117834639128    0.09498263348824135    
  0.08777088375195381    0.08038293201251967    0.07506966818845182    0.07316025827395671    0.07519521940685492    
  0.081414594271205    0.09202154753440678    0.10733618679980253    0.12850072123461997    0.15736705351395366    
  0.19514298775198455    0.24120958064303807    0.29020934986453617    0.32979176132905513    0.35058289329034503    
  0.3559380480449306    0.35058297016189416    0.32979186358310497    0.2902092083526936    0.24120963534949136    
  0.19514293503954838    0.15736702511587666    0.12850071563762072    0.10733626231712853    0.09202152744801882    
  0.08141461444721616    0.07519517766018492    0.07316024105869266    0.0750696622383266    0.08038298642613702    
  0.08777085071263131    0.09498263102938982    0.09921175789718349    0.09823975913358045    0.09153336604735492    
  0.08081635182936253    0.06908666594576285    0.05895952529467708    0.052321469300773644    0.05005612063099937    
  0.05380456227704971    0.05648984550573755    0.0643876441967649    0.07668114269739659    0.09153331495309945    
  0.10607287231634777    0.11684759570842165    0.12165081685758092    0.12054121884871606    0.11543692399448825    
  0.10919075185253382    0.10429958496375867    0.10241266858885796    0.10423770660225286    0.10953805737498463    
  0.11774327305210673    0.12839509103592    0.141309827387881    0.15682705107225395    0.17496606506726814    
  0.1947959865731944    0.2144830639875898    0.23072156738966954    0.240702587126767    0.24394237605398142    
  0.2407025873290403    0.23072155256039537    0.21448305201513557    0.19479591710146232    0.1749660060104624    
  0.15682698324043698    0.14130979500398408    0.12839511728140227    0.11774323959394448    0.10953805207593234    
  0.10423769078566722    0.10241265595142995    0.10429971395220371    0.10919074082328926    0.11543691725628687    
  0.12054115026727749    0.12165083609256205    0.11684759538762135    0.10607293057202745    0.09153338153617603    
  0.07668107679239439    0.06438769047809735    0.05648984689225479    0.05380456227704971    0.055716051424552604    
  0.05860938569946526    0.06714487074870647    0.08080806463588994    0.09823977668020767    0.11684754945724891    
  0.13361375363871744    0.1462632294968305    0.15377152393984111    0.15659137822857921    0.15645350082674003    
  0.1553086016179492    0.15468314706320502    0.1552535758360435    0.15644660314501127    0.15729852563680335    
  0.15749119121599522    0.1570502862060796    0.15648533002426632    0.1564358205472887    0.1566995437660456    
  0.15691772767841045    0.156972754055144    0.15673903548062348    0.15654821676977645    0.15673898332432096    
  0.15697279394398445    0.15691771685397832    0.1566994450877831    0.156435829647162    0.15648528881457624    
  0.15705029545117033    0.15749119361230898    0.1572985115894172    0.1564465830013604    0.15525354830801413    
  0.15468310129253665    0.15530860413301456    0.15645353372471837    0.15659141454603231    0.15377148616502972    
  0.146263209993391    0.13361378650891706    0.1168475798808911    0.09823975482558091    0.0808080873705952    
  0.06714487867976386    0.05860936193015761    0.055716051424552604    0.05531123216311226    0.05812170110118307    
  0.06651627471406228    0.08039655005116914    0.09921171746846574    0.1216508488322558    0.14626317840035355    
  0.1713238676525691    0.1948559046703395    0.21512513250379972    0.23008466236237787    0.23867050762647618    
  0.24148437704741824    0.2390278103598767    0.23038756035205243    0.21517818550593798    0.19579269502617241    
  0.17557929664613756    0.15673712240527699    0.14071244550411025    0.12777669865488117    0.11759488421632867    
  0.11017663466870191    0.10555600621159805    0.10393919455103143    0.1055559766670107    0.11017661674476646    
  0.11759492212506417    0.1277766366136709    0.14071231646587037    0.15673709268404393    0.17557932305728957    
  0.1957927648264395    0.21517825736727472    0.2303874889158834    0.23902777224187968    0.24148437891193286    
  0.23867062179320853    0.2300847535625552    0.21512523859912414    0.1948559386266126    0.1713238859117249    
  0.14626320963884631    0.12165082653263827    0.09921173660435555    0.08039658387027414    0.06651626795779303    
  0.058121703135007384    0.05531123216311226    0.052937253402629725    0.05540885602526523    0.06297542671323161    
  0.0760252711760719    0.09498267854269929    0.12054117238988601    0.15377149315307415    0.1948559339829192    
  0.24226243824289978    0.2905796290236878    0.3283179293877618    0.3475914310699852    0.35290602420776535    
  0.3488885342545725    0.3298038907289613    0.29134069829694775    0.24243138493568728    0.19572375821282653    
  0.15719011273477534    0.12792852508634944    0.10686550160834288    0.0920539021632199    0.08213002550399144    
  0.07642631003249856    0.07456411149208204    0.07642628252967228    0.08213001058762084    0.09205391867143205    
  0.10686546221333035    0.12792852080852948    0.1571900618350479    0.19572378501619564    0.2424313541826059    
  0.29134069976915616    0.32980386364990255    0.34888839543906475    0.3529060513549665    0.3475913780224046    
  0.32831798886571834    0.29057952736057713    0.24226235107062027    0.19485596202530073    0.15377149315421407    
  0.12054118272444267    0.0949826505747196    0.07602528896733375    0.06297542781172842    0.05540886576687827    
  0.052937253402629725    0.049535444804425385    0.051555339975260496    0.0579507711290799    0.06953614671426508    
  0.0877707960494398    0.11543689015422463    0.156591263774641    0.2151251138279627    0.2905795124044459    
  0.36679616433365236    0.4076832815424379    0.4015640201285496    0.3904705280568199    0.40371391656763816    
  0.4108195802557601    0.3693514186683885    0.2917497780950034    0.2154496544162135    0.15734617141329454    
  0.11767771848690621    0.09201871198942556    0.07576304976681843    0.06573750538100231    0.060316986120159254    
  0.05862868664809189    0.06031698985221461    0.06573754894192978    0.07576304439556147    0.09201873495407345    
  0.11767767726443788    0.15734617095366277    0.21544955084902861    0.2917498340724854    0.36935127685240093    
  0.4108196446250385    0.40371389913209127    0.39047046550876613    0.40156408988380193    0.4076832646622071    
  0.3667962451296987    0.29057940729215115    0.2151252259572794    0.15659137086909317    0.11543695401672555    
  0.08777082415608656    0.06953611468409564    0.057950738004956336    0.05155531227089835    0.049535444804425385    
  0.04616699900816616    0.04779567321089142    0.05309058649839176    0.06318184629134962    0.08038298455984391    
  0.10919071202868655    0.15645348330685455    0.2300846501337775    0.3283179118559726    0.4076834074089853    
  0.3888463807408047    0.29683347057119724    0.2511957181078799    0.2986514990271372    0.39264140895441335    
  0.41190486598599085    0.3310725225065409    0.23134357920242257    0.157101648078263    0.1100649882886758    
  0.08198813863384144    0.06565800828175442    0.05632354336313893    0.05153532594243265    0.05008710738682178    
  0.051535371775808254    0.05632354946487957    0.06565799137979568    0.08198812212597706    0.11006489796070566    
  0.15710150532887554    0.23134348832905327    0.33107252761884615    0.41190501749991    0.3926412917303207    
  0.29865154024300244    0.25119569027213323    0.29683349887439864    0.38884631456349183    0.40768340252558405    
  0.32831793286561534    0.2300847443076658    0.1564535468535161    0.10919075658847993    0.08038300450051403    
  0.06318185482774552    0.05309058472012145    0.04779567044316143    0.04616699900816616    0.04373907227323739    
  0.04512950984673873    0.04970465878070919    0.058731031334743264    0.0750696071811018    0.10429966440471553    
  0.15530857353496444    0.238670573628599    0.3475914023245822    0.401564159920059    0.2968335264069094    
  0.15014086400973403    0.10005276622740762    0.15106304960243774    0.29972832242309755    0.40597394509008966    
  0.3512386192335288    0.2408265991395159    0.15654026446632469    0.10527599614135712    0.07619846849196302    
  0.06017350133071539    0.051474657303627325    0.04713736578356602    0.0458340896723809    0.047137364525697716    
  0.05147466057073873    0.06017352080001421    0.07619843629703578    0.10527592631532924    0.1565402142672875    
  0.24082653666416065    0.35123865910260094    0.40597392568348617    0.2997284349483957    0.15106308357396758    
  0.10005271400644461    0.15014085389420725    0.2968333960149845    0.40156414882532143    0.34759140375667635    
  0.23867054382501307    0.1553085683424001    0.10429968532103961    0.07506967040498365    0.05873103883615961    
  0.049704711971892045    0.04512949321551061    0.04373907227323739    0.042993960579718916    0.04429938177600142    
  0.048608450882233784    0.05721388440059991    0.07316022380979854    0.10241259624155964    0.15468312739205425    
  0.2414843114057076    0.3529060211486239    0.390470666089714    0.25119571733386503    0.10005278674737882    
  0.05710535266319222    0.10051838408967612    0.25296068551362916    0.39368890463014233    0.35605955566812253    
  0.24369008576609463    0.1561656994896436    0.10360431014147296    0.07432192891597744    0.058476359092723834    
  0.05000949688009856    0.04580937435279278    0.044545292182075105    0.045809381128313106    0.05000953703203294    
  0.05847637621632906    0.07432191549642223    0.10360431061113531    0.15616570430235954    0.24368994873188726    
  0.35605956811109957    0.3936889390935907    0.25296076085379654    0.10051842115517101    0.0571053606023159    
  0.10005269494948732    0.2511956684349624    0.39047054944345777    0.3529060628984919    0.2414843947397246    
  0.15468313586987414    0.10241265232952473    0.07316024333279382    0.057213921024291445    0.04860845239297791    
  0.04429935812132577    0.042993960579718916    0.04453721730813901    0.04587333368249989    0.05029707533619145    
  0.05910091666926515    0.07519515246872487    0.10423766604049195    0.15525349645722283    0.2390276844770633    
  0.34888848544732726    0.4037138608769378    0.29865161217330466    0.15106305649666868    0.10051842884196581    
  0.15131624142673597    0.2995191523066045    0.4052388266448159    0.35047588807598967    0.2403553880866588    
  0.15640082227632668    0.10530805853149058    0.07626603815673451    0.06022641083791065    0.05149547961005163    
  0.047128443966309656    0.045812384591219286    0.04712847718969388    0.05149549484187541    0.06022641984498041    
  0.07626599404426769    0.1053080132137487    0.15640078576679378    0.24035528821882268    0.3504758202740597    
  0.4052390805964722    0.2995193368140849    0.15131627946057022    0.10051840803216514    0.1510630571841159    
  0.2986514925045866    0.40371398605493597    0.34888836791318617    0.239027876105809    0.1552535327831642    
  0.10423766563301554    0.07519520722702748    0.0591009232782847    0.050297084347668525    0.04587330826842603    
  0.04453721730813901    0.049108081403904456    0.050596319673816566    0.05548675323232189    0.06495705585273324    
  0.08141457707065544    0.10953804241471055    0.15644657138369852    0.23038750018665632    0.3298037207643112    
  0.4108197328582157    0.39264139332566345    0.29972841276356776    0.2529607096122887    0.2995192335905354    
  0.3923628491825173    0.4106385358455432    0.3297676310409143    0.23057501388331295    0.15686718651807138    
  0.11013292283480608    0.08213361504283276    0.06576855904611179    0.05636356442871456    0.05151180892618875    
  0.050037832504568565    0.0515118324395173    0.05636357368438032    0.06576853873799325    0.08213358525288543    
  0.11013282053963393    0.1568671457642283    0.23057489405243173    0.3297675776463591    0.4106384208263315    
  0.3923631011034998    0.29951916251514565    0.2529607474992727    0.2997283043806861    0.3926414109017211    
  0.4108197562678314    0.32980385349675895    0.23038750812799386    0.15644659664908359    0.10953804989791027    
  0.08141460121089687    0.06495703470185268    0.05548674051553579    0.05059630492036308    0.049108081403904456    
  0.05808219802071723    0.05981959115823855    0.06537702269534731    0.07558860263314805    0.09202147620087973    
  0.1177432472435573    0.15729847241615913    0.21517804167328256    0.2913406291603497    0.36935115297641513    
  0.4119048574331921    0.40597373015251503    0.3936889375683342    0.4052388913510743    0.41063837876841597    
  0.36800329897504414    0.2903204998167752    0.21459909706929803    0.15708427906951405    0.117793471838522    
  0.09225492206745334    0.07593819947963787    0.06579222937954779    0.060266356429327185    0.058537775191109705    
  0.060266399247087765    0.06579228097908754    0.07593824104973601    0.0922548454490517    0.11779344756438365    
  0.15708428295110383    0.2145990990014532    0.2903205072763719    0.36800316660555177    0.4106382743363718    
  0.40523878081861137    0.3936887826857103    0.4059738547066416    0.4119048036484166    0.3693513654464499    
  0.29134062354506285    0.2151782648763059    0.15729850482806257    0.11774322670924418    0.0920215279697992    
  0.075588566667276    0.06537702002528935    0.05981954995403052    0.05808219802071723    0.07443001717450148    
  0.07635470024232094    0.08222252950119711    0.09236073945694098    0.10733623995173722    0.12839509770949467    
  0.15749110450793025    0.19579278492756425    0.2424313121055619    0.29174990036782317    0.3310724338701888    
  0.3512386992596283    0.3560595790874873    0.3504758635396253    0.3297675299965985    0.2903205269487194    
  0.24123184672198672    0.19494407045510292    0.15696337449061923    0.1281076727332577    0.10719914132113147    
  0.09230115831260477    0.08219264033124023    0.07633026814103079    0.0744064513992374    0.07633026990162393    
  0.0821926911541605    0.09230106842479957    0.10719914815656817    0.12810757228822356    0.1569633474249043    
  0.1949439733768911    0.24123189840240516    0.2903204974000286    0.32976757617960495    0.3504758316475396    
  0.35605959481540905    0.35123863199277616    0.3310725272936287    0.29174992536085204    0.24243129472528704    
  0.1957927965934908    0.15749121889440904    0.12839510611355523    0.10733628110909693    0.09236073135308032    
  0.082222559817505    0.07635468617522766    0.07443001717450148    0.10407443740147777    0.10576542719710051    
  0.1105807741336482    0.11822148211122573    0.12850069611975715    0.14130976490404643    0.15705027250703057    
  0.1755792914116859    0.19572381987854315    0.21544965242726974    0.23134357742071496    0.2408264174156921    
  0.24369012759092734    0.24035544830874536    0.23057502397239185    0.21459914468873922    0.19494406324671812    
  0.17494721724835238    0.1565795416577377    0.14096006707710396    0.12820568158658857    0.117921376551267    
  0.11024250778805472    0.10538898535931444    0.10368103019097144    0.10538901829632567    0.11024251122198005    
  0.11792134331638271    0.12820565151463428    0.14096002699459548    0.15657952047148335    0.17494722383798983    
  0.19494404167476473    0.2145991618636071    0.23057491890481924    0.24035544574436576    0.24369006269512436    
  0.24082652994912476    0.23134352163757255    0.21544966044202857    0.19572374491847602    0.17557938487404215    
  0.15705026827630508    0.14130982239798548    0.12850074613379717    0.11822145508091426    0.1105808023349473    
  0.10576539608189982    0.10407443740147777    0.156724274419019    0.15700870197406264    0.1574648429040686    
  0.15761223933013196    0.15736700265871084    0.15682695805066002    0.1564853090715865    0.15673708882628293    
  0.1571900623793309    0.15734619110660553    0.1571015379449779    0.15654018134799497    0.15616575288074178    
  0.15640082796921687    0.15686716605492912    0.15708432929814023    0.15696332373855854    0.15657951478898172    
  0.15638427527041204    0.15673144890795615    0.15720661020487087    0.1573308400607621    0.15704324560138777    
  0.156476653777358    0.1561516770152294    0.15647661825875087    0.1570433351310527    0.15733081160776105    
  0.157206625929146    0.15673139751138795    0.15638432615498188    0.15657949710043034    0.1569633425654545    
  0.15708431768418257    0.156867126620158    0.15640077116308945    0.15616569935467958    0.15654020826358836    
  0.1571016087638283    0.15734617759592792    0.15719007405893481    0.15673703978949566    0.1564853511747353    
  0.1568269661192236    0.15736701313698015    0.15761221474965634    0.15746485524062104    0.15700865562626498    
  0.156724274419019    0.2437633906568626    0.2406500189321836    0.23096879238342816    0.21494306638392646    
  0.19514293322481074    0.1749661093410152    0.15643578325284765    0.14071235930104806    0.12792854567937753    
  0.11767776808920509    0.11006493990552937    0.10527596753016462    0.10360433258878782    0.10530809825362986    
  0.11013290330972013    0.1177934875844594    0.12810761934671866    0.14096005208189155    0.15673145084986975    
  0.1752540619741193    0.19534597586731514    0.2149862735425143    0.2308186369074606    0.24034069927129625    
  0.24339293246559426    0.24034086571175503    0.23081859373843658    0.2149862882306872    0.19534582879428566    
  0.175254024885859    0.15673144111449433    0.14096005915204657    0.1281076582786542    0.11779357421353763    
  0.11013289311467675    0.1053080482515002    0.10360431355713982    0.10527599428314187    0.11006495754253462    
  0.11767779024218265    0.12792849556736285    0.14071239784714923    0.1564358104076005    0.17496607881924592    
  0.19514299133220472    0.21494308842125356    0.23096877116394476    0.24064994234937315    0.2437633906568626    
  0.35515514996534436    0.34999038953512535    0.3296411798132687    0.2903472786984204    0.24120967861755985    
  0.19479592459868386    0.15669953003564743    0.12777667944008067    0.10686552088808726    0.09201877458472943    
  0.08198815929482894    0.0761984200428759    0.07432193269764767    0.0762659749505323    0.08213361418972129    
  0.09225486977330594    0.10719914259936981    0.12820567806469196    0.15720663098464713    0.19534592388252003    
  0.2417457847848618    0.2908062708452158    0.3299720056253702    0.3501996893230511    0.3553141797734797    
  0.35019970391401645    0.3299722488718202    0.2908062338225196    0.24174581884490468    0.19534582434793119    
  0.15720664395158573    0.12820565529282563    0.10719912288630228    0.09225491067108886    0.08213360102599312    
  0.07626595695418024    0.07432193665423276    0.07619840843348923    0.08198817391622158    0.09201876126809021    
  0.10686548053494994    0.12777667102750842    0.1566995441820324    0.19479594951222784    0.24120964435180445    
  0.29034730859861785    0.3296413157912723    0.3499905053481832    0.35515514996534436    0.39212522681945156    
  0.40406115088370687    0.40990605845753086    0.3676971938358887    0.29020913486360944    0.2144830584217722    
  0.15691767327885164    0.11759485773074589    0.09205383441887666    0.07576304246788633    0.06565791694025888    
  0.0601734577461842    0.05847634150295607    0.06022640698317544    0.0657684680080501    0.0759382542648194    
  0.09230104721217665    0.11792133020421755    0.15733081124625492    0.21498625613104294    0.2908062509741305    
  0.3683705333460208    0.4106001611112648    0.4047092467413489    0.3927416213507352    0.4047093113016566    