#     DFTpy    
  CRYSTAL 
    
  PRIMVEC    
  4.326    0.0    0.0    
  0.0    4.326    0.0    
  0.0    0.0    4.326    
  PRIMCOORD    
  2    1    
  Si    0.0    0.0    0.0    
  Si    2.163    2.163    2.163    
  BEGIN_BLOCK_DATAGRID_3D    
  3d_datagrid_density    
  BEGIN_DATAGRID_3D#0    
  19    19    19    
  0.0    0.0    0.0    
  4.326    0.0    0.0    
  0.0    4.326    0.0    
  0.0    0.0    4.326    
  0.09011940720646863    0.15819394957075977    0.3660291878580762    0.46433933466689564    0.32335498820030795    
  0.1680151541386064    0.08195508156341917    0.043223306726365256    0.027653630700856392    0.023580082530669195    
  0.027653630097062603    0.04322332279531879    0.08195506838935322    0.1680151437663913    0.3233549971643082    
  0.4643393403534988    0.36602919564044667    0.15819394692688568    0.09011940720646863    0.1581939429064095    
  0.23291967331385666    0.41360462823773103    0.45256247097246194    0.30101403773008106    0.15639476702823085    
  0.07732210403258359    0.041484079772680205    0.026943767692730124    0.023114043949629112    0.026943769386327924    
  0.04148408271725198    0.07732211176005595    0.15639474815617677    0.301014076455934    0.45256245179567856    
  0.41360458891892576    0.2329196769372356    0.1581939429064095    0.3660291460730582    0.4136045721366786    
  0.4694239884872485    0.39274459917150634    0.24157351438512223    0.12712067430697052    0.06557997060760933    
  0.03703711509128269    0.025163056094954072    0.02197271103882899    0.025163062080553883    0.037037125425127854    
  0.06557998106729411    0.1271206603658176    0.2415735400265601    0.3927446150858595    0.46942396593339686    
  0.4136046054378578    0.3660291460730582    0.4643393291722735    0.4525624961728836    0.39274459220194347    
  0.27986790173710574    0.16774148427844768    0.09245373384191292    0.051492953349505016    0.03168718736342693    
  0.023110185810812072    0.020728900229271426    0.023110177437441863    0.03168720920750182    0.051492953001943446    
  0.09245370152387128    0.16774150882796135    0.2798679014321985    0.3927446295340734    0.45256254139529833    
  0.4643393291722735    0.3233550163393976    0.30101401166440234    0.24157354995979252    0.16774148245822879    
  0.10468733257895317    0.06284728676441034    0.03913676601427139    0.02703512142378216    0.021529804004107006    
  0.019951026432659086    0.021529819648983588    0.027035123014180085    0.039136758126501685    0.0628472683578846    
  0.104687349789307    0.16774148969646346    0.2415735240550502    0.30101403647766733    0.3233550163393976    
  0.16801511959285526    0.15639474137232143    0.12712063709014396    0.09245370940666298    0.06284726631920293    
  0.04246526273009417    0.030347378361247748    0.02386700356290428    0.02082838635392503    0.01995095404239786    
  0.020828394430555567    0.023867008027999164    0.0303473899738911    0.04246524653306868    0.06284728166919167    
  0.09245371279734914    0.12712064128455736    0.15639476502681493    0.16801511959285526    0.08195506802301836    
  0.07732210849870819    0.0655799741665072    0.051492931305773856    0.0391367551374603    0.03034738198138138    
  0.02505118943493322    0.022265802564278504    0.021046639407598308    0.020728971647343594    0.02104664308998863    
  0.022265805859002088    0.025051192648514093    0.030347393577474315    0.039136768049242085    0.05149295059434114    
  0.06557996575997048    0.07732210606915724    0.08195506802301836    0.043223319649687696    0.04148409698469853    
  0.03703713081780384    0.031687194748533806    0.027035116141597024    0.023867017544855627    0.022265811296041552    
  0.021794224179967462    0.02186635543083922    0.02197263058870766    0.02186637537450066    0.021794238348233935    
  0.022265811535748328    0.02386700422627734    0.02703513089583441    0.03168719801231419    0.03703711455085561    
  0.041484083484252914    0.043223319649687696    0.027653627243788077    0.026943763386318372    0.02516305612746311    
  0.02311016972048951    0.02152980527916466    0.020828391531248    0.02104663205480304    0.02186635265727995    
  0.022738415638518993    0.023114132298388015    0.022738420400610446    0.021866347628589477    0.02104663218374818    
  0.02082838441127703    0.02152981162979988    0.02311017255312149    0.025163051799320785    0.02694376834078661    
  0.027653627243788077    0.023580087676944438    0.023114051967892735    0.021972709798962486    0.020728895344131814    
  0.019951023185391256    0.01995096139566359    0.020728983785209536    0.02197262020308881    0.02311413556814226    
  0.02358000849678307    0.02311413310903216    0.02197263019255075    0.02072897378632501    0.01995094954601653    
  0.019951034353019703    0.020728900495131774    0.021972700581865033    0.02311404509937719    0.023580087676944438    
  0.02765362765110977    0.026943770269108613    0.025163061832170326    0.02311017401930998    0.021529804602353087    
  0.020828394179492657    0.021046627573630346    0.021866359714093092    0.022738424615549216    0.023114127756665936    
  0.022738417668894447    0.02186636558389882    0.021046620274616592    0.02082838582478062    0.02152981196156671    
  0.023110170533132374    0.02516304734702856    0.02694375956037967    0.02765362765110977    0.043223323886627155    
  0.04148409789908435    0.03703712791526303    0.03168720066694524    0.02703512002749129    0.023867014022772234    
  0.02226581291697738    0.021794228173578574    0.021866361392255087    0.021972632192834556    0.02186636312561967    
  0.021794231622482545    0.022265809527957155    0.023867008945238397    0.027035128119085983    0.03168720189346433    
  0.037037127663348914    0.041484096742184465    0.043223323886627155    0.08195505550207574    0.0773220974050975    
  0.06557997867413887    0.051492946284986685    0.039136750765426664    0.03034738601998151    0.025051191365473485    
  0.022265806381213876    0.021046640915633075    0.020728986734686896    0.02104663369382054    0.02226580921342113    
  0.025051184045352486    0.030347386214699058    0.039136773854119754    0.051492945407908004    0.06557996198213835    
  0.0773221018026622    0.08195505550207574    0.1680151458857556    0.15639475779987924    0.12712065321317817    
  0.0924537106456455    0.06284726348994672    0.04246525725677299    0.030347385862376713    0.023867007473595513    
  0.020828389549013192    0.0199509477822701    0.02082838847279379    0.023867011811209458    0.030347382906655763    
  0.042465237068536305    0.06284728205178816    0.09245370912033611    0.12712064839695295    0.156394751026694    
  0.1680151458857556    0.3233550028115861    0.30101402292321183    0.2415735303175541    0.1677414826788561    
  0.10468733371113016    0.06284728784361306    0.03913676463801229    0.027035109740697016    0.02152980976833202    
  0.019951037759930207    0.021529816253839453    0.027035109064965698    0.03913676557817865    0.06284726371968045    
  0.1046873424796384    0.16774148602648628    0.24157352373650698    0.3010140356225488    0.3233550028115861    
  0.464339345291803    0.4525625641996715    0.3927446095233853    0.2798679203268117    0.1677414969946731    
  0.09245372596314713    0.05149296587518132    0.031687189967103783    0.02311018016647502    0.020728896737537715    
  0.023110179970957507    0.03168719435287204    0.05149295571714969    0.092453710961287    0.16774149997681637    
  0.2798678990854379    0.39274458383769856    0.45256256996781336    0.464339345291803    0.3660291956768131    
  0.4136045776200931    0.46942395253490454    0.3927446362622773    0.24157353554158256    0.1271206696020268    
  0.06557997410849557    0.0370371185440139    0.02516305291808575    0.021972701166289074    0.025163060682831424    
  0.03703712268854908    0.06557997397956301    0.12712061989167858    0.2415735427924511    0.3927446047757649    
  0.4694239512801492    0.4136045731337604    0.3660291956768131    0.1581939479580914    0.2329196765975948    
  0.41360460280340516    0.4525625307347935    0.30101405343886434    0.1563947599631089    0.07732211611097835    
  0.041484077449233644    0.02694376221796037    0.023114051620058078    0.026943767303144135    0.04148408370897006    
  0.07732210417610803    0.1563947445646169    0.30101408842551985    0.45256253401771857    0.41360454681828385    
  0.2329196783845407    0.1581939479580914    0.09011940720646863    0.15819394957075977    0.3660291878580762    
  0.46433933466689564    0.32335498820030795    0.1680151541386064    0.08195508156341917    0.043223306726365256    
  0.027653630700856392    0.023580082530669195    0.027653630097062603    0.04322332279531879    0.08195506838935322    
  0.1680151437663913    0.3233549971643082    0.4643393403534988    0.36602919564044667    0.15819394692688568    
  0.09011940720646863    0.1581939456535896    0.23291968245927847    0.413604567009699    0.4525624961845984    
  0.30101397983555356    0.1563947458086748    0.0773221147600664    0.041484078413971386    0.026943770138432452    
  0.023114047626905488    0.026943766013626583    0.04148408949463609    0.0773221162071806    0.15639474704183895    
  0.30101401822945517    0.45256249307381546    0.41360458504190173    0.23291969428400414    0.1581939456535896    
  0.23291966655787713    0.30456152606645504    0.44565138635901685    0.43543953193595486    0.27994735826199196    
  0.1458587223912385    0.07316518613529858    0.03994896865793883    0.02634606352067556    0.022738493322338606    
  0.02634606891399995    0.03994897012619337    0.0731651860832591    0.14585869339439678    0.27994740305555427    
  0.43543951909875184    0.44565123447731303    0.30456154687917253    0.23291966655787713    0.41360455284788994    
  0.4456513471846504    0.4645803627212232    0.36928921727799063    0.22454594099934513    0.1191898333509858    
  0.06254656001317233    0.03602496670968509    0.02488243006881425    0.021866293264411706    0.024882436428171326    
  0.03602497592671202    0.06254656536326034    0.11918980769343838    0.22454596148091827    0.3692892140952084    
  0.46458038014678826    0.4456513906878277    0.41360455284788994    0.4525625330040335    0.43543959985546105    
  0.36928924041827277    0.26023439265311193    0.15661762082879185    0.08756181266334241    0.049796142748028294    
  0.03136176657292802    0.023298283257822832    0.021046709218091028    0.023298274127153226    0.03136178407830307    
  0.049796140311958566    0.08756178670259684    0.15661764689030985    0.26023441193574914    0.3692892170957282    
  0.4354396426249552    0.4525625330040335    0.3010140368981753    0.27994737231745026    0.22454597403892848    
  0.15661762471587207    0.09894800432906495    0.060578175382592574    0.038700665799593144    0.027459331310810898    
  0.022312664496416383    0.020828305307767792    0.022312670996354693    0.027459338130633875    0.038700666006408396    
  0.0605781444182441    0.09894801177912749    0.15661762265758003    0.2245459623003672    0.27994740854835554    
  0.3010140368981753    0.156394747567741    0.14585868800258323    0.11918980901947544    0.08756178667504814    
  0.060578151327153065    0.04198368855025252    0.030923580138340227    0.025040247964033327    0.022312585516157477    
  0.021529890174386137    0.022312595284284368    0.025040253470237844    0.030923594913000774    0.041983671488477405    
  0.060578156925011756    0.08756179222600129    0.1191898096712149    0.14585869616095337    0.156394747567741    
  0.07732210197952687    0.07316518873911328    0.06254656085992694    0.04979612228877577    0.03870065183612138    
  0.030923592364514158    0.026375167650849844    0.024151270459769753    0.023298351013702995    0.023110083917101357    
  0.023298357364799592    0.02415127321662315    0.026375162674861473    0.030923591683124026    0.03870067472078469    
  0.04979613980975336    0.06254655365279031    0.07316518711730194    0.07732210197952687    0.04148409719669502    
  0.03994898759411312    0.03602497619397206    0.03136177380313938    0.027459338178741757    0.025040273795726844    
  0.024151280664174993    0.02432952404296314    0.024882347192460786    0.025163137834922324    0.024882343446432215    
  0.024329534924255106    0.024151284958627884    0.02504024604336095    0.027459348058487678    0.03136177864239365    
  0.03602496395445431    0.039948972553716364    0.04148409719669502    0.026943765765141185    0.026346065094293523    
  0.02488243136252865    0.02329826970368236    0.02231265937533793    0.022312595750427495    0.023298354064178083    
  0.02488233484173043    0.026346154694124352    0.026943676670334205    0.026346147698397545    0.024882336363329937    
  0.023298356965516076    0.022312578873515003    0.022312672597100756    0.02329827001727119    0.024882428146813816    
  0.026346064699286638    0.026943765765141185    0.023114046449792616    0.022738499232638657    0.021866296038027512    
  0.021046699567271746    0.020828302606001495    0.021529895170249856    0.0231100915893333    0.025163126426170624    
  0.026943687305458455    0.02765371925893898    0.026943681809738582    0.025163131349577986    0.023110091430758702    
  0.02152988882395672    0.02082832009068921    0.021046711984852785    0.021866281417631268    0.022738496373795998    
  0.023114046449792616    0.026943763341156467    0.02634607178743527    0.024882436565339533    0.02329826913614907    
  0.022312659639526583    0.022312603842304924    0.023298347616841644    0.024882334227551078    0.026346148965355184    
  0.02694366905130254    0.026346151949025853    0.024882340098718286    0.02329834603455537    0.022312582566433543    
  0.02231267060566329    0.023298265464732845    0.024882423500243132    0.026346060999868144    0.026943763341156467    
  0.04148408924884282    0.0399489837030117    0.036024970852776415    0.03136177353012409    0.02745933537683579    
  0.025040263366777303    0.02415127918300488    0.02432951423610891    0.02488234444156659    0.025163146795147254    
  0.0248823535471242    0.024329536921557572    0.02415127726911825    0.025040257538556116    0.027459348349480796    
  0.031361779987746065    0.03602497184463018    0.03994898197186469    0.04148408924884282    0.07732210141561802    
  0.073165177705875    0.06254656827044923    0.04979613007073733    0.03870066380432252    0.030923598936502688    
  0.026375166746664132    0.0241512816121682    0.023298370918386213    0.023110085946145338    0.02329835262094233    
  0.02415126910352164    0.026375157445308283    0.030923582961805775    0.03870067493771146    0.049796128086527086    
  0.06254656018618757    0.07316518602788212    0.07732210141561802    0.15639475031790756    0.14585869180890942    
  0.11918983394359525    0.0875617787256615    0.060578159019099645    0.04198368397907438    0.030923587958929626    
  0.02504025899065092    0.022312588215599345    0.021529886034272472    0.022312591824741004    0.025040255204794585    
  0.030923591054110036    0.041983682443531074    0.06057816696053665    0.08756179982360936    0.11918981337004039    
  0.14585869582981234    0.15639475031790756    0.30101406998492714    0.27994738568772537    0.22454595701616    
  0.15661759781215293    0.09894800130175567    0.060578161254779515    0.03870066336319212    0.02745932511236827    
  0.022312672288886753    0.020828311743988033    0.02231267282952169    0.027459329937512517    0.03870066892780578    
  0.060578139298890624    0.09894801325262098    0.1566176068192287    0.2245459593595989    0.27994739072798697    
  0.30101406998492714    0.45256254506573146    0.4354395767975243    0.36928924193247825    0.2602343938176149    
  0.15661762071027552    0.08756180070771438    0.049796154684539    0.031361764395386994    0.023298279008139463    
  0.02104670513134721    0.023298281578692133    0.03136177759086383    0.04979614257498156    0.08756179724786513    
  0.1566176520731733    0.26023437312326386    0.36928920612263627    0.43543957389942256    0.45256254506573146    
  0.41360453706372613    0.445651304040918    0.46458036149418613    0.36928920736583654    0.22454593170504686    
  0.11918984272181792    0.06254655868333932    0.036024964913073984    0.024882430605854496    0.021866285968030003    
  0.024882439723425877    0.03602497697582769    0.0625465646429767    0.11918978338862798    0.22454599846330284    
  0.36928922260328434    0.46458032707190505    0.4456513645318473    0.41360453706372613    0.23291965589288802    
  0.304561523712777    0.4456513047284027    0.4354395470303454    0.27994736678902754    0.14585870665416323    
  0.07316518470228878    0.03994896556172333    0.026346060939001815    0.022738497852757795    0.026346066841378187    
  0.039948965106053336    0.07316518554498448    0.14585868205930091    0.27994743275449946    0.43543958662373805    
  0.44565136970287667    0.3045615254727102    0.23291965589288802    0.1581939456535896    0.23291968245927847    
  0.413604567009699    0.4525624961845984    0.30101397983555356    0.1563947458086748    0.0773221147600664    
  0.041484078413971386    0.026943770138432452    0.023114047626905488    0.026943766013626583    0.04148408949463609    
  0.0773221162071806    0.15639474704183895    0.30101401822945517    0.45256249307381546    0.41360458504190173    
  0.23291969428400414    0.1581939456535896    0.3660291714290996    0.41360459558185664    0.46942400152916514    
  0.39274459449249677    0.24157350389606058    0.12712065536728456    0.06557997638709376    0.037037114681240775    
  0.025163057915055225    0.021972708602554104    0.025163059891209955    0.037037132843053815    0.06557997466853001    
  0.12712065838216532    0.24157352693290068    0.39274458539357376    0.46942397098406224    0.41360463321571833    
  0.3660291714290996    0.41360460354109346    0.44565132533682744    0.464580453312401    0.36928916249581784    
  0.22454596775633892    0.11918983352749737    0.06254655529230309    0.03602496373109185    0.024882429039893676    
  0.021866288382714694    0.024882435840306746    0.036024970344450805    0.0625465643136995    0.11918981564329056    
  0.22454601987964248    0.36928917679220424    0.4645803647549399    0.44565135366537134    0.41360460354109346    
  0.4694239406360775    0.464580361501103    0.41493532398746197    0.3009792212052079    0.18081428483329964    
  0.09910170719399712    0.05482237379449287    0.03351972242018574    0.024329451923586896    0.021794318376367715    
  0.02432946081285648    0.033519728065653315    0.054822382059114175    0.09910169550830418    0.18081430978198085    
  0.300979249761743    0.4149353036593297    0.4645804697445745    0.4694239406360775    0.392744650684857    
  0.3692892125888083    0.3009792488036708    0.20918039279081177    0.12857386195236964    0.0753154652001123    
  0.04565404773697441    0.03080029400459139    0.024151377632314612    0.022265737496430415    0.024151370341158836    
  0.030800313153552934    0.04565404090939938    0.07531544201629532    0.12857389395855737    0.2091804153099651    
  0.30097926839117145    0.36928927423064234    0.392744650684857    0.24157355780550652    0.22454595327632    
  0.18081431128697426    0.12857385342788452    0.08460153780616801    0.05507389293690417    0.03798050123800144    
  0.02911085032134964    0.02504017765183287    0.023867086308939512    0.025040186444655926    0.029110849885184684    
  0.03798050475712237    0.05507385958249764    0.08460155399586504    0.12857386553813044    0.180814309056945    
  0.2245459735197662    0.24157355780550652    0.12712065761026514    0.11918981063507406    0.09910167526783564    
  0.0753154348511505    0.05507386378064979    0.04119071816212904    0.033121545098405064    0.02911075329476982    
  0.027459432569517495    0.027035051305709996    0.02745943031933621    0.02911075759366811    0.03312155457715045    
  0.04119069865748101    0.05507388358568033    0.07531544507274164    0.09910168055578844    0.11918983463623117    
  0.12712065761026514    0.06557996991799818    0.0625465616466075    0.05482236905303889    0.04565402424375851    
  0.03798048765111132    0.03312155008140854    0.031010529592749903    0.030800388653071213    0.03136169023996253    
  0.03168730360017615    0.03136169348893457    0.0308003972195903    0.0310105293262764    0.03312155097074665    
  0.03798050641522952    0.0456540421568914    0.05482236487618728    0.06254654616858912    0.06557996991799818    
  0.03703713287137897    0.03602497988888637    0.03351973576153815    0.03080030070441668    0.029110847396579032    
  0.029110776786066193    0.030800405469309677    0.03351961660973099    0.03602507443796984    0.037037024925335865    
  0.03602509746539106    0.03351962117351699    0.030800399456672626    0.029110753850585088    0.029110866166404056    
  0.030800307025868466    0.033519721839102776    0.03602496782767732    0.03703713287137897    0.0251630534406483    
  0.024882429096454148    0.024329453652050144    0.02415136328285334    0.0250401751742261    0.027459436087289027    
  0.03136168404222133    0.03602506104652276    0.03994887600530655    0.04148419780839537    0.03994887575290768    
  0.03602506384591755    0.03136168680162567    0.027459422587272252    0.025040180799336266    0.02415136388933454    
  0.02432944864029689    0.02488242919108753    0.0251630534406483    0.02197270406796129    0.021866290738834657    
  0.021794320062090127    0.022265722468470205    0.023867086219420998    0.027035040223412698    0.031687307525211796    
  0.03703701612535539    0.04148421173333777    0.04322321713395311    0.04148420724497142    0.037037024196939064    
  0.03168728999709396    0.027035040358472373    0.02386710664186366    0.02226573090307106    0.021794309929778977    
  0.02186629185621928    0.02197270406796129    0.025163050393238892    0.024882432810156625    0.02432945796993274    
  0.024151363106800102    0.02504016594951434    0.027459446736480694    0.031361672935609715    0.03602505895880643    
  0.03994886395731074    0.04148418765377445    0.03994888614288486    0.036025066385109814    0.03136168059312392    
  0.027459427706294615    0.02504018346623522    0.0241513579107665    0.024329448054996986    0.024882424220813413    
  0.025163050393238892    0.037037123765751474    0.03602498070391433    0.03351972812337106    0.03080029678708749    
  0.029110845752377146    0.029110769181322733    0.030800398106673333    0.03351962190313248    0.0360250770504947    
  0.03703703307366293    0.0360250856292743    0.03351963794234859    0.030800384896767913    0.02911075754108324    
  0.02911086043447327    0.030800303952145905    0.03351972379291056    0.036024975976416705    0.037037123765751474    
  0.06557996817618446    0.06254655791871654    0.05482237410633525    0.0456540286138073    0.0379804958783138    
  0.03312154978014284    0.031010527101069506    0.030800381150515095    0.0313617030597589    0.031687306334314644    
  0.031361690498727446    0.030800402563968387    0.031010522112361515    0.03312154476779324    0.037980512950883866    
  0.04565402978791438    0.05482236715075065    0.06254655167136547    0.06557996817618446    0.12712065917711263    
  0.11918982614862386    0.09910170132137897    0.07531543895241341    0.055073865126022414    0.04119072077197487    
  0.03312155442588848    0.02911076271834999    0.02745942960727978    0.02703502669342819    0.027459430248300623    
  0.029110756233372448    0.03312155291272909    0.04119071075846224    0.05507388212976012    0.07531543691394656    
  0.09910166815690237    0.1191898260531395    0.12712065917711263    0.24157356115961334    0.22454595576480224    
  0.18081429745186947    0.1285738664528381    0.08460155196917114    0.05507387320787857    0.03798050121154158    
  0.0291108461988077    0.025040184501410042    0.02386709380499631    0.025040185481689174    0.02911084310789272    
  0.037980507423143336    0.055073873049728224    0.0846015622441392    0.12857386020859446    0.18081428143646877    
  0.22454596116446207    0.24157356115961334    0.3927446356679786    0.3692892444638779    0.3009792520953761    
  0.20918039003462288    0.12857387108894183    0.07531544846002591    0.04565405358601213    0.030800294692584378    
  0.024151376486193168    0.022265730263758585    0.0241513774361662    0.030800307376982323    0.045654045352284206    
  0.07531544993489087    0.1285738898016908    0.20918039118307702    0.30097928049580774    0.36928922935365804    
  0.3927446356679786    0.4694239784828063    0.4645803903416359    0.4149353645970492    0.30097924612636484    
  0.18081429383303016    0.09910171423695129    0.05482237724893701    0.033519717107133314    0.024329454855932433    
  0.021794313572591234    0.024329463209974127    0.033519726930102654    0.05482238532468845    0.09910166925770167    
  0.18081432804494285    0.3009792385375985    0.4149353146176946    0.46458036665960833    0.4694239784828063    
  0.4136045812016854    0.4456513923139607    0.46458039873555695    0.3692892189772575    0.2245459529298702    
  0.11918982577235519    0.0625465587989226    0.03602496350355788    0.02488243029754422    0.02186629306819359    
  0.024882432017336056    0.03602496737869971    0.06254656001506122    0.1191898176630135    0.224546014479633    
  0.36928922862887764    0.46458039662600925    0.4456513570841759    0.4136045812016854    0.3660291714290996    
  0.41360459558185664    0.46942400152916514    0.39274459449249677    0.24157350389606058    0.12712065536728456    
  0.06557997638709376    0.037037114681240775    0.025163057915055225    0.021972708602554104    0.025163059891209955    
  0.037037132843053815    0.06557997466853001    0.12712065838216532    0.24157352693290068    0.39274458539357376    
  0.46942397098406224    0.41360463321571833    0.3660291714290996    0.46433936338264475    0.4525625325870773    
  0.3927446478447574    0.279867908800207    0.16774147983947585    0.09245371692047878    0.05149295747220457    
  0.031687186765063546    0.02311017535625108    0.02072889969075304    0.02311017736994504    0.031687205543447276    
  0.05149295712606698    0.09245370539347676    0.16774150198979515    0.27986792280532713    0.3927446092170763    
  0.4525625697060148    0.46433936338264475    0.4525624698137391    0.43543962652215085    0.3692892987277674    
  0.26023437132716465    0.15661761796208257    0.08756181010505053    0.04979613597927059    0.031361769079095325    
  0.023298269955543904    0.021046707422669265    0.023298278478286805    0.03136177334396053    0.04979614438559387    
  0.08756179375778599    0.15661764717856233    0.26023435330336275    0.36928920662386494    0.43543957486725116    
  0.4525624698137391    0.3927445811768235    0.36928923580000095    0.3009792578863719    0.20918040413267106    
  0.12857386201730747    0.07531545689823683    0.045654035734033704    0.03080029745986612    0.024151368228540374    
  0.022265736491342825    0.024151369677391118    0.030800308598304238    0.04565405175812838    0.07531544461870696    
  0.1285738832758789    0.20918040996570353    0.30097923973220275    0.36928930474760197    0.3927445811768235    
  0.2798679717852086    0.26023441483075593    0.20918038655749466    0.14753103703658685    0.09561580983586923    
  0.061030507631311834    0.04120451021239901    0.031010607137674485    0.026375092531404864    0.02505127144868266    
  0.02637509056410868    0.03101062473345313    0.041204499252089466    0.06103049711317244    0.09561584114125901    
  0.14753105583284803    0.20918042561868425    0.26023442265036023    0.2798679717852086    0.16774151319587305    
  0.15661760027571145    0.1285738816940196    0.09561580915457076    0.06791487039450904    0.04918963879434965    
  0.03843649743566643    0.03312144300921206    0.03092367296305565    0.030347285294930755    0.030923691309359232    
  0.03312144123648945    0.038436494312973184    0.0491896283138723    0.06791489308396334    0.09561580863537132    
  0.12857385659247628    0.15661760674283146    0.16774151319587305    0.09245371169135543    0.08756179270679519    
  0.0753154406525457    0.061030499176350575    0.049189614254816064    0.04173032471417005    0.038436387963286106    
  0.03798059181672316    0.0387005690907073    0.03913687068226395    0.03870057464680442    0.037980591370009614    
  0.03843639745726113    0.04173030196916337    0.04918963114179221    0.06103049816468018    0.07531543789269254    
  0.08756179360897327    0.09245371169135543    0.05149296214725445    0.04979615101819544    0.04565404003700141    
  0.041204490357260856    0.03843648349441912    0.038436393784127575    0.04120462084146164    0.04565392468189166    
  0.04979626360914041    0.05149284698018509    0.049796280337475074    0.045653935829795336    0.041204611725934856    
  0.038436406352181755    0.038436506254017073    0.04120450670104901    0.04565404179109206    0.04979613494381566    
  0.05149296214725445    0.03168720714044748    0.03136178112860187    0.030800307250301227    0.031010614400719564    
  0.03312144082754139    0.03798061357687639    0.0456539332124604    0.054822488231452714    0.06254642831698547    
  0.06558011392239244    0.06254643910199521    0.05482247974575276    0.04565393530589488    0.03798058305586486    
  0.033121463579628196    0.031010620589454637    0.030800297981866585    0.031361771005902615    0.03168720714044748    
  0.023110171993043903    0.023298268322235218    0.024151366805057726    0.026375079270751417    0.03092366925680177    
  0.03870057279983735    0.04979624320560902    0.06254640316154209    0.07316533626657203    0.07732195394551289    