#     DFTpy    
  CRYSTAL 
    
  PRIMVEC    
  1.562579919280982    -2.706467811081536    0.0    
  1.562579919280982    2.706467811081536    0.0    
  0.0    0.0    5.283212247586207    
  PRIMCOORD    
  2    1    
  Si    1.562579919280982    0.9021559370271786    1.3208030618965518    
  Si    1.5625799192809824    -0.9021559370271786    3.962409185689654    
  BEGIN_BLOCK_DATAGRID_3D    
  3d_datagrid_density    
  BEGIN_DATAGRID_3D#0    
  15    15    23    
  0.0    0.0    0.0    
  1.562579919280982    -2.706467811081536    0.0    
  1.562579919280982    2.706467811081536    0.0    
  0.0    0.0    5.283212247586207    
  0.057554509999024436    0.059954324078359975    0.06738722322709104    0.07983408296412861    0.09609155923384835    
  0.11328071592092995    0.12661559837862507    0.13159069682030766    0.12661555474732133    0.11328070420381162    
  0.09609156649785905    0.0798340751428444    0.06738722238748034    0.05995434462720605    0.057554509999024436    
  0.05995435538253022    0.05995497495418116    0.06489446717065783    0.0749713057566708    0.08962621718891389    
  0.1068864194761619    0.12281923771714104    0.13238186484950418    0.13238010470485076    0.12282115637721258    
  0.10688468217852676    0.08962793641970776    0.07496979805401341    0.0648959848177452    0.05995435538253022    
  0.06738720704204672    0.06489443967167231    0.06738779895109619    0.07496999756762744    0.08751275253591255    
  0.10381855607886696    0.12093602331110086    0.13415890621200027    0.1391153922445411    0.13415903888245997    
  0.12093642120168378    0.10381817679381428    0.08751297854178504    0.07496978411875234    0.06738720704204672    
  0.07983410749399868    0.07497130244598173    0.07497001164017272    0.07983433150064906    0.08962674050460823    
  0.10381886593370071    0.1204082711075032    0.13559721259043286    0.14476719381690273    0.14476712483043871    
  0.13559602398788215    0.1204091571523824    0.10381820752651137    0.08962793206872399    0.07983410749399868    
  0.09609157561939327    0.08962621188743615    0.08751272785976782    0.08962667342890147    0.09609235635453886    
  0.10688468677647742    0.12093602822035592    0.13559602011024244    0.14701325618408037    0.1513740943044894    
  0.1470145954212118    0.13559605464431654    0.12093643008817279    0.10688467495905395    0.09609157561939327    
  0.11328074440682878    0.10688640934082914    0.10381852915818812    0.10381887255721818    0.10688471514228683    
  0.11328107902395741    0.12281958233132555    0.13416067020067904    0.14476634153599058    0.1513760620612081    
  0.1513740967314658    0.14476711146273372    0.13415902324113396    0.12282113458602195    0.11328074440682878    
  0.1266156226189983    0.12281923031495352    0.12093603293771862    0.12040826130200584    0.12093601323196686    
  0.12281960997457551    0.1266165049792348    0.13238017498911658    0.13911494084858358    0.14476634196567273    
  0.14701322478562115    0.1447671471689541    0.13911536827204196    0.132380125757197    0.1266156226189983    
  0.13159071471969522    0.132381830566553    0.1341588923298269    0.13559720581038612    0.13559604371215137    
  0.13416065269523353    0.13238014956989655    0.13159059138805781    0.13238019260075456    0.13416068920545288    
  0.1355960203405153    0.13559717845943564    0.13415891162173085    0.1323818429359125    0.13159071471969522    
  0.12661562129424853    0.1323801196311877    0.1391153638993568    0.14476715366206258    0.14701323300763972    
  0.14476635279062997    0.1391149751677415    0.1323802297098932    0.1266164960784741    0.1228195822262685    
  0.12093601406058478    0.12040826876341286    0.12093604542984271    0.12281925689099368    0.12661562129424853    
  0.1132807025660475    0.12282114880006735    0.13415905774611317    0.14476711895958233    0.15137411304317047    
  0.15137603615107892    0.1447663296356309    0.1341606395411344    0.12281960730496695    0.1132810995888107    
  0.10688470243866695    0.10381884040217582    0.10381854372715939    0.1068863859757025    0.1132807025660475    
  0.09609157475400942    0.10688466377156317    0.12093640123529575    0.13559604704868689    0.14701459883160775    
  0.1513740916508364    0.14701325380909744    0.13559605829410354    0.12093602939108418    0.10688470068070739    
  0.0960923536189339    0.08962671965940314    0.08751276205828157    0.0896262165149948    0.09609157475400942    
  0.07983410683700704    0.08962794261762283    0.10381817650141685    0.12040913857473415    0.13559604894316943    
  0.14476713659949184    0.14476716903871262    0.1355972276614774    0.12040827174885758    0.10381887075684239    
  0.08962669629004814    0.07983434179704765    0.07497000868311876    0.07497131745930698    0.07983410683700704    
  0.06738723081695504    0.07496978720409941    0.08751297868229747    0.10381820670762576    0.12093638687619387    
  0.13415902941989274    0.13911536592817345    0.1341589174702711    0.12093599695899448    0.10381855049688397    
  0.08751275435809742    0.07497000476420165    0.06738779550114399    0.06489445832961088    0.06738723081695504    
  0.05995436144463259    0.06489597115762008    0.07496980684089596    0.08962794008991624    0.10688470641571625    
  0.1228211461530145    0.13238011870625455    0.13238188702355105    0.12281921943177757    0.10688641158837724    
  0.08962621566673015    0.07497130002899172    0.06489445787220931    0.059955003268323356    0.05995436144463259    
  0.057554509999024436    0.059954324078359975    0.06738722322709104    0.07983408296412861    0.09609155923384835    
  0.11328071592092995    0.12661559837862507    0.13159069682030766    0.12661555474732133    0.11328070420381162    
  0.09609156649785905    0.0798340751428444    0.06738722238748034    0.05995434462720605    0.057554509999024436    
  0.060658727321231766    0.06340294965798486    0.0718399937422831    0.0859716952865932    0.10448874231827682    
  0.12409256440963151    0.13937760064738342    0.14514599907130274    0.1393777753683271    0.12409076020792187    
  0.10449073220583376    0.08597123783981278    0.07184058323492859    0.06340213458737852    0.060658727321231766    
  0.06340214243610375    0.06340111119472736    0.0677285233647404    0.07645415160137937    0.08903011352165342    
  0.10374849858337273    0.1172512227179389    0.12530002352872469    0.12529842840251249    0.11725302099901891    
  0.10374752700405517    0.08903007120959451    0.07645344498773261    0.06772901130135661    0.06340214243610375    
  0.07184059072113819    0.07030658515394737    0.07184130798700207    0.07645361975674028    0.08398388193308953    
  0.09373028774549985    0.10396225214945252    0.11181651894833507    0.11472814321263436    0.1118162872714848    
  0.10396299929933034    0.09372987952493608    0.08398490891488675    0.07645341758086403    0.07184059072113819    
  0.08597126439341195    0.0844975946604378    0.08449794132624992    0.08597037113230903    0.08903047741239899    
  0.09372996489475743    0.09955027325507328    0.10511090126436486    0.10854240382606999    0.10854264071392505    
  0.1051100935227748    0.09955021322546329    0.09372990261284873    0.08903007802343561    0.08597126439341195    
  0.10449074555777497    0.10553634106102025    0.10600718704267618    0.10553602450889402    0.10449104562959687    
  0.10374773057517113    0.10396221722754634    0.10510999210362636    0.10654558060586851    0.10721171591065265    
  0.10654651969139249    0.10511010199812783    0.10396301255939383    0.10374753295614918    0.10449074555777497    
  0.1240907698734927    0.1306944427046857    0.13484804313081902    0.13484809562763328    0.13069454688972612    
  0.12409068487871883    0.11725146065244067    0.11181791991859259    0.10854231984833426    0.10721261973723983    
  0.10721169382108327    0.10854264251694325    0.11181631542746581    0.11725299937615344    0.1240907698734927    
  0.13937781259729298    0.1542171802914028    0.16573994263965255    0.17012910173858928    0.16573976791621575    
  0.1542170502893844    0.1393785966209118    0.12529956618800547    0.11472651482243024    0.10854230763469695    
  0.10654556224987968    0.10854239232914746    0.11472814854120854    0.12529844347241978    0.13937781259729298    
  0.14514599353092966    0.1686426533992371    0.1900257892283262    0.20281327162168833    0.20281607171380553    
  0.19002363992097207    0.1686447659583146    0.14514359267617483    0.12529955521554428    0.11181791010279168    
  0.10511000054744972    0.10511087638551167    0.11181651228257038    0.12529997652993136    0.14514599353092966    
  0.13937763546949014    0.16864489949551847    0.19929679059872085    0.22261386257728935    0.23129647582307045    
  0.22261326660882153    0.19929678463927386    0.1686448047042914    0.13937854524644847    0.11725149012688943    
  0.10396217214038059    0.0995502661821986    0.10396228239660238    0.11725124063665494    0.13937763546949014    
  0.12409254067940136    0.15421459008150576    0.19002688294816775    0.22260964502248962    0.24196559015564295    
  0.24196376934749855    0.22261320148276978    0.19002360816576105    0.1542170414119132    0.12409070868789873    
  0.10374773345317678    0.09372994004323267    0.09373027872168786    0.10374846223986012    0.12409254067940136    
  0.10448875327870419    0.1306964860716891    0.16573877362712405    0.20281574778573672    0.23129768983381577    
  0.24196557737922766    0.2312964901308754    0.2028160746106507    0.16573977941216883    0.13069456532093962    
  0.10449103986498375    0.08903047262372672    0.08398391147828223    0.08903010358380267    0.10448875327870419    
  0.0859717168346678    0.10553619599352598    0.13484818435410323    0.1701289453110517    0.20281574052283652    
  0.2226096684568879    0.22261389164401327    0.20281332862161974    0.17012909514495247    0.1348480953519334    
  0.10553604469494508    0.08597038752148939    0.07645362111518804    0.07645415486443423    0.0859717168346678    
  0.07183999149974776    0.08449864751320821    0.10600642965143721    0.13484821122571708    0.16573877851261054    
  0.19002684311356105    0.19929679818251955    0.19002579654705218    0.16573993092099107    0.13484804845398257    
  0.10600722814605892    0.08449795477115196    0.0718412903061078    0.0677285178430295    0.07183999149974776    
  0.0634029726840092    0.0703053695900147    0.08449864848930841    0.10553618642864482    0.13069648728769243    
  0.1542146064163436    0.16864492078529694    0.1686427133360821    0.15421714619434787    0.13069445178328093    
  0.10553634976279325    0.08449760220686779    0.07030659682757989    0.06340113947190741    0.0634029726840092    
  0.060658727321231766    0.06340294965798486    0.0718399937422831    0.0859716952865932    0.10448874231827682    
  0.12409256440963151    0.13937760064738342    0.14514599907130274    0.1393777753683271    0.12409076020792187    
  0.10449073220583376    0.08597123783981278    0.07184058323492859    0.06340213458737852    0.060658727321231766    
  0.06966897676866028    0.07335962643695731    0.08467728269478253    0.10376327737833728    0.12911153410058954    
  0.15606338738449285    0.17715453948652915    0.1851844118646852    0.177153623456777    0.15606272992329326    
  0.12911173159674932    0.10376292538388174    0.08467724398457169    0.07335901310027346    0.06966897676866028    
  0.07335903056882619    0.07335975817856237    0.07807884466400106    0.0876066558628065    0.10142104014127666    
  0.11758733962255169    0.13239808249240503    0.14133120257480314    0.14132969297638737    0.13239986707062038    
  0.11758579024795585    0.10142229361122095    0.08760625712427499    0.07807994270301181    0.07335903056882619    
  0.08467725107753737    0.08372788189576075    0.08467711054454174    0.08760646781812977    0.09262689530976356    
  0.0993846779739014    0.10664631956396249    0.1123599810287786    0.11452936970263548    0.11235984431815654    
  0.10664679647143133    0.09938512299736586    0.09262583578953026    0.08760622765916605    0.08467725107753737    
  0.1037629516972641    0.1052631699338897    0.10526451103443896    0.10376229326165731    0.10142210335621876    
  0.09938393890997098    0.09838372041697142    0.09837245752704606    0.0986998983893102    0.0986996127925425    
  0.0983727705895616    0.0983821466138316    0.09938513790886787    0.10142230057556835    0.1037629516972641    
  0.12911176448090866    0.13795201868057494    0.1412329365994198    0.13795086822821076    0.12911258926947766    
  0.11758627069756254    0.10664664048766852    0.09837176108524746    0.09352186506173438    0.09197553080622103    
  0.09352179571094428    0.0983727737872182    0.1066467909692357    0.1175857808872031    0.12911176448090866    
  0.15606273895235567    0.17772339674107956    0.1906899697261935    0.19069199972137182    0.1777220985550205    
  0.15606347915250293    0.13239847730116033    0.11236110153311882    0.09869971462917827    0.09197574874141995    
  0.0919755455753177    0.09869961943913237    0.11235985553490291    0.13239983894700563    0.15606273895235567    
  0.17715368774405613    0.2148337324531247    0.24338572600751687    0.2539405921962424    0.24338747810282352    
  0.21483357022646124    0.1771538462723672    0.14133019709052982    0.11452847464364037    0.09869971216675406    
  0.09352186178455339    0.09869990561878679    0.11452937422353505    0.1413297125780062    0.17715368774405613    
  0.18518437114799946    0.23741867493330507    0.2831745673623391    0.3086376055345757    0.3086373702087735    
  0.28317403444668526    0.23742002397520484    0.18518534894587316    0.1413301850153597    0.11236109336016324    
  0.0983717525067256    0.09837243961355546    0.11235997697460376    0.14133114955951728    0.18518437114799946    
  0.17715459411842224    0.23741961817476864    0.29777888666841484    0.33823568676143906    0.35138416416089324    
  0.3382358890377413    0.2977787189250143    0.23742006731953533    0.17715381921894646    0.13239849244996899    
  0.10664664425699918    0.09838369141925783    0.1066463436754004    0.13239807820689958    0.17715459411842224    
  0.1560633718379453    0.21483245252581407    0.28317362935636003    0.3382357120214394    0.3648757208974156    
  0.36487805581309607    0.338235849744535    0.2831740280423861    0.214833528931707    0.15606353734293787    
  0.11758625560180604    0.09938396538154522    0.09938466721472432    0.11758735412416173    0.1560633718379453    
  0.129111524497807    0.1777235288201688    0.24338743749369904    0.3086377186601052    0.35138392593557743    
  0.36487570771154626    0.3513841920258858    0.30863741305010006    0.24338748768500312    0.17772211795775986    
  0.12911258024218267    0.10142209541355744    0.09262692069031676    0.10142104641094293    0.129111524497807    
  0.10376329230531814    0.13795184590262158    0.190690518353928    0.25393929185970554    0.3086377213181808    
  0.33823572028193805    0.33823575785228377    0.30863767426299626    0.25394060296575743    0.19069198409433555    
  0.13795087655855823    0.10376231204314079    0.08760648215834148    0.08760668102944338    0.10376329230531814    
  0.08467728710674977    0.10526384008954695    0.1412332872052697    0.19069058139695025    0.24338748008510055    
  0.2831736103092468    0.2977789300288327    0.28317458582316957    0.24338573477863915    0.19068999143022783    
  0.14123295179672127    0.10526450435955793    0.08467709127942676    0.07807882480661803    0.08467728710674977    
  0.07335965807737238    0.08372742495619433    0.10526382272664109    0.13795183071327255    0.17772353166230362    
  0.21483249937198035    0.23741967278149234    0.23741872861514463    0.2148336835464368    0.17772340610113033    
  0.13795200158307103    0.10526318326341819    0.08372789889176196    0.07335977303334854    0.07335965807737238    
  0.06966897676866028    0.07335962643695731    0.08467728269478253    0.10376327737833728    0.12911153410058954    
  0.15606338738449285    0.17715453948652915    0.1851844118646852    0.177153623456777    0.15606272992329326    
  0.12911173159674932    0.10376292538388174    0.08467724398457169    0.07335901310027346    0.06966897676866028    
  0.08268927460421943    0.08782892748787703    0.10357794835540382    0.13032874673665024    0.16624868244202154    
  0.204341875397171    0.23364650986850125    0.24463955546551122    0.23365180977688807    0.20434471498326282    
  0.16624079041806505    0.13032953660837943    0.10357871918298812    0.08782860986624223    0.08268927460421943    
  0.08782862595094112    0.08782824324621816    0.09373550572288467    0.10567913905414184    0.12312045213060835    
  0.14359797908345046    0.1623473381923419    0.17372350000025313    0.17372748245154995    0.1623404289245062    
  0.1435978639622583    0.12312612763040476    0.10567879680019908    0.09373399054194953    0.08782862595094112    
  0.10357871377508991    0.1029765655247415    0.10357719267685965    0.10567780789157981    0.10974513309059931    
  0.11556043027863977    0.12198165103112257    0.1272256919753367    0.129285235086786    0.12722407920715262    
  0.12198674817943088    0.11555999631370392    0.10973945494129334    0.10567879141112323    0.10357871377508991    
  0.1303295816258899    0.13477918061198402    0.1347826525443968    0.13033010719942256    0.12312097151953615    
  0.11555901461178872    0.10942671286286434    0.10553023370602792    0.10381624866374227    0.10381601021060659    
  0.10553162739109807    0.10942214086564804    0.11556000521718529    0.1231261405200868    0.1303295816258899    
  0.16624081410030725    0.18357778988350876    0.19003288863154516    0.18357445469050754    0.16624855134377872    
  0.14359805027274342    0.12198260632938059    0.10553274005071366    0.09568966856709893    0.09247345817680233    
  0.09568950032738516    0.10553164047188811    0.12198674984285644    0.14359784678534168    0.16624081410030725    
  0.20434472817567526    0.24230151199053887    0.26437975944361725    0.2643788950060297    0.24229456668065708    
  0.20434257527928992    0.16234795517226536    0.12722183286971853    0.10381609928323107    0.09247313411394457    
  0.09247345538074148    0.10381601016091127    0.12722405569038964    0.1623404427513027    0.20434472817567526    
  0.2336518396709804    0.2939888664307344    0.33488322989765335    0.3483173497282056    0.33489976049776254    
  0.29398870679088984    0.2336459459552561    0.17372669522149933    0.12928717646416965    0.10381611470877707    
  0.09568964122478563    0.10381623121542206    0.1292852195012987    0.1737275136970215    0.2336518396709804    
  0.24463949435218751    0.3227201607846454    0.3757206938062764    0.3935171550455297    0.3935089307724184    
  0.37571545028878184    0.32273688642371723    0.24463608924013477    0.17372666487953156    0.12722181884232583    
  0.105532737546963    0.10553019817923956    0.127225702687317    0.17372347291403506    0.24463949435218751    
  0.23364659932867296    0.3227340303161565    0.3866420619589185    0.3983388917577124    0.39234269278791256    
  0.3983393636859454    0.3866369510164414    0.3227369288301646    0.23364592988012112    0.1623479771993339    
  0.12198259327949161    0.10942672359991336    0.12198169736460189    0.16234733856187974    0.23364659932867296    
  0.20434187345065832    0.29399042146350285    0.37571588534301453    0.39833464222758735    0.3797681826463423    
  0.3797786552026022    0.3983393362981383    0.3757154426200278    0.2939886920073342    0.20434259819692432    
  0.1435980440136732    0.11555898460463149    0.11556041549112644    0.14359795079422272    0.20434187345065832    
  0.16624870795470303    0.24229511135833387    0.3348962529376581    0.39350274603338636    0.3923606362167794    
  0.3797681745974401    0.39234272020481875    0.39350895027569904    0.3348998025762116    0.24229455896455707    
  0.1662485446691601    0.123120947163548    0.10974516134548853    0.12312044578734772    0.16624870795470303    
  0.13032875795277135    0.18357636817901346    0.2643793837842867    0.34831853115520317    0.3935027388471459    
  0.3983346623646023    0.3983389333025142    0.3935172492321795    0.3483173247921262    0.26437886844708164    
  0.18357447747418637    0.13033013400969776    0.10567780877839592    0.10567918481035084    0.13032875795277135    
  0.10357795585578661    0.13478223999213446    0.19003266000532304    0.2643793753543708    0.3348962164478432    
  0.37571583164175676    0.3866420831296458    0.37572069866946683    0.3348832417964679    0.264379783880465    
  0.19003292770082084    0.13478263965230955    0.10357716981961534    0.0937355111506133    0.10357795585578661    
  0.08782895279281369    0.10297490946035097    0.13478224667736333    0.18357635359480706    0.24229506728557215    
  0.2939904313011503    0.3227340659029791    0.3227202231871065    0.2939888563620188    0.2423015253415895    
  0.18357781305811    0.1347791981697541    0.10297657296471181    0.08782826779819768    0.08782895279281369    
  0.08268927460421943    0.08782892748787703    0.10357794835540382    0.13032874673665024    0.16624868244202154    
  0.204341875397171    0.23364650986850125    0.24463955546551122    0.23365180977688807    0.20434471498326282    
  0.16624079041806505    0.13032953660837943    0.10357871918298812    0.08782860986624223    0.08268927460421943    
  0.0958899900233791    0.10261272445399179    0.12323478669824152    0.1583842495619952    0.20550105271835956    
  0.254207432329313    0.28974110577006146    0.3024330092223905    0.2897697100347499    0.25421234748483323    
  0.20547629471995923    0.15838674542647926    0.12324073256635308    0.10261211368654459    0.0958899900233791    
  0.10261212429684914    0.10261126203342778    0.11012713308151827    0.12515171856352872    0.1470302691689206    
  0.1727442442052286    0.1961107647907248    0.21011898950012345    0.2101230620239477    0.19608977677534406    
  0.1727434442056346    0.14705043804120677    0.12514775920673468    0.11012057833452815    0.10261212429684914    
  0.1232407018912095    0.12272568880456002    0.12323413947738147    0.12514279521809768    0.12906457369723276    
  0.1348618902297416    0.14147974446443576    0.14702911102139787    0.14923159620859072    0.14702452378232184    
  0.14149611269910983    0.1348607125533509    0.12904682502081527    0.12514774586847321    0.1232407018912095    
  0.15838676861905363    0.1653825163782716    0.16538885385449115    0.1583956984450967    0.14702896299196505    
  0.1348636068343207    0.124702903636921    0.11796907059405579    0.11479080999688591    0.11479629594906855    
  0.11797026091854076    0.12469135223651145    0.1348607393246637    0.1470504470848175    0.15838676861905363    
  0.2054763350468274    0.2303378575685804    0.23956286157764323    0.23032817841596537    0.20550028597011952    
  0.17274333346824805    0.14147941252396082    0.1179749049864002    0.10399588609811523    0.09939949339286414    
  0.10399271452312964    0.11797025143727506    0.14149614333268365    0.1727434536240446    0.2054763350468274    
  0.2542123858818661    0.30398031005879667    0.33064954040399164    0.3306480048848367    0.3039498692737808    
  0.2542123914868709    0.19611241503441806    0.1470210503184975    0.11479141141621714    0.0994000765089181    
  0.09939949493425124    0.1147962838628663    0.14702451425906984    0.19608976156589691    0.2542123858818661    
  0.28976976212470973    0.35898982555556064    0.39115853923670324    0.3967417496881722    0.3912089456583405    
  0.35899043730749997    0.28974302396722584    0.21012439156719356    0.149237328681987    0.1147914137260356    
  0.1039958638319092    0.11479080533901004    0.14923160192759877    0.21012310132095052    0.28976976212470973    
  0.3024329797043409    0.3820850612017357    0.3946694887130655    0.3667358014830624    0.36670869858522587    
  0.3946574677034749    0.3821366947406792    0.30241885666192664    0.21012435584581846    0.14702105580256183    
  0.11797488844078487    0.11796902677885333    0.14702908383475227    0.21011892211240943    0.3024329797043409    
  0.2897411642816027    0.3821254234400545    0.38437451172051024    0.30565326390623493    0.26279710252609634    
  0.30565476048771345    0.38435622446300916    0.3821367689589659    0.2897429408690059    0.1961124676394048    
  0.14147940539346895    0.12470287055598449    0.14147973045144163    0.19611075960490532    0.2897411642816027    
  0.25420742652703154    0.35900266659931596    0.39466620883089526    0.3056378680596531    0.21357439861365587    
  0.21359411503046302    0.30565472586708603    0.394657419685116    0.3589903774228265    0.2542124026257563    
  0.17274334798657426    0.13486357034324198    0.1348618626530129    0.1727442338786563    0.25420742652703154    
  0.20550108555953125    0.3039526104760843    0.39118905046650015    0.36669050846698603    0.26284352468438443    
  0.21357439748342277    0.2627971288340797    0.36670873612496846    0.391208959450777    0.30394984595525176    
  0.20550029619889312    0.14702895080218767    0.12906460907112058    0.14703026765872093    0.20550108555953125    
  0.15838429823163996    0.2303377162596386    0.3306505896162398    0.3967597873704013    0.3666904782347726    
  0.30563794836239594    0.3056533084246157    0.3667358627012831    0.39674174689654856    0.3306480094696615    
  0.23032824550157524    0.1583957053966101    0.12514279693947017    0.12515173183532322    0.15838429823163996    
  0.12323481479332966    0.16539128009796547    0.23955445767819372    0.33065061045924893    0.3911890408214441    
  0.39466617635076806    0.3843744783936683    0.39466958057781026    0.39115858314199997    0.33064957732242356    
  0.2395628648689315    0.16538882340038086    0.12323411693989848    0.11012712421918239    0.12323481479332966    
  0.10261276516279166    0.12272274152868973    0.16539127936466552    0.23033770213706262    0.3039525595923363    
  0.35900268949448866    0.38212540513181453    0.38208511734223083    0.35898985910470826    0.3039803180060234    
  0.2303378387395837    0.16538249587584683    0.12272568590014804    0.10261128132409125    0.10261276516279166    
  0.0958899900233791    0.10261272445399179    0.12323478669824152    0.1583842495619952    0.20550105271835956    
  0.254207432329313    0.28974110577006146    0.3024330092223905    0.2897697100347499    0.25421234748483323    
  0.20547629471995923    0.15838674542647926    0.12324073256635308    0.10261211368654459    0.0958899900233791    
  0.10453995299088557    0.11224894584292877    0.1360140237477961    0.1767690740670739    0.23109345765093173    
  0.2854965126567347    0.3226976329553552    0.33515960956614743    0.3227393121382315    0.2855057477740277    
  0.2310645914058201    0.17676758602595227    0.13602694731774176    0.11224771723259663    0.10453995299088557    
  0.11224772938887237    0.11224519296301519    0.1208369783116779    0.1379549614362698    0.16295176926371308    
  0.19232639535233523    0.21869775319504547    0.23420358207330508    0.23420784514292237    0.21866870354635307    
  0.19232536939126724    0.16297446396159407    0.13795382436969506    0.12082197189066554    0.11224772938887237    
  0.13602691948064183    0.13550384219071573    0.1360126510714781    0.1379476149221337    0.14195927714571588    
  0.14806408046604294    0.15516820784261817    0.16111779776973434    0.1634540678562919    0.1611112517537078    
  0.1551909597076709    0.14806289679110995    0.14193694495737413    0.13795382108479426    0.13602691948064183    
  0.1767676009542427    0.185245954012061    0.1852612182720985    0.17678107468716395    0.16294933112307436    
  0.14806314618425936    0.13564886260515696    0.12734154844295834    0.1232927955035241    0.12330112423490658    
  0.12734466226776703    0.13562973998232347    0.1480629342495052    0.16297445208785938    0.1767676009542427    
  0.23106464978327718    0.2601352870234392    0.2708319426655267    0.26011838050059016    0.2310905150251419    
  0.19232988925981348    0.15516627273312014    0.12734985627661916    0.11076857060113597    0.10527242385576811    
  0.11076172797231172    0.12734464267436438    0.1551909648118469    0.1923253886563525    0.23106464978327718    
  0.28550578607765104    0.3392044699874731    0.36520733598532723    0.3652036088055706    0.33917309165777176    
  0.28550010450446534    0.21870260613379286    0.16110692254913053    0.12329392490440622    0.10527113785430338    
  0.10527239693312704    0.12330111252873029    0.16111125230511922    0.2186686651625461    0.28550578607765104    
  0.32273941646831816    0.38671616364378986    0.39897734565845144    0.393251978899055    0.3990285405277736    
  0.3867264502317194    0.32269679566225296    0.23420847716475598    0.16346345610962762    0.1232939428459803    
  0.11076855056343675    0.12329277327490222    0.163454070677328    0.23420788611884322    0.32273941646831816    
  0.33515949429959563    0.3974688078598127    0.3592951717710449    0.2930400438198776    0.2930229080261306    
  0.3592779215541015    0.3975382968554139    0.33514427871928326    0.23420849872366842    0.16110688510750892    
  0.12734985679409438    0.1273415026086953    0.16111780003034212    0.23420355062689277    0.33515949429959563    
  0.3226977064554689    0.397520227493919    0.33004675471580946    0.1970688995877799    0.14458242385607162    
  0.19707494033005954    0.3300209142520744    0.3975383225846825    0.3226967944162324    0.21870258852677638    