#     DFTpy    
  CRYSTAL 
    
  PRIMVEC    
  1.3144054615128262    -2.276617041086234    0.0    
  1.3144054615128262    2.276617041086234    0.0    
  0.0    0.0    4.4441138317931035    
  PRIMCOORD    
  2    1    
  Si    1.3144054615128262    0.7588723470287445    1.1110284579482759    
  Si    1.3144054615128264    -0.7588723470287445    3.333085373844827    
  BEGIN_BLOCK_DATAGRID_3D    
  3d_datagrid_density    
  BEGIN_DATAGRID_3D#0    
  13    13    19    
  0.0    0.0    0.0    
  1.3144054615128262    -2.276617041086234    0.0    
  1.3144054615128262    2.276617041086234    0.0    
  0.0    0.0    4.4441138317931035    
  0.14608896026131216    0.15416973654517677    0.1776043861537701    0.21320469934267616    0.25344270321354434    
  0.2860744853859295    0.29870259762597406    0.2860745013585813    0.253442719951811    0.2132046789248026    
  0.1776043775045246    0.15416974413677345    0.14608896026131216    0.15416971880398167    0.15416604313503626    
  0.1699351326033116    0.19955361775268762    0.23789069086509684    0.27509427289559574    0.29835731078511696    
  0.29835607051172364    0.2750939167842345    0.2378901165205903    0.19955826828314538    0.1699299906279231    
  0.15416971880398167    0.1776043644599831    0.16993512879248146    0.17760426340495478    0.19955518939111994    
  0.23219959995716585    0.2683327109705297    0.2971453896679372    0.3081962160244103    0.29714503378952956    
  0.2683368569843519    0.23219229621921902    0.19955826798127171    0.1776043644599831    0.2132046909486949    
  0.19955361655836096    0.1995551747979915    0.21320451724456418    0.23789023183219446    0.2683313978914272    
  0.2962887211576542    0.3128883553068748    0.3128960118866883    0.29628088736832275    0.26833685528142065    
  0.2378901272380203    0.2132046909486949    0.2534426990291567    0.2378906618864868    0.23219961242059334    
  0.23789023456914773    0.2534439295813636    0.27509458345904686    0.29714403161133346    0.3128972061733516    
  0.31836295493312045    0.3128959948954516    0.29714503268135944    0.2750939146086318    0.2534426990291567    
  0.28607447676024245    0.27509427196307357    0.2683327316507421    0.26833140316351545    0.27509459410329123    
  0.28607062470979167    0.2983642779068465    0.30818559211790647    0.3128971898877468    0.31288836776438234    
  0.30819620942800047    0.29835604888764466    0.28607447676024245    0.2987026180465746    0.2983573079295082    
  0.29714538372535526    0.2962887298346926    0.2971440280717817    0.29836427634582385    0.2986928503146629    
  0.2983642755898002    0.2971440306596037    0.296288705321701    0.29714540184914046    0.2983573071554614    
  0.2987026180465746    0.28607449885671876    0.2983560413950641    0.308196219035406    0.312888364392449    
  0.31289720532949855    0.30818557892233783    0.2983642706198332    0.286070609579817    0.27509459553217736    
  0.26833139621955493    0.2683327252104956    0.2750942956934815    0.28607449885671876    0.2534426950733373    
  0.2750939078367945    0.2971450384186366    0.31289599964616516    0.31836295096615114    0.31289719537860966    
  0.29714401889315406    0.2750945919776574    0.2534439197779198    0.23789021766515447    0.2321996078170925    
  0.23789068121952123    0.2534426950733373    0.2132046907622379    0.23789012939882676    0.2683368585132295    
  0.29628086268413617    0.3128960023081721    0.3128883692946427    0.29628872567545134    0.26833138490316755    
  0.2378902439922295    0.21320452658815475    0.19955517701090655    0.19955362331614965    0.2132046907622379    
  0.17760436061643942    0.19955827601177192    0.2321923034895762    0.268336852756037    0.29714504709694506    
  0.3081962006473337    0.29714539384382727    0.26833273947421965    0.23219960808270837    0.19955518939395017    
  0.177604260682327    0.16993512491035784    0.17760436061643942    0.15416972995515477    0.16992996815365347    
  0.1995582751467293    0.23789013082154942    0.2750939162506322    0.2983560540875303    0.2983573109618973    
  0.2750943053406883    0.23789067846256273    0.19955360921718085    0.1699351247889175    0.15416604196742634    
  0.15416972995515477    0.14608896026131216    0.15416973654517677    0.1776043861537701    0.21320469934267616    
  0.25344270321354434    0.2860744853859295    0.29870259762597406    0.2860745013585813    0.253442719951811    
  0.2132046789248026    0.1776043775045246    0.15416974413677345    0.14608896026131216    0.1586803106713735    
  0.16715446658999703    0.1918721332833461    0.22946071676957308    0.2715127682049931    0.3050246645467183    
  0.31783213664365395    0.30502613696697534    0.2715142940200329    0.22946028043077804    0.19187582581624663    
  0.16715396498113197    0.1586803106713735    0.16715395307235145    0.1671582586743576    0.18083049384453975    
  0.20595890866499741    0.23790200043230494    0.26839641319982926    0.28702685758714347    0.2870282832230448    
  0.2683933996979468    0.23790387800793675    0.20595287296780032    0.18083340368831163    0.16715395307235145    
  0.19187581769165507    0.1867427507881081    0.1918727465599148    0.20595517966280733    0.22609228044633986    
  0.24792436526574213    0.2648319696467384    0.27107348966860456    0.26483377953745524    0.2479216090468384    
  0.22609884557077856    0.2059528745729665    0.19187581769165507    0.22946026753491858    0.22445469071754143    
  0.22445563775937094    0.22946262043364798    0.23790254231878957    0.24792804020869405    0.25686410280206967    
  0.26184421861845353    0.2618373911798803    0.2568703883993367    0.2479216193429191    0.2379038731156349    
  0.22946026753491858    0.27151428333538746    0.27322896393621854    0.27365790485745634    0.273228213314639    
  0.2715123317610401    0.2683933168024755    0.26483263538994334    0.2618375164155927    0.26057669240823733    
  0.26183738023829706    0.26483377824371696    0.26839340716017274    0.27151428333538746    0.30502610358409804    
  0.31901346430600436    0.32577854352770214    0.32577643954464086    0.3190149111524662    0.30502894368980854    
  0.28702317832536983    0.2710807583044566    0.26183750372974535    0.261844227860447    0.27107349467313663    
  0.2870282664539314    0.30502610358409804    0.3178321550676641    0.3466909668464308    0.36390788423387516    
  0.36886225884124674    0.3639113309938687    0.3466854231229597    0.3178377240282527    0.28702322269885644    
  0.26483263545839675    0.25686408928115523    0.26483197896866245    0.2870268451248184    0.3178321550676641    
  0.3050246667454083    0.3466920940076619    0.3775902470105787    0.3907936407732086    0.39078576033729395    
  0.37759623763267314    0.3466854109398055    0.3050289650659192    0.2683933405010552    0.2479280527552615    
  0.24792436697407524    0.26839641975171274    0.3050246667454083    0.2715127462007964    0.31901564535266314    
  0.36390723871702907    0.39078635837496356    0.3985303731819135    0.39078573528089333    0.36391131549499217    
  0.3190149077910348    0.27151232838613953    0.2379025349636082    0.22609228031094442    0.23790199166318274    
  0.2715127462007964    0.2294607255569204    0.2732300451303113    0.32577424706801805    0.36887066840895577    
  0.39078635167338704    0.39079363189673477    0.3688622853292631    0.325776453572105    0.2732282240021212    
  0.2294626206288541    0.20595518674406807    0.20595890520095508    0.2294607255569204    0.19187210708944255    
  0.22445357185551673    0.27366006616338745    0.3257742462049772    0.36390723526483876    0.3775902198103729    
  0.3639078828160225    0.3257785375519621    0.2736579071995979    0.2244556459234006    0.1918727355882995    
  0.1808305085735644    0.19187210708944255    0.167154457941677    0.1867477084784789    0.22445357156352058    
  0.2732300327365972    0.3190156486470209    0.3466921095310146    0.3466909565371696    0.31901347549663955    
  0.2732289716357133    0.2244546637893112    0.18674272450367174    0.16715827598614535    0.167154457941677    
  0.1586803106713735    0.16715446658999703    0.1918721332833461    0.22946071676957308    0.2715127682049931    
  0.3050246645467183    0.31783213664365395    0.30502613696697534    0.2715142940200329    0.22946028043077804    
  0.19187582581624663    0.16715396498113197    0.1586803106713735    0.19353335110149675    0.2033143958262794    
  0.23171282683256864    0.2737954786612628    0.31809373483627956    0.3506230750357132    0.36231899001010454    
  0.3506232256666291    0.3181089990771177    0.2737978442532147    0.23170586206697158    0.20331420224742147    
  0.19353335110149675    0.20331418311529525    0.20331574378356734    0.21612379290005873    0.23927028434218434    
  0.26773056294435393    0.29362079499719174    0.30874487566843395    0.3087493700673325    0.2936204092282469    
  0.26771661708643724    0.23926866330776334    0.21613105801454086    0.20331418311529525    0.23170586145834443    
  0.22884226857492307    0.2317109305804856    0.2392695374203425    0.24953940034009015    0.2601808664527834    
  0.2679065295633111    0.270568852338063    0.26790258863418653    0.260179973603833    0.249554256400746    
  0.23926867083058526    0.23170586145834443    0.27379785034266974    0.27691804617918564    0.2769127238839272    
  0.27379753896859566    0.26773053231740745    0.2601816839233704    0.2535005637887681    0.24953369272394357    
  0.24953156826710912    0.2535075040724907    0.2601799748909933    0.2677166253773136    0.27379785034266974    
  0.31810897972790136    0.33403483652501254    0.3393169657443226    0.3340348260650773    0.31809438880895746    
  0.2936179704411048    0.2679090692316497    0.2495317987046617    0.24304840333860786    0.24953155958139328    
  0.2679025838110347    0.29362043571272706    0.31810897972790136    0.35062322520365957    0.37845357720765593    
  0.3884758860546046    0.3884818336017943    0.3784700242124925    0.35062562255669677    0.3087432837833102    
  0.27056882325553433    0.24953177897876616    0.24953370548623022    0.2705688384739577    0.3087493684201024    
  0.35062322520365957    0.36231902919032916    0.3992239787743126    0.40468757147504    0.4005875601543324    
  0.4046659598227625    0.3992201814849917    0.36232645484468984    0.3087433165160564    0.2679090663846295    
  0.2535005506442988    0.2679065280212579    0.3087448680997714    0.36231902919032916    0.35062307834236894    
  0.3992287007867718    0.40472886256375196    0.38514188517690273    0.3851528283098866    0.4047397865704213    
  0.3992201672780219    0.35062563256041573    0.29361799600103106    0.26018169252337475    0.26018087346363744    
  0.29362080595524825    0.35062307834236894    0.31809374413510466    0.3784700262613947    0.40466744803177834    
  0.3851528875205802    0.36818759664451856    0.3851528043248106    0.4046659764160383    0.378470013230999    
  0.31809438855718575    0.26773052064121594    0.24953940499098642    0.2677305403931664    0.31809374413510466    
  0.2737954829226633    0.33403781244648856    0.38847214504134503    0.40059685177580867    0.38515288441138934    
  0.3851418965966588    0.4005875744965941    0.3884818410478366    0.33403481483126396    0.2737975553230293    
  0.2392695359805832    0.2392702954494351    0.2737954829226633    0.2317127958288503    0.27691126921692566    
  0.3393248649463541    0.38847215518150513    0.4046674522531113    0.40472882986759084    0.4046875687360358    
  0.3884758820250656    0.33931696489134217    0.27691274197374754    0.2317109287169481    0.2161238051451383    
  0.2317127958288503    0.20331440622062655    0.2288421848657727    0.276911285935197    0.3340378134800237    
  0.3784700571170683    0.399228688271264    0.39922396071474775    0.3784535946238795    0.33403486539208355    
  0.2769180396231993    0.22884226224421003    0.20331575770649035    0.20331440622062655    0.19353335110149675    
  0.2033143958262794    0.23171282683256864    0.2737954786612628    0.31809373483627956    0.3506230750357132    
  0.36231899001010454    0.3506232256666291    0.3181089990771177    0.2737978442532147    0.23170586206697158    
  0.20331420224742147    0.19353335110149675    0.2389311109502295    0.25058795048117044    0.2836537159788265    
  0.32933987351697686    0.3701778164279283    0.39237979051703215    0.3980476803740902    0.39236906087176315    
  0.370202510556135    0.3293393778750148    0.28363315327886945    0.2505928601958651    0.2389311109502295    
  0.2505928427294851    0.250593984905303    0.26361047093866335    0.2862698304307242    0.31219409268615117    
  0.3330962863683315    0.34379636205781444    0.3438071344869901    0.33311050221790867    0.31216236283165216    
  0.28628052502068874    0.2636226106760063    0.2505928427294851    0.28363312911507516    0.2823413016353681    
  0.2836481931715396    0.28628745115743326    0.28857171167040313    0.29008159729713856    0.2904222601394043    
  0.2902512039772882    0.29040917794350934    0.2900745598077396    0.28859615469955996    0.2862805309697632    
  0.28363312911507516    0.32933939523127326    0.3376282835348838    0.337615458864584    0.32932483867507306    
  0.31219438167728203    0.29006333632404024    0.27061780677627795    0.25958823664687397    0.25958713059427324    
  0.27062812449043583    0.290074561651446    0.31216236691965016    0.32933939523127326    0.3702024851070808    
  0.38886683684623996    0.39313753189067285    0.3888779634134159    0.37017785295375877    0.33311119235384373    
  0.29042826730620386    0.25958210366934187    0.24881608458607332    0.25958710999341894    0.2904091710836955    
  0.33311048885224487    0.3702024851070808    0.39236901623884013    0.4043989792868519    0.3922748780210627    
  0.3922890948481178    0.4044177257378388    0.39237199368312653    0.34378487820660625    0.2902591483115763    
  0.25958208251839276    0.25958823078011833    0.2902511991069651    0.34380712552782094    0.39236901623884013    
  0.39804770775984033    0.39464885120446097    0.33820072790718625    0.3065509258541426    0.33816557685442744    
  0.3946467142158137    0.39807465328118635    0.34378487859579854    0.29042825557189367    0.2706178129217283    
  0.2904222685316262    0.34379635856510066    0.39804770775984033    0.39237979941267215    0.3946612372319549    
  0.3073451287304827    0.22613296748940215    0.2261532916629048    0.307356142352174    0.39464672994936556    
  0.3923719826811705    0.33311122654749964    0.2900633394154853    0.29008160745465433    0.33309630919341204    
  0.39237979941267215    0.37017781700689917    0.4044174794847958    0.3381675425479303    0.2261532600979315    
  0.1795608214635031    0.22615327800318688    0.3381655618338765    0.404417704530318    0.37017782548174055    
  0.3121943542656541    0.2885717149251438    0.3121940581306993    0.37017781700689917    0.3293398558297027    
  0.38887034440831025    0.3922728079301723    0.3065600129904753    0.22615326435607533    0.22613297941842947    
  0.30655092731747596    0.39228906878013126    0.38887797613503694    0.32932482406865415    0.2862874518572198    
  0.2862698279356153    0.3293398558297027    0.2836536771972755    0.33760424580472176    0.39316588904707594    
  0.3922728193972517    0.3381675390176011    0.3073451201554329    0.3382007210876754    0.3922748938742167    
  0.3931375216820615    0.3376154648774633    0.2836481747258023    0.263610466152047    0.2836536771972755    
  0.25058794397842704    0.282349338861386    0.33760424561655106    0.38887035397397257    0.404417484894549    
  0.3946612576075932    0.39464884683548884    0.4043990004288018    0.3888668571032431    0.337628280055779    
  0.28234130291499704    0.25059398704942115    0.25058794397842704    0.2389311109502295    0.25058795048117044    
  0.2836537159788265    0.32933987351697686    0.3701778164279283    0.39237979051703215    0.3980476803740902    
  0.39236906087176315    0.370202510556135    0.3293393778750148    0.28363315327886945    0.2505928601958651    
  0.2389311109502295    0.2726103163571625    0.2854500544776801    0.3212327842326613    0.3676676736449615    
  0.40112364799960276    0.4087346390054044    0.4065890657445579    0.4087168144923104    0.40112087904546617    
  0.367674947339202    0.32120273233483887    0.285463043834023    0.2726103163571625    0.2854630132078618    
  0.2854581769264971    0.29847797054120867    0.3207982251848361    0.34498246212124584    0.36167490945508696    
  0.36798113677713795    0.3680099090916211    0.3616900933125252    0.3449691009464241    0.3208103993470009    
  0.29848803720909095    0.2854630132078618    0.3212027017661106    0.3208380928582124    0.32123216316471453    
  0.3208042542887163    0.3183935303366391    0.3146671707750314    0.31052822764385296    0.3084719529355538    
  0.3104978196748277    0.3146733755892407    0.31838634576676766    0.3208104116377623    0.3212027017661106    
  0.36767494338749684    0.37758897867481583    0.377560937659636    0.36766048664112916    0.3449821311627109    
  0.3146614839342363    0.2876165836373129    0.2720536661074028    0.27205892882770516    0.2876272468623117    
  0.31467338435315634    0.3449691045995639    0.36767494338749684    0.40112085506752343    0.413541901228663    
  0.4131337765168029    0.4135594470610694    0.40112332657264455    0.36168288565030615    0.31052811115531015    
  0.27204635340876926    0.258356320477637    0.2720589137754185    0.31049782148532434    0.361690087818467    
  0.40112085506752343    0.40871678573941067    0.39219520439724204    0.3539372579101653    0.3539610638039152    
  0.3921681908088694    0.40874040859716104    0.3679641877109338    0.30849437061609974    0.2720463431190418    
  0.272053671414937    0.30847196589489734    0.36800990455755667    0.40871678573941067    0.4065890726506112    
  0.35142492859079616    0.246958970292772    0.20154750827881007    0.24696096005458826    0.3514094652462583    
  0.40663450897621106    0.3679642395559622    0.3105281138711475    0.2876165827455837    0.3105282335625486    
  0.367981121440209    0.4065890726506112    0.4087346438202023    0.3514493232172188    0.2009305790090834    
  0.10747079828536088    0.10744960206616642    0.20096110777623935    0.3514094475044482    0.4087404416305969    
  0.36168290031912026    0.31466148892708423    0.3146671835014673    0.3616749301343557    0.4087346438202023    
  0.401123633610983    0.39216824336085565    0.24696033958070712    0.10744957359457857    0.06645072497197711    
  0.10744959638445188    0.24696095278410804    0.3921682018986142    0.40112331569894294    0.3449821263305011    
  0.3183935262717722    0.34498246915602215    0.401123633610983    0.36766770537434773    0.4135653838687167    
  0.35392145788714624    0.2015788557319001    0.10744957712529969    0.10747079278136686    0.201547525129118    
  0.3539610730414338    0.41355945930030485    0.3676604995947875    0.3208042565653114    0.32079823558000026    
  0.36766770537434773    0.32123274613933595    0.37754343069527085    0.4131793097480071    0.353921477697042    
  0.24696033596277192    0.20093056960948757    0.2469589654336265    0.35393725969058376    0.41313376943256336    
  0.37756093862958234    0.32123214892565966    0.29847798202208087    0.32123274613933595    0.28545004058861284    
  0.32086118057200663    0.377543435074613    0.41356534897417807    0.3921682414720939    0.3514493194062654    
  0.3514249179622417    0.39219521599637885    0.413541907093117    0.3775889543402891    0.32083807413583215    
  0.2854582166489028    0.28545004058861284    0.2726103163571625    0.2854500544776801    0.3212327842326613    
  0.3676676736449615    0.40112364799960276    0.4087346390054044    0.4065890657445579    0.4087168144923104    
  0.40112087904546617    0.367674947339202    0.32120273233483887    0.285463043834023    0.2726103163571625    
  0.27261044500779347    0.2854499370553796    0.32123291442378915    0.36766755718563304    0.40112377250726167    
  0.40873450339749284    0.4065891898662133    0.4087166589888195    0.4011210245075717    0.3676748207705891    
  0.3212028496932088    0.2854629217888209    0.27261044500779347    0.28546289190588053    0.28545830872369493    
  0.2984778377880336    0.320798368907347    0.3449823594601614    0.36167504314720084    0.3679809990851555    
  0.36801005498915457    0.3616899411988663    0.3449692367799694    0.3208102711962593    0.2984881628613001    
  0.28546289190588053    0.3212028255983024    0.3208379677900316    0.3212322938563683    0.32080412893211013    
  0.31839365191806945    0.31466706478273676    0.31052834440806726    0.3084718429267382    0.31049793503542683    
  0.31467324738016306    0.3183864867450903    0.32081029197398986    0.3212028255983024    0.3676748184419408    
  0.37758911993607486    0.3775607959873974    0.36766062560942975    0.3449819954330454    0.3146616264385437    
  0.2876164518934915    0.2720537816238129    0.27205881591842845    0.2876273528599793    0.3146732692749532    
  0.34496926645999937    0.3676748184419408    0.40112099958059233    0.41354174099822477    0.41313393680909183    
  0.41355930059261237    0.4011234669344745    0.3616827440143245    0.3105282165983203    0.27204624970978125    
  0.2583564283007326    0.27205879668087485    0.310497940514179    0.36168995858378167    0.40112099958059233    
  0.40871663792032736    0.39219534146545343    0.35393712250798115    0.35396120214305243    0.39216808478675236    
  0.408740570946282    0.36796407776071566    0.3084945005136438    0.27204621799552997    0.27205378369543637    
  0.3084718377955461    0.3680100618595722    0.40871663792032736    0.40658924458075374    0.3514247846734238    
  0.24695908061693633    0.20154739710191624    0.246961065396769    0.35140933335004176    0.4066346577256883    
  0.367964101072995    0.31052823240343125    0.28761644529903896    0.31052834711487115    0.3679809855093021    
  0.40658924458075374    0.40873450367190634    0.3514494555660431    0.20093049237207875    0.10747087407004491    
  0.10744953542653456    0.20096120364732314    0.3514093205179241    0.40874058391461543    0.3616827623760314    
  0.31466161488264616    0.31466705124945    0.36167505835033087    0.40873450367190634    0.40112379232998996    
  0.39216810326322343    0.24696043965937475    0.107449505654133    0.06645078139620043    0.10744952457619217    
  0.24696107209827883    0.3921680675544616    0.4011234641849749    0.3449819942685993    0.31839365123980445    
  0.3449823195261842    0.40112379232998996    0.36766754079019315    0.41356550805658826    0.3539213506175105    
  0.20157893711619823    0.10744950301519575    0.1074708661058895    0.20154740981378344    0.3539612039849978    
  0.41355929294378346    0.36766063289341216    0.32080411853898505    0.3207983739991074    0.36766754079019315    
  0.3212328755309079    0.37754327660992837    0.4131794484663865    0.35392133583451846    0.24696044653329882    
  0.20093045804175638    0.2469590818341239    0.35393712682646117    0.41313390585505805    0.37756080034312745    
  0.3212322801463194    0.29847785506414953    0.3212328755309079    0.2854499347401055    0.32086130631176896    
  0.3775433152652228    0.4135655111124418    0.3921681122123531    0.35144946629298196    0.3514247739669236    
  0.3921953548668932    0.4135417667778214    0.3775891069976232    0.32083796480462295    0.2854583240649791    
  0.2854499347401055    0.27261044500779347    0.2854499370553796    0.32123291442378915    0.36766755718563304    
  0.40112377250726167    0.40873450339749284    0.4065891898662133    0.4087166589888195    0.4011210245075717    
  0.3676748207705891    0.3212028496932088    0.2854629217888209    0.27261044500779347    0.23893099123269265    
  0.2505880581498769    0.2836535956495126    0.32933998557708893    0.37017768294934317    0.39237992998630844    
  0.3980475560024648    0.3923691842859391    0.37020238265729893    0.3293395058488819    0.28363303891463304    
  0.2505929693617211    0.23893099123269265    0.25059294854020325    0.2505938762733461    0.2636105938084412    
  0.286269700273159    0.3121942104255689    0.3330961641841969    0.3437964795930752    0.34380700671397735    
  0.33311062527337165    0.31216222625186807    0.28628064519939944    0.26362250796946596    0.25059294854020325    
  0.28363300715314305    0.28234141646531513    0.28364807223026334    0.2862875730217116    0.28857159399198407    
  0.2900817080980674    0.2904221384855986    0.290251316435956    0.29040905960315566    0.29007466602070414    
  0.2885960251601657    0.2862806600114988    0.28363300715314305    0.3293395152327396    0.33762814672080416    
  0.33761559191121426    0.32932470838701366    0.3121944886336448    0.29006322107507293    0.27061791811618086    
  0.2595881301877718    0.2595872517615224    0.2706280007220915    0.2900746724623489    0.3121622478801614    
  0.3293395152327396    0.370202348860499    0.3888669760495675    0.39313739137975345    0.3888780990663407    
  0.37017771600199306    0.33311132967462914    0.2904281448626587    0.25958222370068984    0.24881598321645987    
  0.2595872142044009    0.2904090474789999    0.3331106195368958    0.370202348860499    0.3923691483538738    
  0.404398861617341    0.3922750133286373    0.3922889665817715    0.4044178700319204    0.39237185354662285    
  0.3437850090176613    0.29025903715781154    0.259582198346834    0.25958811865048476    0.2902513230064372    
  0.3438069975346922    0.3923691483538738    0.39804757733605567    0.39464898743652427    0.338200597917348    
  0.30655105251794107    0.33816544021698774    0.39464685303516095    0.39807452676620375    0.34378499897277676    
  0.29042813808509216    0.2706179302260941    0.2904221525581201    0.3437964846678677    0.39804757733605567    
  0.39237993551655787    0.3946611048539393    0.30734524854117207    0.22613286884936365    0.22615339881540303    
  0.3073560263605682    0.39464687337616383    0.3923718370778412    0.3331113544812025    0.2900632308866121    
  0.2900817213401244    0.33309618819484055    0.39237993551655787    0.3701776855716106    0.4044176181431227    
  0.3381674109458814    0.2261533671757512    0.17956072165003717    0.2261533865972086    0.338165431086092    
  0.40441785999502294    0.3701776968086374    0.3121944855009557    0.2885716033537295    0.3121941886417014    
  0.3701776855716106    0.3293399891537723    0.38887021150839884    0.39227294117279177    0.30655989584858245    
  0.226153375366817    0.22613286781780445    0.3065510544059072    0.39228893074698373    0.3888781147642884    
  0.3293246926633347    0.28628756240236564    0.28626970110164723    0.3293399891537723    0.2836535679979246    
  0.3376043782915962    0.3931657604052744    0.39227294449348005    0.3381674179617693    0.3073452386332555    
  0.3382005887683421    0.39227503552390164    0.39313737781047436    0.3376155989019283    0.2836480642046858    
  0.2636105814295566    0.2836535679979246    0.25058805363758246    0.28234921089593856    0.33760436598856824    
  0.3888702137377212    0.40441762242832563    0.39466110629655093    0.3946490016743836    0.4043988643730574    
  0.38886699346591397    0.3376281480442411    0.2823414159680285    0.2505938806209524    0.25058805363758246    
  0.23893099123269265    0.2505880581498769    0.2836535956495126    0.32933998557708893    0.37017768294934317    
  0.39237992998630844    0.3980475560024648    0.3923691842859391    0.37020238265729893    0.3293395058488819    
  0.28363303891463304    0.2505929693617211    0.23893099123269265    0.1935334468068021    0.20331429633465026    
  0.2317129345775301    0.27379536216831446    0.3180938725845227    0.35062294597480437    0.3623191314747308    
  0.35062311487852477    0.31810912543644    0.27379772054702334    0.23170597250906605    0.20331409615855478    
  0.1935334468068021    0.20331408085345265    0.20331583644791237    0.21612369001098442    0.23927039489383015    
  0.26773043844334143    0.29362091458844036    0.30874475370518917    0.30874948549318443    0.2936203126400821    
  0.26771673194047724    0.23926855141990586    0.2161311589079879    0.20331408085345265    0.23170596706478735    
  0.2288421667407826    0.23171104069711107    0.2392694245105569    0.24953952275106409    0.26018074151437587    
  0.26790663797471653    0.27056872784129476    0.2679027117968153    0.26017986426712764    0.2495543592172813    
  0.2392685610102167    0.23170596706478735    0.2737977208669093    0.27691817134644403    0.276912612534444    
  0.27379766393996574    0.26773041910384887    0.2601818045434339    0.2535004619171794    0.24953379584674157    
  0.24953146039082408    0.2535076327656876    0.26017986369659213    0.26771673346230784    0.2737977208669093    
  0.31810910192241226    0.334034721169859    0.3393170895194473    0.3340346912459772    0.3180945317764211    
  0.29361785784591005    0.267909172415847    0.24953168153906602    0.24304852517847608    0.24953144791333534    
  0.2679027019937039    0.2936203069042506    0.31810910192241226    0.35062309883395876    0.3784537012319941    
  0.3884757499812886    0.3884819749388347    0.37846987889351025    0.3506257357471736    0.3087431382081689    
  0.2705689545709398    0.24953166508872346    0.24953380904124203    0.27056873740457543    0.30874948594886964    
  0.35062309883395876    0.3623191636619028    0.39922383435895875    0.4046877076405682    0.40058744234521027    
  0.4046661171135273    0.39922004619050433    0.36232657724415535    0.308743186250673    0.26790918859465274    