#     DFTpy    
  CRYSTAL 
    
  PRIMVEC    
  5.579793103448276    0.0    0.0    
  0.0    5.579793103448276    0.0    
  0.0    0.0    5.579793103448276    
  PRIMCOORD    
  8    1    
  Si    0.0    0.0    0.0    
  Si    1.394948275862069    1.394948275862069    1.394948275862069    
  Si    0.0    2.789896551724138    2.789896551724138    
  Si    1.394948275862069    4.184844827586208    4.184844827586208    
  Si    2.789896551724138    0.0    2.789896551724138    
  Si    4.184844827586208    1.394948275862069    4.184844827586208    
  Si    2.789896551724138    2.789896551724138    0.0    
  Si    4.184844827586208    4.184844827586208    1.394948275862069    
  BEGIN_BLOCK_DATAGRID_3D    
  3d_datagrid_density    
  BEGIN_DATAGRID_3D#0    
  25    25    25    
  0.0    0.0    0.0    
  5.579793103448276    0.0    0.0    
  0.0    5.579793103448276    0.0    
  0.0    0.0    5.579793103448276    
  0.058950248679340025    0.10528372626288879    0.2643618703855167    0.39360005510683466    0.33720504645899346    
  0.22140584581316572    0.13822665539329335    0.0907528655576045    0.0652329841779748    0.05167561796700531    
  0.04456071659674015    0.0411099823723407    0.0400683101720373    0.04111000359122143    0.04456063346291953    
  0.051675743748860525    0.06523278989458627    0.09075312120261081    0.1382263234169183    0.2214062438158681    
  0.33720462748402413    0.39360037481432736    0.26436165774858783    0.10528381311261438    0.058950248679340025    
  0.10528375209217364    0.1592082442484919    0.31086436307607174    0.4019844869622048    0.33036849322301576    
  0.21794517835307148    0.13839024948760226    0.09224928428639372    0.06692505822865477    0.053200580645725484    
  0.04583387198782414    0.0422122619198213    0.04111000239124961    0.04221220787861518    0.045833968739836375    
  0.05320043603739418    0.06692524280195586    0.09224905076074218    0.1383906155164735    0.21794478149913826    
  0.3303688418744803    0.4019840970582353    0.31086459891564205    0.15920816180740574    0.10528375209217364    
  0.2643617326221878    0.3108643745225365    0.3964680407442053    0.397663570044502    0.3063294516760669    
  0.20775203428314992    0.13875075270576434    0.09661396029600647    0.0721118463823264    0.0580156519908123    
  0.0499670405690184    0.04583392158870106    0.0445606366249148    0.04583395444780556    0.04996694988475499    
  0.05801579126596203    0.07211165426874112    0.09661423666949817    0.13875043003965196    0.2077523693675941    
  0.3063290859463397    0.3976638870828168    0.39646777242988857    0.31086451227793566    0.2643617326221878    
  0.3936002196509214    0.40198432677963725    0.3976636374162365    0.34538251195616393    0.2649660804126951    
  0.19200048351071292    0.1389424870223272    0.10365266055107322    0.08116217699590518    0.06688869472927633    
  0.058015688302762276    0.05320053845737399    0.05167574089684543    0.05320045301825769    0.05801582338661361    
  0.06688851949792494    0.0811623772522935    0.103652416094441    0.13894279288653572    0.19200012250647105    
  0.26496647819056135    0.34538217942633137    0.39766393688915674    0.4019842535097815    0.3936002196509214    
  0.3372047580432966    0.33036863333127253    0.30632938205841825    0.2649661604146742    0.21691338270511826    
  0.1733609723299731    0.1387506931461517    0.11301137516062217    0.0944767311875227    0.08116219676639275    
  0.07211177088556187    0.06692516420252377    0.0652328100459642    0.06692519884586723    0.07211165109615274    
  0.08116238032958499    0.09447649757198391    0.11301165831083257    0.1387503934382606    0.17336131543104283    
  0.21691305441248776    0.264966431287849    0.3063291408982654    0.33036878485669297    0.3372047580432966    
  0.22140607638149748    0.21794498882581612    0.207752195374899    0.19200040564794016    0.1733610077523621    
  0.15488941170720696    0.13839034160063485    0.12447501320755518    0.11301143359606863    0.10365260490104462    
  0.09661410723620234    0.09224913212274594    0.09075308173138656    0.09224905595388223    0.09661425720315484    
  0.10365237467550396    0.11301167807589176    0.12447474250151383    0.138390637042894    0.15488906149076703    
  0.17336132509313873    0.19200017369533387    0.20775236263586136    0.2179448611797872    0.22140607638149748    
  0.13822642622497006    0.13839041104317673    0.1387506288325662    0.13894254635672806    0.13875066981685072    
  0.13839036062849017    0.13822654598449097    0.13839034290160088    0.1387506296473348    0.13894259319988597    
  0.13875055157757019    0.13839052160037044    0.1382263558360637    0.13839057905910415    0.13875040836048066    
  0.1389428243574088    0.1387503545309109    0.1383906768742995    0.13822622799622397    0.1383906349229899    
  0.13875040164696095    0.13894278852971953    0.13875045879707992    0.13839051319557233    0.13822642622497006    
  0.09075305314924262    0.09224915821257951    0.09661408547340593    0.10365259668501389    0.1130114170023796    
  0.12447502257495369    0.13839036286594414    0.15488931826268673    0.17336110712069663    0.1920002950651212    
  0.20775231550503404    0.21794482180113084    0.2214062563959858    0.217944711425854    0.20775250958538488    
  0.1920000501098996    0.17336139454325203    0.1548890270510192    0.13839069646124172    0.12447472949442785    
  0.11301167460330985    0.103652414322626    0.09661421962492639    0.09224911438395339    0.09075305314924262    
  0.06523281102833432    0.06692517418277552    0.07211176072590877    0.08116221193238339    0.09447668095020996    
  0.11301145172916978    0.13875061201799763    0.1733610806813776    0.21691325620910967    0.2649662810527038    
  0.306329174037128    0.3303688998952589    0.33720450060335855    0.33036894443019976    0.3063289683395852    
  0.2649665713625293    0.2169129478931589    0.17336143923549915    0.13875029531301045    0.11301167859336528    
  0.09447646022073009    0.08116237905665215    0.07211166064506308    0.06692521529634686    0.06523281102833432    
  0.05167573027742533    0.053200502502268085    0.0580157158637015    0.0668886511314817    0.0811622035566156    
  0.10365263265684493    0.13894258520313732    0.1920003677076118    0.2649662592847606    0.34538227576169594    
  0.3976639256386819    0.40198409434584453    0.39360055555177226    0.4019839030145679    0.39766420358508964    
  0.3453819624678244    0.26496662891851785    0.1920000166020226    0.13894287748299122    0.10365233347087811    
  0.0811624311964448    0.06688850799354734    0.05801581845980784    0.05320048126655333    0.05167573027742533    
  0.04456061820880696    0.04583393106628304    0.04996702477873528    0.05801569875253883    0.0721117727456092    
  0.09661406894106646    0.13875060963310815    0.20775220648984563    0.30632923096830594    0.39766382482066526    
  0.39646771800221364    0.3108647302249768    0.2643614353888567    0.31086479454595833    0.3964674451415062    
  0.39766419717133045    0.3063288814191556    0.2077525894225433    0.1387502865153197    0.09661432795692028    
  0.07211158268725466    0.05801585296006741    0.04996690727956645    0.04583399470847955    0.04456061820880696    
  0.04111003779346765    0.042212228281602    0.04583390758762443    0.053200541551806695    0.06692512367882614    
  0.09224920137096031    0.1383904264878825    0.2179449479889104    0.33036877025767214    0.4019841418689482    
  0.3108646937918716    0.15920800332041468    0.1052839758558882    0.1592078918712477    0.31086495110563245    
  0.40198376764342647    0.3303691613839376    0.21794460317453782    0.1383906978247986    0.09224893232677171    
  0.06692531164933749    0.05320039362090543    0.04583400193227967    0.04221217002734284    0.04111003779346765    
  0.04006827200568442    0.041110025981249174    0.04456067096151833    0.05167570143355692    0.0652328980859071    
  0.09075300656727153    0.13822650544287815    0.2214060839007389    0.3372047023900342    0.39360036408855803    
  0.2643615400542388    0.10528393777336781    0.05895008352449859    0.10528399891440195    0.26436138946947474    
  0.3936006809453495    0.3372043046858391    0.22140644632072037    0.13822619906168762    0.09075321178623814    
  0.06523270932561216    0.051675836242377926    0.04456057994979918    0.04111007024266585    0.04006827200568442    
  0.04111003811256897    0.04221222074924253    0.045833921775006774    0.053200507512149296    0.06692511875774582    
  0.09224917703875976    0.13839039778118783    0.2179449598401374    0.33036879557424736    0.4019841160615138    
  0.31086470189268844    0.15920802806495538    0.10528396809294031    0.15920789297443114    0.3108648937890826    
  0.4019838209875093    0.3303691656920974    0.2179446320805452    0.13839070126630162    0.09224892974523623    
  0.06692530121025266    0.053200388256705644    0.045834010679193606    0.042212187433090596    0.04111003811256897    
  0.04456060418971147    0.0458339271190111    0.049967008940291595    0.05801569422240283    0.07211177940667385    
  0.09661406570873234    0.13875061841166386    0.20775220124618157    0.3063292156417431    0.39766382974737485    
  0.39646768035693536    0.31086474172398687    0.2643614657347436    0.31086475929531293    0.39646749721762675    
  0.39766416340072513    0.30632887548448595    0.20775255722662256    0.13875029265235123    0.09661427227209209    
  0.07211158608116607    0.05801583873019935    0.049966927799714136    0.0458339758166531    0.04456060418971147    
  0.051675730633302386    0.05320051877951581    0.05801571924439743    0.06688865873406984    0.08116221904591323    
  0.10365262534621557    0.13894256824212864    0.19200034488872603    0.2649663046526912    0.34538228970505347    
  0.39766387811787834    0.4019840742992046    0.3936005610965091    0.4019839416202504    0.3976641589624354    
  0.34538199078651355    0.264966619915974    0.19200005069504902    0.13894286908683406    0.10365236293130428    
  0.08116240974471224    0.06688853864317261    0.05801581168376618    0.05320046800983411    0.051675730633302386    
  0.06523284814241855    0.06692514182814875    0.07211177947549448    0.08116220221992171    0.09447669391030356    
  0.11301144110220718    0.13875064140516688    0.17336106130159357    0.216913295528402    0.2649662616414176    
  0.30632918705861806    0.33036888043125984    0.3372045571506943    0.330368921302991    0.3063289875941477    
  0.264966523785673    0.21691295523382093    0.17336137365755777    0.138750323740085    0.1130116700576694    
  0.09447648005370254    0.08116235133249003    0.07211166081691521    0.06692517940974846    0.06523284814241855    
  0.09075302189904962    0.09224915490690472    0.09661405948685872    0.10365262629784927    0.11301140597609972    
  0.12447505082467135    0.13839035971626437    0.15488932959294013    0.1733610999224067    0.19200031561876343    
  0.20775228425548356    0.21794488999714992    0.22140620615226805    0.21794480879050152    0.20775243842128407    
  0.19200008445099082    0.17336136238229563    0.1548890633167268    0.13839064703395895    0.12447476948747176    
  0.11301165021112967    0.1036524504467636    0.0966141683306368    0.09224910925885939    0.09075302189904962    
  0.13822643891138933    0.13839039521255106    0.13875063917027772    0.138942520894296    0.13875068629123508    
  0.1383903149024849    0.13822656897298888    0.13839033498710124    0.1387506714054252    0.13894256273706146    
  0.138750586462255    0.13839048719493757    0.13822636566523913    0.13839052912372385    0.13875045865781455    
  0.13894275898265154    0.138750386329686    0.13839062506276587    0.13822625523857054    0.13839061095654168    
  0.1387504516261217    0.13894274247452051    0.13875050191228516    0.1383904740288532    0.13822643891138933    
  0.2214060700815607    0.21794497353574796    0.20775211261583248    0.1920004635125503    0.17336095631334017    
  0.15488943405525954    0.13839031468584767    0.12447504860718114    0.11301142821785402    0.1036526043240549    
  0.09661407035408708    0.0922491565192045    0.09075306067712288    0.09224904741627477    0.09661420623254036    
  0.1036524262013824    0.11301164806376357    0.12447480379188017    0.13839059350106808    0.1548891168007076    
  0.17336126303751853    0.19200022472452163    0.20775230370791098    0.21794495838920325    0.2214060700815607    
  0.33720482296753107    0.3303686367211253    0.3063293995620026    0.2649660983325292    0.2169134237589019    
  0.17336096169044843    0.13875073009340852    0.11301134851416154    0.09447674801677085    0.08116216989110646    
  0.07211178602955716    0.06692513571605681    0.06523283621171312    0.06692519040858629    0.07211169137885647    
  0.08116232701946025    0.09447651816052693    0.11301163249735487    0.13875041950686479    0.17336125549454243    
  0.21691310989137372    0.26496635169982274    0.3063292006410813    0.33036872044173105    0.33720482296753107    
  0.3936002169755558    0.40198438251119695    0.3976636282529337    0.3453825621860796    0.2649660828092422    
  0.1920005266966247    0.1389424510890454    0.10365270527770676    0.08116214906403713    0.06688870830944078    
  0.05801567482644439    0.053200547070355396    0.05167571077562712    0.05320049312383036    0.05801577480247865    
  0.066888559573268    0.08116238027719003    0.10365245312258708    0.1389427430413685    0.19200018244965233    
  0.2649664263379295    0.3453822644155993    0.39766386141997745    0.4019842673249252    0.3936002169755558    
  0.26436176102236775    0.3108643704318198    0.39646805339738245    0.3976635400023526    0.3063294922286692    
  0.20775201990752054    0.13875077682453021    0.09661393931206012    0.07211185674756698    0.05801561143043355    
  0.04996705112773993    0.04583391350090609    0.04456065714470919    0.04583391957686768    0.04996699257606154    
  0.05801576075128878    0.07211166655866101    0.09661420747053429    0.13875044898614106    0.2077524079123727    
  0.3063291191172661    0.39766385664350834    0.39646782254781965    0.31086450710395075    0.26436176102236775    
  0.10528373750719365    0.15920824060652009    0.31086435472613827    0.4019845039590581    0.33036846178063384    
  0.21794518626830556    0.13839027943886867    0.09224927245192031    0.06692503969872418    0.05320058774667866    
  0.04583386672234506    0.04221228070117779    0.04111000324775802    0.04221221123571065    0.04583394948070558    
  0.05320045879578347    0.06692521957600796    0.09224905794549013    0.13839055774718792    0.21794477484790195    
  0.33036888101742995    0.4019841258487202    0.31086457355392527    0.159208182497617    0.10528373750719365    
  0.058950248679340025    0.10528372626288879    0.2643618703855167    0.39360005510683466    0.33720504645899346    
  0.22140584581316572    0.13822665539329335    0.0907528655576045    0.0652329841779748    0.05167561796700531    
  0.04456071659674015    0.0411099823723407    0.0400683101720373    0.04111000359122143    0.04456063346291953    
  0.051675743748860525    0.06523278989458627    0.09075312120261081    0.1382263234169183    0.2214062438158681    
  0.33720462748402413    0.39360037481432736    0.26436165774858783    0.10528381311261438    0.058950248679340025    
  0.10528379978100193    0.15920821781511424    0.3108643654703269    0.4019844294472121    0.33036851592826194    
  0.21794513416289626    0.1383902769515668    0.09224925721174722    0.06692505731812723    0.05320058794256494    
  0.045833874854547985    0.042212268087108526    0.04111001603011341    0.04221220009468713    0.04583399538920713    
  0.053200418978780674    0.06692526168610338    0.09224898749327647    0.13839061411518633    0.21794472888427813    
  0.330368936330209    0.4019840852088935    0.3108646314262809    0.1592081345297127    0.10528379978100193    
  0.1592081452647142    0.2223367009303834    0.3684874334729647    0.43369959094000093    0.35105802442228606    
  0.23691268587098535    0.15488943266851274    0.10533034021405555    0.07664244296119885    0.06003609290877778    
  0.05034309855685193    0.0448506183979093    0.04221222983809468    0.04195803220531337    0.044254550411242995    
  0.05011144636919368    0.06173510075044048    0.08379019851297963    0.12447479604027134    0.19515246861140034    
  0.2983496774351037    0.3796728850473382    0.3315231161873822    0.2081706830898704    0.1592081452647142    
  0.31086451546935334    0.368487332505766    0.4520196337527217    0.4470071433730337    0.35304698074731017    
  0.24980492775473606    0.17336099140720318    0.12331931912212979    0.09162776197419457    0.07143057089287211    
  0.058439219939068046    0.050343074782344004    0.04583394458307305    0.04425452998599525    0.04551467042610178    
  0.050315301153966506    0.060306816578113286    0.07912304670167256    0.11301165657404472    0.1704210778822618    
  0.25624000700800575    0.34637451320773915    0.3744495656396719    0.33152320158966553    0.31086451546935334    
  0.40198421441424637    0.43369980845108064    0.4470071134116802    0.40741705512440657    0.33156420968003936    
  0.25445565094523875    0.19200047862312045    0.1456372453174269    0.11236990529426166    0.08843158163433167    
  0.0714304945438154    0.06003617925229155    0.05320048101451574    0.05011141626247565    0.05031534343389827    
  0.054087007842568785    0.06242600270670973    0.07760759761725916    0.10365237141851796    0.14563754389563188    
  0.20735740980957548    0.28251222524586617    0.3463745628032117    0.37967282073857356    0.40198421441424637    
  0.33036878684108095    0.3510578014277371    0.3530471443674631    0.3315641522812001    0.29342755786617203    
  0.24980487198970472    0.20775215047908688    0.17042138791367684    0.13871985684620947    0.11236984870750903    
  0.09162783010579476    0.07664228787598973    0.06692520930925419    0.06173512055968689    0.06030682611725274    
  0.06242597143742862    0.06839830779150896    0.07912300945569833    0.09661430835391363    0.1233190110426463    
  0.16074341551008947    0.20735741401340033    0.2562399272110667    0.2983498077092133    0.33036878684108095    
  0.21794487444842692    0.23691291936212558    0.24980478788303945    0.25445572691056345    0.2498048455767142    
  0.23691277670192337    0.21794508147748182    0.1951521849418073    0.1704213675217235    0.14563734697422107    
  0.12331917617907379    0.10533054336318873    0.09224906313421524    0.08379016273318357    0.07912305588368405    
  0.07760759684446056    0.07912302239663083    0.08379025494393809    0.09224894586115641    0.10533065093706728    
  0.12331903599729105    0.14563756045798107    0.17042115128476412    0.1951523648001512    0.21794487444842692    
  0.13839050991187762    0.15488924987548294    0.17336111426328682    0.19200038150755488    0.20775214931874916    
  0.2179450366817279    0.22140602674451063    0.21794498907293394    0.20775222367925963    0.1920003089645026    
  0.17336119264851563    0.15488916108351997    0.13839059116853364    0.12447474762545026    0.11301168347228358    
  0.10365235921012356    0.096614325642482    0.0922489311144182    0.09075320883191082    0.09224894197036827    
  0.09661429020129933    0.10365241506130778    0.11301162899038612    0.12447482487296295    0.13839050991187762    
  0.09224908274939    0.10533048331529393    0.12331921669691591    0.14563731042675437    0.1704213463530075    
  0.19515224656174365    0.21794498119838204    0.23691285245531396    0.24980475785936418    0.25445585305802637    
  0.24980466291530415    0.23691308071813874    0.21794476388206394    0.19515243926575943    0.1704210504424668    
  0.1456376144131785    0.12331896929528299    0.10533071876187504    0.09224892782839487    0.08379026201064509    
  0.07912302119992762    0.07760759257048487    0.07912305669349821    0.08379015654441431    0.09224908274939    
  0.06692518625549229    0.07664231821720456    0.09162785166527823    0.11236983503422751    0.13871985944502704    
  0.17042133502861384    0.20775221863529109    0.24980475103054822    0.293427663022505    0.3315639338083952    
  0.3530473230595367    0.351057587452732    0.33036896461793225    0.2983495688072941    0.25624014575378506    
  0.20735725819458997    0.16074350746043894    0.1233189473824795    0.09661430277184731    0.07912296968185333    
  0.06839832018326224    0.06242596034719552    0.06030682841334193    0.06173514519921273    0.06692518625549229    
  0.05320046927852792    0.06003619565789257    0.07143050231981947    0.08843161858073753    0.11236984250666848    
  0.14563733192787592    0.1920003491989676    0.25445584874072485    0.3315640607643814    0.4074172583671064    
  0.4470067772965277    0.4337001258526349    0.4019839325291716    0.37967306692759006    0.34637433744479623    
  0.282512409824023    0.20735725767320903    0.14563769827411827    0.10365232322331562    0.0776076310716051    
  0.06242596229135245    0.054087024368239554    0.05031528562409204    0.05011147619186361    0.05320046927852792    
  0.04583397426885473    0.05034303477527427    0.05843926198359196    0.07143048977780397    0.09162781471352457    
  0.12331925107851385    0.1733610892200621    0.2498047129617755    0.35304726327558816    0.4470068135904668    
  0.45201992831586607    0.3684870138747288    0.3108648199080872    0.33152286408333503    0.37444983247187125    
  0.3463742469544182    0.25624016672378463    0.1704209545026807    0.11301175707397211    0.07912295981778358    
  0.06030686971660343    0.05031526586370202    0.045514672284654056    0.044254538488508084    0.04583397426885473    
  0.04221217184933033    0.04485063486499176    0.050343044125759046    0.06003615401847546    0.07664235642437225    
  0.10533047494903369    0.15488928368069127    0.2369129023769024    0.35105769379643464    0.4336999410494186    
  0.3684870725814136    0.22233697187701787    0.15920790794844067    0.20817095402534988    0.3315229128454736    
  0.37967315702209575    0.2983494934744184    0.19515264933731422    0.12447465126404192    0.08379025885331784    
  0.06173505927051063    0.050111515217978894    0.044254487522232176    0.04195808861937848    0.04221217184933033    
  0.041110052523632236    0.04221221422688437    0.045833944165281706    0.05320050824357503    0.06692514337945661    
  0.09224915600576318    0.13839045493233235    0.21794489622437724    0.33036880546128705    0.4019841243212011    
  0.31086472519551334    0.1592079722804579    0.10528401730726655    0.1592078493321327    0.31086494483374383    
  0.4019837109129838    0.3303692227864311    0.21794452010792542    0.1383907569000115    0.09224891934654994    
  0.06692533218043475    0.05320040269693715    0.04583401572588299    0.04221215835128769    0.041110052523632236    
  0.04221218358963824    0.041958019868252525    0.04425459548030753    0.05011136417752558    0.06173521669095343    
  0.08379005221889572    0.12447494881594433    0.19515230113586837    0.29834986437185046    0.37967277978910663    
  0.33152311385854016    0.20817088168332398    0.15920792083039778    0.2223370629600403    0.36848686877193004    
  0.43370029840328556    0.35105732144229335    0.23691330348094145    0.15488896790191006    0.10533069506039512    
  0.07664214963794283    0.06003629928919279    0.050342947918045416    0.04485068766369986    0.04221218358963824    
  0.04583396256981031    0.044254574675096414    0.04551460282665612    0.05031539113583319    0.06030669549998989    
  0.0791232102930043    0.11301148775304265    0.17042127429190443    0.25623982478742285    0.34637458351722344    
  0.3744495900606802    0.33152306272323817    0.31086478442605003    0.3684868766718182    0.4520201979316345    
  0.44700650449119217    0.35304762746380464    0.24980433730602328    0.17336145279833548    0.12331894942051001    
  0.09162804309526339    0.07143035825416334    0.05843934463354588    0.050343011653614905    0.04583396256981031    
  0.05320046493246577    0.05011138036342109    0.050315394380029826    0.05408687571568456    0.06242614918217162    
  0.07760741154565594    0.10365259450882063    0.14563737602263616    0.20735760316488028    0.2825121206605024    
  0.3463745649615012    0.3796728819273883    0.40198404733406917    0.43370016695409325    0.44700665273387646    
  0.4074176000784359    0.33156364096991864    0.25445622390544825    0.1919999760066311    0.14563761905229078    
  0.11236961090682153    0.0884318004371658    0.07143041498578769    0.060036234679629916    0.05320046493246577    
  0.06692518263730293    0.06173520126218874    0.06030672514075748    0.06242614793380007    0.0683981278672182    
  0.0791232474048167    0.09661405255861531    0.12331922835465968    0.16074322732372098    0.20735752168573043    
  0.25623988076955956    0.2983497548575092    0.330368935170663    0.3510575115230636    0.3530475612158093    
  0.33156369854120776    0.2934280559977197    0.2498043769004914    0.2077525457841619    0.17042102757393085    
  0.13872011720333716    0.11236963834427782    0.09162795059728099    0.07664226131376094    0.06692518263730293    
  0.09224911745532849    0.08379005319094178    0.07912322943077142    0.07760738316475363    0.07912322643232342    
  0.08379000931789816    0.09224918079422523    0.10533040945076902    0.12331923960324456    0.1456373534751041    
  0.1704212399695025    0.19515238323671075    0.21794480521612675    0.23691311887240993    0.2498045227576059    
  0.25445610881309505    0.2498044682666445    0.23691317781708426    0.21794465218671039    0.19515252348630915    
  0.1704211067222922    0.14563754849778357    0.12331908504241647    0.10533053781691082    0.09224911745532849    
  0.13839044193938782    0.12447495279331469    0.11301146001611809    0.1036526394403051    0.09661403023416813    
  0.09224922782479109    0.0907529633508871    0.09224922152108063    0.0966140757218382    0.10365257978858987    
  0.11301150937070616    0.12447489626840269    0.13839052754282816    0.15488911423176277    0.17336131995322349    
  0.19200008106528155    0.20775250945640658    0.2179446986038494    0.22140634715739368    0.21794470144880698    
  0.20775248888924938    0.19200017570968902    0.17336123902818665    0.15488919872957363    0.13839044193938782    
  0.21794495116946003    0.1951522343320707    0.17042135943954564    0.145637255073526    0.12331929481017656    
  0.10533036109342453    0.09224923259847873    0.08378995915733059    0.07912324680219496    0.07760736828384814    
  0.07912319241341222    0.08379009681036279    0.09224910493325146    0.1053305546036087    0.12331909222278138    
  0.14563750252714625    0.17042110625685977    0.19515251017220075    0.21794471072250693    0.23691311778672522    
  0.24980450540644145    0.254456026728195    0.24980466354130978    0.23691293603826002    0.21794495116946003    
  0.3303686879872878    0.29834998992118467    0.25623973276979445    0.20735770560433622    0.1607430702080395    
  0.12331936002193657    0.09661399858362658    0.07912325732183689    0.06839808750215084    0.06242616044950702    
  0.06030669385439607    0.06173524731983385    0.06692516085660233    0.07664226939342032    0.09162795805091244    
  0.1123696597208108    0.13872005228901477    0.17042112796032838    0.2077524463330889    0.24980447836015238    
  0.2934278944528133    0.3315638595841944    0.3530473269724018    0.3510577464033442    0.3303686879872878    
  0.40198430831198084    0.37967257563297    0.3463748567209871    0.28251188052742776    0.20735775967696468    
  0.14563722617585975    0.10365268976955191    0.07760730752032835    0.06242621073869185    0.054086842433059286    
  0.05031543707690281    0.05011137537343191    0.053200506487007214    0.0600362040954906    0.0714304375195356    
  0.08843172864000907    0.11236968711765143    0.14563755318522886    0.19200014436093585    0.2544559860087405    
  0.3315638703043343    0.4074173378149716    0.4470068892285061    0.43369984030080744    0.40198430831198084    
  0.31086444826815113    0.3315233441130776    0.3744492533111533    0.3463749147646767    0.25623958982677725    
  0.17042146290322566    0.11301136750249127    0.07912327080919129    0.06030664544241441    0.050315445352290884    
  0.04551453974391679    0.044254615471248995    0.04583391203240186    0.05034302250238647    0.058439328589656246    
  0.07143042684525631    0.0916279524745045    0.12331906768318868    0.17336128861581881    0.24980453502991035    
  0.3530473947942903    0.44700684746604813    0.4520198119560138    0.3684872417469923    0.31086444826815113    
  0.15920819266963365    0.20817056148670646    0.3315234651360334    0.3796724631413592    0.29835012331064925    
  0.1951520727854346    0.12447513019832256    0.08378992445859676    0.06173533447025656    0.050111302553171415    
  0.044254633399047776    0.041957992847145575    0.04221221470764633    0.044850637805227515    0.05034303456964396    
  0.060036234978812886    0.07664223647507361    0.10533062648110976    0.15488908495956863    0.23691308362489102    
  0.35105762226899273    0.4337000135725849    0.368487209330094    0.22233679622576716    0.15920819266963365    
  0.10528379978100193    0.15920821781511424    0.3108643654703269    0.4019844294472121    0.33036851592826194    
  0.21794513416289626    0.1383902769515668    0.09224925721174722    0.06692505731812723    0.05320058794256494    
  0.045833874854547985    0.042212268087108526    0.04111001603011341    0.04221220009468713    0.04583399538920713    