#     DFTpy    
  CRYSTAL 
    
  PRIMVEC    
  6.453069414771324    5.147095433282759e-07    8.497403397241378e-07    
  5.14709665617931e-07    6.4530716276707345    8.590338768834484e-07    
  8.497404484041379e-07    8.590338966075861e-07    6.453071180384307    
  PRIMCOORD    
  16    1    
  Si    0.9522166382199689    5.500853963534033    2.2743192740953955    
  Si    5.500853229257866    0.9522186869508688    4.178750981041541    
  Si    0.9522176082638667    0.9522178465593927    0.9522181816784591    
  Si    2.2743226144477724    2.2743235589260355    2.2743233213075444    
  Si    5.500851664450912    2.274319432796427    0.9522171142203258    
  Si    0.9522164254184441    4.1787546071270025    5.500853913207675    
  Si    2.274318581236105    0.9522188821772377    5.500854432486332    
  Si    4.178750746244043    5.500855455421492    0.9522171917529172    
  Si    4.1787504202064    2.2743239386977185    5.500857438082985    
  Si    2.274320263886141    4.178748938887729    0.952214060743073    
  Si    4.1787482800102005    4.178752148833726    4.178750892657663    
  Si    5.500853412030713    5.500856452338289    5.500855247974989    
  Si    2.274322867418685    5.500859373293551    4.178751120617067    
  Si    4.178747324981798    0.9522137072226721    2.2743211311931097    
  Si    5.500855719064081    4.17875155877132    2.2743234742730425    
  Si    0.9522139855647587    2.2743219128461507    4.178748884864891    
  BEGIN_BLOCK_DATAGRID_3D    
  3d_datagrid_density    
  BEGIN_DATAGRID_3D#0    
  29    29    29    
  0.0    0.0    0.0    
  6.453069414771324    5.147095433282759e-07    8.497403397241378e-07    
  5.14709665617931e-07    6.4530716276707345    8.590338768834484e-07    
  8.497404484041379e-07    8.590338966075861e-07    6.453071180384307    
  0.11993409588610149    0.12285193248035123    0.13132601431664173    0.14360221275365775    0.15713949087225337    
  0.169857055032002    0.17878100159721327    0.18180529208646115    0.17878106001807656    0.1698572714926397    
  0.15713968724438276    0.14360256777367728    0.1313263271427451    0.1228523964904702    0.11993449072482114    
  0.12285248474807599    0.13132686465752066    0.14360270330235542    0.15714070839952582    0.16985731660202785    
  0.17878222291163712    0.1818052342726202    0.17878208922401118    0.16985698212339062    0.15714030644422286    
  0.14360219292014076    0.13132644729750745    0.12285193524184503    0.11993409588610149    0.12285184661944257    
  0.13908965677115875    0.1623153869391526    0.19049332747746348    0.2206663398416273    0.2490986244060725    
  0.2694221626984827    0.2765744095248483    0.2694223405045936    0.24909889067305394    0.22066680319051998    
  0.19049371899079265    0.1623159023368912    0.13909002144113713    0.12285229581046428    0.11351615322033194    
  0.11015209949122828    0.11109856521782993    0.11415150569507164    0.1177479519268318    0.12056161230515995    
  0.12156858179466294    0.12056148719464063    0.11774784589747508    0.11415125935489988    0.11109834135498806    
  0.11015172699078857    0.11351586290344064    0.12285184661944257    0.13132624722497502    0.16006385386781352    
  0.1980632141863913    0.24352775371793126    0.2941474462101934    0.34408059643519107    0.38188172222848704    
  0.396084987313737    0.3818819490735747    0.34408107158279627    0.29414790083991055    0.24352837118326756    
  0.19806364015886602    0.16006441322966597    0.13132653134762398    0.11180295443795084    0.09993632919694188    
  0.09383887300147147    0.09134152965015212    0.09067560079214257    0.09079029221705395    0.09093066856054276    
  0.09079027971577691    0.09067554653289317    0.09134149933283303    0.09383873527943301    0.09993618017857935    
  0.11180262386692626    0.13132624722497502    0.14360190121804212    0.1812737557660249    0.22978063253393777    
  0.28759159577650684    0.3545632289386734    0.42505942618821474    0.4820065386625388    0.50432722978965    
  0.4820068886306804    0.4250598120507681    0.3545638775802147    0.28759213770639175    0.22978124168815564    
  0.18127414476466785    0.1436022977798848    0.11723156103595898    0.10031555993072058    0.0905823506339783    
  0.0856558849707023    0.08344859096836094    0.08267547745140841    0.08253339694918668    0.08267550472600066    
  0.08344865871679222    0.08565586620914076    0.09058238499690983    0.10031540030262866    0.11723143828479486    
  0.14360190121804212    0.15713997616921005    0.1973000126412028    0.24855969456251303    0.3091028233496016    
  0.3804746107074442    0.4594785564889443    0.5257468309172266    0.5518874627507938    0.5257471482638222    
  0.4594790007825246    0.3804750843843628    0.3091034750426266    0.24856012567837735    0.19730055773370386    
  0.1571401793010074    0.12895159103337595    0.1110195970893068    0.10088226729689108    0.09597411992276639    
  0.09407874905281256    0.09366603968969035    0.09366876650315742    0.09366611338798048    0.09407883978751673    
  0.09597424774964107    0.10088227558543855    0.11101960157824822    0.1289513826962416    0.15713997616921005    
  0.16985649445714612    0.2042853577808168    0.24877264883395409    0.30176535275679245    0.36435815851023423    
  0.43413369703195376    0.4923137581142487    0.514798850758365    0.49231398863977366    0.43413409124306496    
  0.3643586784164552    0.30176588361476503    0.24877324787198127    0.20428572257058286    0.16985690038872803    
  0.1461012457463156    0.13193257455245225    0.12534612468006823    0.12386148024660316    0.12514635420301484    
  0.12705948252461213    0.1279115934648644    0.1270595406055709    0.12514650306615127    0.12386153392549237    
  0.12534626299071203    0.1319324707002674    0.14610112711330417    0.16985649445714612    0.1787816862182741    
  0.20000208864075453    0.22984390030161372    0.2671274190016859    0.3111655803941376    0.35891986309593177    
  0.3975717533186419    0.4121912211061285    0.3975718777184674    0.3589201796270568    0.31116595820615545    
  0.26712794745191143    0.229844345647035    0.20000269312077457    0.1787820385018525    0.1663386104554307    
  0.1621508551037663    0.1647985922644686    0.17214048533343587    0.18161830959869127    0.1896082551827778    
  0.19268809416361704    0.18960835672338344    0.18161835175377877    0.17214055874347367    0.16479848737081806    
  0.16215075198310025    0.16633825007071923    0.1787816862182741    0.18180468822049245    0.1858136738271063    
  0.19763706192757055    0.2160236563078271    0.2391778541345492    0.2641965080545231    0.28418229701691017    
  0.2917033020101201    0.28418242710034114    0.2641966006471213    0.23917820286541547    0.21602403779370155    
  0.19763764289849023    0.1858141408349567    0.18180530115629587    0.18581426418351174    0.19763731147524782    
  0.21602432290878582    0.23917747504517312    0.2641968876360282    0.2841812459290083    0.29170344476540655    
  0.2841811058815493    0.26419674119116887    0.2391771779982068    0.21602408150593294    0.1976368364201038    
  0.1858138671690136    0.18180468822049245    0.17878186161438622    0.1663384200563523    0.16215065208239773    
  0.16479889372655976    0.1721403421694216    0.1816191881914732    0.18960826791656651    0.19268916663443802    
  0.18960831843062126    0.18161939794473564    0.1721405763260725    0.16479935269752022    0.16215109956558116    
  0.1663391466548945    0.17878256835811662    0.20000304691293488    0.22984521979294398    0.26712793910291216    
  0.31116698865292464    0.35891961505384623    0.3975728457306594    0.4121902617418803    0.397572487654926    
  0.35891898508685544    0.3111662738215417    0.26712706003787284    0.2298444466918155    0.20000212688558608    
  0.17878186161438622    0.16985669178225576    0.14610124706633804    0.13193273761064278    0.12534608846370635    
  0.12386199294938617    0.12514630705481894    0.12706026617770497    0.12791158648018228    0.12706034345494022    
  0.12514644561058905    0.12386228462820514    0.12534643130297304    0.13193336677720552    0.14610197620719742    
  0.16985777545401037    0.20428705010033474    0.2487740559323419    0.30176760985217566    0.36435914405841036    
  0.43413632843811506    0.49231417544215816    0.5148008967143559    0.492313394327166    0.4341351425359799    
  0.3643577486418236    0.3017663790294205    0.2487726922106542    0.20428597295300713    0.16985669178225576    
  0.1571404242217257    0.128951544759106    0.11101962225864975    0.1008825176249906    0.09597406529524306    
  0.09407924410105963    0.0936659420495108    0.09366937727336933    0.09366604596250398    0.09407945333499222    
  0.09597434626265577    0.10088303574433381    0.11102021279940294    0.12895250556344495    0.15714153021816274    
  0.19730179956591187    0.24856237802489983    0.30910471839699777    0.38047798136201927    0.45948031174424775    
  0.5257507628054137    0.5518885507607917    0.525749783898966    0.45947872531383394    0.38047625945238256    
  0.30910294183469084    0.24856082459949774    0.19730026760470457    0.1571404242217257    0.14360209784150949    
  0.11723162535384214    0.1003155748825109    0.09058223258653919    0.085656091326552    0.08344842865460268    
  0.08267589338451635    0.08253325878011764    0.08267605295241932    0.08344870781875262    0.08565657407561876    
  0.09058279440453118    0.10031639560946927    0.11723261476596687    0.14360349962436456    0.1812761773037948    
  0.2297828989181382    0.2875951307386672    0.35456574140354463    0.42506395877183195    0.48200904071843964    
  0.504331499544629    0.4820079395020559    0.4250622467385917    0.35456369730967824    0.28759325762506915    
  0.22978094245771225    0.18127462186911555    0.14360209784150949    0.13132677451949773    0.11180278240025741    
  0.0999362212478368    0.09383883936989726    0.09134126864714774    0.0906757932365603    0.09079007646805703    
  0.09093116716356972    0.0907903179842675    0.09067628796696502    0.09134191942775279    0.09383972158272383    
  0.099937173930761    0.11180402305622135    0.13132812601517574    0.1600658766162006    0.19806628491743786    
  0.2435301824216083    0.2941515577754176    0.3440832243806916    0.38188624901536566    0.39608683142675594    
  0.38188529780511343    0.3440815673261312    0.2941496384905804    0.24352818805559712    0.19806445101053968    
  0.16006412530779848    0.13132677451949773    0.12285197517265772    0.11351608589026677    0.11015183794436363    
  0.11109821584147402    0.11415140191103035    0.11774756441651855    0.12056190335026593    0.12156847634827822    
  0.12056232445588735    0.11774833198338874    0.11415250307883315    0.11109937075262706    0.11015321175408266    
  0.113517418278996    0.12285350999593787    0.13909195088374351    0.16231733315087074    0.19049648023881816    
  0.22066843030011588    0.249102237481079    0.2694239007472194    0.2765776871387413    0.2694231330157896    
  0.24910100765344165    0.22066675559622737    0.19049484144007955    0.1623156036028303    0.13909045450021085    
  0.12285197517265772    0.11993460223239914    0.12285204466008974    0.13132651061121048    0.14360230084407477    
  0.1571400227949863    0.16985728596408037    0.17878184672714917    0.18180603231863618    0.1787825686067471    
  0.16985859302352752    0.1571416043463003    0.14360411644618112    0.13132816850141524    0.12285372917197403    
  0.1199360354252915    0.12285355512516566    0.13132824152383085    0.1436036460380839    0.15714201709995168    
  0.1698581812333132    0.17878345195419773    0.18180589560351765    0.1787829953766653    0.16985729721007703    
  0.15714091812084302    0.14360231101193835    0.13132691662956011    0.12285205257738227    0.11993460223239914    
  0.12285212057613913    0.13909013208992443    0.16231573327220108    0.1904938728670805    0.22066671228062673    
  0.24909938186336625    0.26942301596116536    0.27657589526875104    0.26942408096483006    0.249101244420555    
  0.22066905863969216    0.19049614759765618    0.16231790341174007    0.13909192708455637    0.12285371758040271    
  0.11351744201282839    0.11015303909923106    0.11109949011655929    0.11415218156750533    0.11774873324160748    
  0.12056211131311204    0.12156913247939855    0.12056179717467898    0.1177482191746135    0.11415138466979984    
  0.1110986544433138    0.1101518974982789    0.1135162164997248    0.12285212057613913    0.1313266415491602    
  0.1600643812829731    0.19806374461701298    0.24352828763513878    0.2941480112714606    0.34408131142829046    
  0.3818827921489572    0.39608659307646155    0.3818841254480632    0.3440836544076512    0.2941506591995029    
  0.24353106383440426    0.19806611760601434    0.160066445782548    0.13132813037372557    0.11180412604209551    
  0.09993721365650082    0.09383957467173847    0.09134206848341989    0.09067604827504752    0.09079062548577663    
  0.09093094428583214    0.0907904833632494    0.09067570833499757    0.091341605199887    0.0938388863185962    
  0.09993638156136753    0.11180294394615269    0.1313266415491602    0.14360247290523334    0.18127415996858073    
  0.22978133664930256    0.28759191614921525    0.3545638498288042    0.4250597394512223    0.48200752883814335    
  0.5043283108356142    0.48200895495997426    0.42506185671475527    0.3545664750444458    0.28759452054067186    
  0.22978384500239268    0.18127611541928443    0.1436040051264101    0.11723261951243913    0.1003164877300973    
  0.0905828399105906    0.08565643443218622    0.08344883782242991    0.08267585339637536    0.08253346543566042    
  0.08267572635698046    0.08344865370095784    0.08565602662675807    0.09058239121521766    0.1003156927390821    
  0.11723163013742897    0.14360247290523334    0.15714018379671646    0.19730079533343794    0.24855993737694337    
  0.30910343032472654    0.38047440392812    0.45947883908440545    0.5257464774968325    0.5518882360049268    
  0.5257477015754476    0.4594807244950836    0.38047643776102213    0.30910579719591336    0.24856202056580814    
  0.19730274927541983    0.1571414992129367    0.128952938179905    0.11102020339938572    0.10088303427366797    
  0.09597438092317305    0.09407925656438614    0.0936661120805996    0.0936691280331047    0.0936660290001884    
  0.09407905351340012    0.09597411141852007    0.10088252533595915    0.11101959196494637    0.12895188725048493    
  0.15714018379671646    0.16985726246242785    0.20428548377400946    0.2487734241101253    0.3017650388263373    
  0.36435835817118484    0.4341326714449028    0.4923134858351529    0.5147976988467109    0.49231443896759786    
  0.4341340370056463    0.3643601303390974    0.301766842455155    0.24877526327278843    0.2042869508798587    
  0.16985856703782867    0.1461019520854424    0.1319336619923143    0.12534643752613683    0.12386221429266582    
  0.12514641162864065    0.1270600280101145    0.12791149149016942    0.12705992688482942    0.12514625238913532    
  0.12386181755524873    0.12534602007824905    0.1319329323099429    0.146101101230982    0.16985726246242785    
  0.1787815802819572    0.20000292194969585    0.229843661671668    0.26712789071560894    0.31116463271769285    
  0.35891959820939995    0.397570005695706    0.41219071964573584    0.3975704960253275    0.3589205910307215    
  0.31116575330019275    0.26712923809600003    0.2298449102347623    0.20000419864017524    0.17878257729342992    
  0.1663398220090452    0.1621511374919242    0.16479952930068867    0.17214053500701978    0.18161916621275498    
  0.18960814343288365    0.1926887150687815    0.18960800075972595    0.18161877559633674    0.1721400884574901    
  0.16479889519938692    0.1621504500798658    0.16633888708143466    0.1787815802819572    0.18180539491096104    
  0.18581342393710124    0.19763771660525412    0.21602308757765312    0.2391779975801577    0.26419520456076906    
  0.2841818481351776    0.2917016338392361    0.2841821463614196    0.26419554268856343    0.23917867668576218    
  0.21602373176183703    0.19763859386636368    0.1858141710950705    0.18180631529278699    0.18581428234172917    
  0.1976382688720061    0.21602415769135824    0.239178347437248    0.2641965549001842    0.28418199646935355    
  0.2917029505631218    0.28418167253526816    0.2641960608071605    0.2391775877293798    0.216023430156512    
  0.19763735460201814    0.185813494346738    0.18180539491096104    0.17878145661046768    0.16633905746951705    
  0.1621502369882341    0.16479934204250657    0.17213956365736907    0.18161921486214974    0.18960704650575613    
  0.19268890907109867    0.1896070833602928    0.18161936508875734    0.17213969498648868    0.16479971245046077    
  0.16215058992021394    0.166339695198648    0.1787821218906612    0.20000366438016154    0.22984467095158664    
  0.2671285099874103    0.31116619547050284    0.35892015112079406    0.39757180789218716    0.41219066639548857    
  0.39757138575710427    0.3589193764015286    0.3111652937282257    0.26712747498892725    0.2298437275323578    
  0.20000266812260492    0.17878145661046768    0.1698571862610365    0.14610080834977004    0.1319332433203329    
  0.12534560768036468    0.1238623059232192    0.12514560061785973    0.12706034114307801    0.1279106566839187    
  0.12706030331395185    0.12514554339652723    0.12386235283647201    0.12534567525227408    0.1319335462469141    
  0.1461012117080729    0.16985796771940895    0.20428609903473693    0.24877416299804472    0.3017663662313357    
  0.36435913937186215    0.4341346019342798    0.4923139480036108    0.5147990439372357    0.4923133390864816    
  0.4341336497164658    0.36435796859762737    0.301765326894406    0.24877301454590336    0.20428527837019983    
  0.1698571862610365    0.1571398229744649    0.128951982761078    0.1110192055112413    0.1008829001785913    
  0.09597358396524151    0.0940794839176692    0.09366531635043081    0.09366942213108842    0.09366528964806631    
  0.09407944272863339    0.09597354507860059    0.10088299444442796    0.11101931625524099    0.1289524176666231    
  0.15714039656605044    0.19730155540879857    0.24856083184011243    0.3091042821469953    0.3804759922239657    
  0.4594795463199244    0.5257481435916513    0.5518876297104046    0.525747469913328    0.45947848732833535    
  0.38047482524231385    0.3091030608406761    0.24855981065380764    0.1973005803394554    0.1571398229744649    
  0.14360236904340432    0.11723114323216684    0.10031591981875575    0.09058186046246312    0.08565637735111689    
  0.08344799850772824    0.08267604212452832    0.08253268399110526    0.08267604770041427    0.0834479462221092    
  0.0856564206300261    0.09058189971241988    0.1003161444443103    0.11723147952674161    0.14360302089949936    
  0.1812746418736985    0.22978216936835844    0.2875931020367032    0.3545646725963732    0.4250612449721838    
  0.48200753081441544    0.5043286423848391    0.48200686864924513    0.4250602877623408    0.35456344466767614    
  0.2875920522564833    0.22978103015186113    0.18127385424968828    0.14360236904340432    0.13132619492732756    
  0.1118029606820865    0.09993579671690027    0.09383908379921081    0.09134088468341707    0.09067595679739775    
  0.09078957333382716    0.09093112049312467    0.09078953061202888    0.09067599883302188    0.09134090325368965    
  0.09383924428510952    0.09993598122350292    0.1118034248111888    0.13132668856564725    0.1600650281019435    
  0.19806446167269517    0.24352906868453325    0.29414927558478926    0.34408173414216564    0.38188361947689636    
  0.3960854737313899    0.3818831085440085    0.3440809129198538    0.29414832157595916    0.24352802235263174    
  0.1980636129552922    0.1600642044999212    0.13132619492732756    0.12285201494354918    0.11351562179337418    
  0.11015193651214258    0.11109777080822243    0.11415148575605591    0.1177470447781277    0.1205617849953687    
  0.12156763918247683    0.12056181468726586    0.1177470832604867    0.11415166626758984    0.11109792867186052    
  0.1101522702106154    0.11351595000464346    0.12285258132018032    0.139090405957596    0.16231630930983793    
  0.1904947115847611    0.2206672406380259    0.2491002674523784    0.2694227032547165    0.27657587786898064    
  0.2694223621843821    0.24909975720858604    0.2206664680253865    0.1904940464838677    0.1623155367276544    
  0.13908986100839724    0.12285201494354918    0.11993409588610149    0.12285193248035123    0.13132601431664173    
  0.14360221275365775    0.15713949087225337    0.169857055032002    0.17878100159721327    0.18180529208646115    
  0.17878106001807656    0.1698572714926397    0.15713968724438276    0.14360256777367728    0.1313263271427451    
  0.1228523964904702    0.11993449072482114    0.12285248474807599    0.13132686465752066    0.14360270330235542    
  0.15714070839952582    0.16985731660202785    0.17878222291163712    0.1818052342726202    0.17878208922401118    
  0.16985698212339062    0.15714030644422286    0.14360219292014076    0.13132644729750745    0.12285193524184503    
  0.11993409588610149    0.12285190220109053    0.1390895795287988    0.16006406960668718    0.18127343539822718    
  0.1973004603121285    0.20428483732199448    0.20000270269974466    0.18581301205750017    0.16633899801518748    
  0.14610069502942374    0.12895207872756023    0.11723125665173395    0.11180326042400306    0.1135160074322012    
  0.12285254308543463    0.139090437070337    0.16006480488410751    0.18127478073888564    0.19730098241548258    
  0.204286152617734    0.2000027082674384    0.18581403064003835    0.16633866435264072    0.14610130864425686    
  0.1289516483375568    0.1172315228062899    0.11180276392312466    0.11351579352984051    0.12285190220109053    
  0.13908971927211092    0.17102906805634308    0.2095235381383311    0.24786102462665763    0.27943894124490004    
  0.29901766815219977    0.2997872474287509    0.2797605377773495    0.24589675083370896    0.20783116813464686    
  0.17316823401080636    0.14599846096397215    0.12724037118702397    0.11661399955780101    0.11351610239021785    
  0.11661400178746371    0.12371802462905745    0.13172265999658997    0.13725324510354714    0.1381911469085717    
  0.1339616359972492    0.1255793254469107    0.11551316029822879    0.10631196119221437    0.10018285692172745    
  0.09880824558989085    0.1036648843490977    0.1166134761772741    0.13908971927211092    0.16231520289057727    
  0.209523664256163    0.26262338889308984    0.3124180033816    0.35740009511783055    0.3969140619178406    
  0.41527419137221866    0.395954668492835    0.345286278408945    0.283638622785872    0.22614309386365705    
  0.17983324945044618    0.1462578127810555    0.12371770557300997    0.11015206430308316    0.10366507822668096    
  0.10190447283139245    0.10239221356073512    0.10288933187135203    0.10193685321619209    0.0991030541738304    
  0.09474893777814714    0.09021786914225807    0.08720084917525743    0.08727371308320278    0.09228706431008925    
  0.10465393658670454    0.12724031772614944    0.16231520289057727    0.19049370205479538    0.2478607409900168    
  0.30534869777191664    0.3515175100139612    0.3982258756114441    0.45829670986615323    0.5057725919751206    
  0.49789490691265315    0.4349241267870941    0.3512582643282788    0.2725202139150693    0.20924956628289168    
  0.1632986413762864    0.13172254514319479    0.11109832621142549    0.09880838633150317    0.09239355627901326    
  0.08970184179521315    0.08883640104635616    0.08833659633329909    0.08759505301590169    0.08650992435084612    
  0.08571662914873443    0.08635727468917358    0.08997937373743799    0.09897614052917357    0.11646623823010181    
  0.14599774485076522    0.19049370205479538    0.22066589926003918    0.2794393118739515    0.3321692011522867    
  0.3672246061262355    0.4070249038899305    0.47482763188338595    0.5398164789408146    0.5419481545340088    
  0.4757592384024757    0.3823815915890126    0.29408240515957135    0.22369625982062694    0.1725230512053064    
  0.1372529111048271    0.11415133277274095    0.10018286454847562    0.09293597883751593    0.09049137188556333    
  0.09102956645769626    0.09307618269442407    0.0957527639419118    0.09842733364296795    0.10104575480506711    
  0.10436478923336391    0.11013494389252629    0.12123627853078797    0.14100323284539967    0.17316843970845494    
  0.22066589926003918    0.24909917979754267    0.2990170318065123    0.34305804509050086    0.3720370238040446    
  0.40510248941556    0.46164068274160863    0.5133554800477418    0.5095647194660788    0.4476476157275434    
  0.3619693014741479    0.2809646729663962    0.21682215809166192    0.1701966284784982    0.13819114674838057    
  0.11774773069844477    0.1063119812389196    0.10195338065135483    0.10308818020499189    0.10830854421737521    
  0.11624777695780071    0.12538711720738033    0.13391719767278926    0.14078889292432428    0.14633424874313616    
  0.15241387443161514    0.16230806401211362    0.17958788985433694    0.20783020616846684    0.24909917979754267    
  0.26942147161139    0.2997878149621097    0.3295870897950526    0.35293871517877945    0.377247653915545    
  0.40951642197051336    0.4309665766790221    0.4153312216871547    0.3648260633012036    0.3002727255760891    
  0.23971135206083374    0.19173989441600756    0.1570848316031875    0.13396149904280602    0.12056156486914812    
  0.11551318922182396    0.11778622003761481    0.12649355002069326    0.14098688611252239    0.1601680904267592    
  0.18129201692677216    0.20003804220684895    0.21279951721285573    0.2188770609652605    0.22109796975201781    
  0.22403396438901857    0.23132590775493025    0.2458973007460827    0.26942147161139    0.2765751786732908    
  0.27975980665074934    0.287554884770226    0.29680218917670037    0.30702039335667736    0.31685519603625967    
  0.31719433434885047    0.29915538792334595    0.26514087935313563    0.22487179401079163    0.18760177084064855    
  0.15824361880285703    0.1377074977847677    0.1255794778630958    0.12156859653117423    0.12557947962474703    
  0.13770782167045398    0.15824342212299233    0.18760239767056627    0.22487128467856307    0.2651415200432951    
  0.2991545150660154    0.3171948502673505    0.31685422090610904    0.3070208235036121    0.2968016866455677    
  0.287555231458714    0.279759693835247    0.2765751786732908    0.26942162151459337    0.2458973548535267    
  0.23132631074165932    0.2240337462128326    0.2210986093016307    0.21887676452112764    0.21280035894436075    
  0.20003771793678232    0.18129276173012365    0.16016779275648435    0.14098737387415744    0.1264933748071171    
  0.11778654333143651    0.11551330218821194    0.12056179061769963    0.13396200154373092    0.1570850372892722    
  0.19174085949804165    0.23971136284551747    0.3002740536581378    0.36482577690920537    0.4153324732220166    
  0.43096569371064897    0.40951708925724356    0.3772467861022516    0.3529393047582592    0.3295868711388937    
  0.29978831763404434    0.26942162151459337    0.2490996780393589    0.20783048936449458    0.17958789540827746    
  0.16230844904773553    0.152413688732221    0.1463348200781052    0.14078869817060924    0.13391787651907386    
  0.12538694303185607    0.11624837436940694    0.10830848407335653    0.10308865543279355    0.10195354479934884    
  0.10631244938584004    0.1177483461673328    0.13819160942813502    0.17019786995786726    0.2168227023666456    
  0.28096660458638395    0.3619699185043604    0.4476500494245697    0.5095648361954521    0.5133570754848725    
  0.4616396735721973    0.4051030243397082    0.3720364799686518    0.3430588782892389    0.2990172241287418    
  0.2490996780393589    0.2206661918204613    0.17316870151475408    0.14100352348483433    0.12123616786110694    
  0.11013532400308826    0.10436458679979732    0.10104623934382752    0.09842717294240233    0.09575331856232658    
  0.09307615574696047    0.09103011782600641    0.09049155412051225    0.09293652133801802    0.10018337996728516    
  0.1141519881452445    0.13725412344944318    0.17252391675120307    0.2236983755712468    0.2940835508045561    
  0.3823848431450963    0.47576060215576943    0.541951449926118    0.5398166587213856    0.47482888674582235    
  0.407023873414287    0.3672254749359806    0.33216916019441217    0.27944026717275683    0.2206661918204613    
  0.19049433014121991    0.14599797994130462    0.1164663141630786    0.09897634868561053    0.08997920082864647    
  0.08635762327208359    0.0857164576491727    0.0865104340358702    0.0875950398845765    0.08833721132842501    
  0.08883659906125527    0.08970250185412065    0.0923940673602023    0.098809113446281    0.11109936005764857    
  0.13172341840953525    0.1633005150411601    0.20925078031654484    0.27252321446935807    0.35125999448145984    
  0.43492819180579956    0.49789648820264326    0.5057758169628482    0.45829659072540896    0.3982272638933383    
  0.3515173174631925    0.30534995925649683    0.24786104526070663    0.19049433014121991    0.16231549547911064    
  0.12724060171731394    0.10465412723801586    0.09228696760007334    0.0872739646984225    0.08720067740498416    
  0.09021831836951158    0.09474893673309547    0.09910375589358736    0.10193713079210678    0.10289022299758763    
  0.10239283939386064    0.10190537747944696    0.10366604904272109    0.1101529547638759    0.12371916996179332    
  0.14625887938909565    0.1798355297674485    0.2261444689039718    0.28364199519557576    0.3452879800236142    