#     DFTpy    
  CRYSTAL 
    
  PRIMVEC    
  11.33864344844015    2.1093419475862066e-09    -6.848956468965516e-10    
  2.1093419475862066e-09    11.338643450993576    -1.975874626206896e-09    
  -6.848956468965516e-10    -1.975874626206896e-09    11.338643451704456    
  PRIMCOORD    
  63    1    
  Si    2.8346609155147067    2.4837881910020156e-08    2.834660804698243    
  Si    8.503982639734783    2.589255288381326e-08    2.834660804355795    
  Si    2.834660916569378    5.66932175033467    2.834660803710306    
  Si    8.503982640789452    5.669321751389339    2.8346608033678575    
  Si    2.8346609151722597    2.3849944596916708e-08    8.50398253055047    
  Si    8.503982639392332    2.490461557070981e-08    8.503982530208022    
  Si    2.8346609162269303    5.669321749346732    8.503982529562533    
  Si    8.503982640447004    5.669321750401403    8.503982529220085    
  Si    1.4173304303548377    1.4173303579039553    1.4173303765270666    
  Si    7.086652154574912    1.4173303589586261    1.4173303761846188    
  Si    1.4173304314095085    7.086652083400742    1.4173303755391295    
  Si    7.086652155629584    7.086652084455414    1.4173303751966817    
  Si    1.4173304300123901    1.417330356916018    7.086652102379295    
  Si    7.086652154232465    1.4173303579706888    7.086652102036847    
  Si    1.417330431067061    7.086652082412806    7.0866521013913575    
  Si    7.086652155287135    7.0866520834674755    7.08665210104891    
  Si    2.834660930958954    2.834660842212813    3.585842051876865e-08    
  Si    8.503982655179026    2.834660843267484    3.551597269532037e-08    
  Si    2.834660932013625    8.5039825677096    3.48704832056652e-08    
  Si    8.503982656233697    8.503982568764272    3.452803538221692e-08    
  Si    2.8346609306165065    2.834660841224875    5.669321761710648    
  Si    8.503982654836578    2.8346608422795456    5.6693217613682    
  Si    2.834660931671177    8.503982566721662    5.6693217607227115    
  Si    8.50398265589125    8.503982567776333    5.669321760380263    
  Si    1.4173304341533368    4.251991346168122    4.251991352618051    
  Si    7.086652158373411    4.251991347222794    4.251991352275604    
  Si    1.417330435208008    9.921313071664908    4.251991351630114    
  Si    7.086652159428082    9.921313072719583    4.251991351287666    
  Si    1.4173304338108894    4.251991345180186    9.921313078470279    
  Si    7.086652158030963    4.251991346234856    9.921313078127831    
  Si    1.4173304348655604    9.921313070676971    9.92131307748234    
  Si    7.086652159085634    9.921313071731644    9.921313077139894    
  Si    5.669321673775071    2.849748084833821e-08    5.4364063351626756e-08    
  Si    11.338643399049817    5.669321755048942    5.303367821507503e-08    
  Si    5.6693216748297415    5.669321753994269    5.337612603852331e-08    
  Si    11.338643397652698    2.8564214509027867e-08    5.669321779873843    
  Si    5.6693216734326235    2.7509543535234762e-08    5.669321780216292    
  Si    11.33864339870737    5.669321754061004    5.669321778885907    
  Si    5.6693216744872945    5.669321753006332    5.669321779228354    
  Si    4.251991296506534    1.417330396368721    4.251991346089406    
  Si    9.921313020726606    1.417330397423392    4.251991345746959    
  Si    4.251991297561206    7.086652121865509    4.2519913451014695    
  Si    9.921313021781275    7.086652122920181    4.251991344759021    
  Si    4.2519912961640856    1.4173303953807839    9.921313071941636    
  Si    9.92131302038416    1.4173303964354544    9.921313071599187    
  Si    4.2519912972187575    7.086652120877572    9.921313070953698    
  Si    9.921313021438829    7.086652121932243    9.92131307061125    
  Si    11.338643378675355    2.834660832570225    2.8346608280280066    
  Si    5.66932165445528    2.8346608315155537    2.8346608283704535    
  Si    11.338643379730025    8.503982558067014    2.834660827040069    
  Si    5.669321655509951    8.503982557012343    2.834660827382517    
  Si    11.338643378332904    2.8346608315822874    8.503982553880236    
  Si    5.6693216541128315    2.8346608305276164    8.50398255422268    
  Si    11.338643379387575    8.503982557079075    8.503982552892298    
  Si    5.669321655167503    8.503982556024404    8.503982553234744    
  Si    4.251991287518318    4.251991351295381    1.41733037435493    
  Si    9.921313011738391    4.251991352350051    1.417330374012482    
  Si    4.25199128857299    9.921313076792167    1.4173303733669926    
  Si    9.921313012793064    9.921313077846838    1.4173303730245446    
  Si    4.251991287175871    4.251991350307443    7.086652100207157    
  Si    9.921313011395945    4.251991351362113    7.08665209986471    
  Si    4.251991288230541    9.92131307580423    7.0866520992192195    
  Si    9.921313012450616    9.921313076858903    7.086652098876773    
  BEGIN_BLOCK_DATAGRID_3D    
  3d_datagrid_density    
  BEGIN_DATAGRID_3D#0    
  49    49    49    
  0.0    0.0    0.0    
  11.33864344844015    2.1093419475862066e-09    -6.848956468965516e-10    
  2.1093419475862066e-09    11.338643450993576    -1.975874626206896e-09    
  -6.848956468965516e-10    -1.975874626206896e-09    11.338643451704456    
  0.02969154168110622    0.030495149736758934    0.032709115569152285    0.0359210326475893    0.03948402283794621    
  0.04244440644966953    0.04397055453201689    0.04383888569144871    0.042218133065605776    0.03976098678495087    
  0.037389945131462134    0.03576890490149875    0.03535534265096931    0.03657097917400929    0.03994317414840301    
  0.04665587617609192    0.05917596481399498    0.08274298866166542    0.12725966067405386    0.2076902527416132    
  0.3257624921889662    0.3952028648269789    0.2743567720781368    0.10973796361699303    0.060857116443793255    
  0.10973798693035995    0.27435686227452455    0.3952028932041792    0.3257624112511344    0.2076901907322923    
  0.12725963303319182    0.08274299460970244    0.059175955832635206    0.04665586845139601    0.03994316173472257    
  0.036570982414293754    0.035355357792570194    0.03576888959061277    0.03738994226185403    0.03976098064330099    
  0.042218152361858524    0.043838869554807196    0.043970555056781546    0.042444411858146715    0.039484036113676284    
  0.03592102828086758    0.03270909919054482    0.030495156713576742    0.02969154168110622    0.030495157791078305    
  0.03136445606375303    0.03381999428152408    0.03744295048660084    0.0414478289357726    0.04476393459407958    
  0.04645991627183797    0.046209827401704644    0.04426478956057603    0.04140457056659727    0.038660979827359256    
  0.03679477835131145    0.036291498054130046    0.037558585258188705    0.04110898229850438    0.04807555008988277    
  0.06076519802958234    0.08412332702341667    0.12731173364024737    0.2039826727309057    0.31781095071181603    
  0.40106011688516907    0.3208229443728646    0.16637210430962898    0.1098270839010101    0.16637214325112845    
  0.3208230413632041    0.40106013958939224    0.31781085723297475    0.2039826516559922    0.12731170581930606    
  0.08412330381127506    0.06076519415171817    0.04807551992354811    0.04110896534128429    0.037558587822600284    
  0.03629151455055329    0.036794752355270396    0.03866097279950998    0.041404583657757864    0.0442647928591067    
  0.046209806726841884    0.04645991044115577    0.044763922103381794    0.04144783601452099    0.03744295188969865    
  0.033819965823848185    0.031364472783974265    0.030495157791078305    0.03270909319796189    0.03381999033867288    
  0.03702145693441047    0.04182250577952367    0.04716012903104231    0.051631176247271135    0.053908017472159855    
  0.053365108069524804    0.05050795492004456    0.04650965176410556    0.04271214419766615    0.04014165027999062    
  0.03937794923286534    0.040798564179974496    0.04485970757403318    0.052511233227632854    0.06560921024690612    
  0.08822575256773947    0.12750995262245346    0.1933673935698226    0.2913332737359404    0.3897405294668405    
  0.40115358691238984    0.3212699254096326    0.2749286332591937    0.3212698828233496    0.40115368001877333    
  0.3897404464776888    0.2913332863124444    0.1933673554276386    0.1275099412473844    0.08822574803069523    
  0.0656091840669802    0.052511217275397884    0.04485972177047956    0.04079854445120398    0.039377980249296445    
  0.04014161551519831    0.04271215201594692    0.04650964776993816    0.050507959533707444    0.0533651317330357    
  0.0539080265069045    0.05163113815917223    0.04716013638521265    0.04182252632401882    0.037021428013412315    
  0.03381999994520519    0.03270909319796189    0.03592103306052091    0.03744296018008057    0.041822532180303525    
  0.048445667049660295    0.05597403055412701    0.062421855811576346    0.06583763792453491    0.06522414731174908    
  0.06129410650426579    0.055746785598796846    0.05047464864546461    0.046918847094718955    0.04578304306344552    
  0.04742748251860815    0.05217896233432877    0.06068041569340346    0.07406589975639123    0.09490500119299086    
  0.1276381911908265    0.1776752915802897    0.24865326189193884    0.33086915879240353    0.3902260528946074    
  0.4020684030252475    0.396419756522026    0.4020684226743825    0.390226010694646    0.3308691213272265    
  0.24865321960636436    0.1776752994395319    0.12763815591932437    0.0949050032367839    0.07406592029224737    
  0.06068041583314849    0.05217894415850941    0.04742745827992644    0.04578306143095813    0.046918842101288855    
  0.05047464445209233    0.055746791306607354    0.06129409612910444    0.06522413531854343    0.06583764666969928    
  0.062421834342947034    0.05597401985911841    0.048445648424508686    0.04182253031767856    0.03744296861077308    
  0.03592103306052091    0.039484006669531196    0.041447817627775316    0.04716013775474486    0.05597400583495587    
  0.06624450409272294    0.07535323918470847    0.08075089632231043    0.08103109764695234    0.07682810939192339    
  0.07024130274384156    0.06381170652744761    0.05946172960270657    0.05802164972236941    0.05982270087442263    
  0.06501738514664274    0.07382231114913852    0.08648569119855182    0.10374988001867914    0.12745421344171687    
  0.159701574137033    0.2012902581097889    0.24867963062289483    0.2917081425592763    0.31859147176758656    
  0.3267268451443088    0.31859151658002577    0.29170810071856007    0.24867961774087882    0.2012902956428456    
  0.15970155440456296    0.1274541385846492    0.10374986484985974    0.08648568255452348    0.07382231250453078    
  0.06501739839018625    0.05982269543532283    0.058021641483708614    0.05946173179581806    0.06381171309981891    
  0.07024130143851255    0.0768280870950332    0.08103108369112712    0.08075088822000007    0.07535320826370535    
  0.06624447299547831    0.05597401343015046    0.04716009881798024    0.04144782956180834    0.039484006669531196    
  0.04244440210488415    0.04476391465162503    0.05163115393695053    0.06242183232923838    0.07535320503962417    
  0.08761351537572598    0.09625786802251192    0.09942070068181061    0.09747224026092313    0.09237721157092624    
  0.08671113858068295    0.082686913316268    0.08133109738444667    0.08296552498017479    0.08749887793571247    
  0.09457800460579452    0.10370189950782975    0.11450744821432565    0.12720361439851302    0.14221609711217587    
  0.1594580843842227    0.17744149717000557    0.19335096292013804    0.20421816015842117    0.20803889341648393    
  0.20421811063764478    0.19335094414034903    0.17744150527297906    0.1594580832292473    0.14221609769011942    
  0.12720362913424965    0.11450744705704206    0.10370187677754396    0.09457800931430249    0.08749886962783474    
  0.0829655532860011    0.08133111694622355    0.0826868866420459    0.08671115328607104    0.09237718653486313    
  0.0974722396864855    0.09942071074862577    0.09625787459373969    0.08761345698068725    0.07535321386336435    
  0.062421854372213426    0.051631126249151046    0.04476393677624472    0.04244440210488415    0.04397054646968591    
  0.046459924637173064    0.05390806985363471    0.0658376416504376    0.08075090017107363    0.09625788889320842    
  0.10966104693071893    0.11910065237033318    0.12440158738807117    0.12633569381541407    0.1262593420908482    
  0.12575013838691787    0.12566188666035866    0.12611134812906005    0.12688252537124167    0.1275048770624234    
  0.12762973440976896    0.12739045580856156    0.12710772524377792    0.12690160068391876    0.12697554962314633    
  0.12720154920891347    0.12723791066287293    0.12721046490335333    0.12723070472614526    0.12721044275665339    
  0.12723794047078932    0.12720155681442966    0.12697554861900012    0.1269015999162507    0.12710766992280395    
  0.12739046238588658    0.12762973644160783    0.1275048832085894    0.1268825171477947    0.12611135169488824    
  0.12566190013085196    0.12575013172876323    0.1262593372833269    0.12633568300767645    0.12440157886263074    
  0.11910065108723263    0.10966107770562811    0.09625787479725276    0.08075091099455979    0.06583765777421627    
  0.05390804231933922    0.046459933695560694    0.04397054646968591    0.04383886656172344    0.0462098015773569    
  0.05336510621829409    0.06522413731538394    0.08103107393094593    0.0994207584344408    0.11910061470189956    
  0.1391697242246462    0.15891549808176855    0.17714640485178682    0.1922059141895988    0.20226646172389862    
  0.20605507679520893    0.2030049641999891    0.19312596751620567    0.17800638187163279    0.16027321147872897    
  0.14268339922337248    0.12712769759760656    0.11401503731074764    0.10319718795326571    0.09445799150166932    
  0.08794543375996414    0.08398879295475253    0.08266472177504271    0.08398879211846844    0.08794547153117584    
  0.09445799365220625    0.10319716841655245    0.11401504261305752    0.12712767476766015    0.14268342670015735    
  0.16027316652945678    0.17800636905214756    0.19312592349326585    0.20300493791534424    0.20605507065803919    
  0.20226644024019438    0.19220589640238314    0.1771464676716516    0.15891554520289802    0.13916971982217818    
  0.11910062132347563    0.09942071572185308    0.08103106824807346    0.06522413329204076    0.0533650770352808    
  0.046209820890897736    0.04383886656172344    0.04221811884547161    0.04426479304367067    0.05050798342390837    
  0.061294066797888576    0.07682808018031405    0.0974722460089831    0.12440153533957493    0.15891549942996855    
  0.20133434320035987    0.24814452070914114    0.2898782242346266    0.3158953537250893    0.32431970366738544    
  0.31731455957839444    0.2917387326354288    0.24961822111915843    0.2022697651001875    0.16013715172167597    
  0.12730789202670964    0.10327857858447187    0.08611653378557003    0.07384215367041276    0.06554584899018204    
  0.060824521215198574    0.05928050711914569    0.06082449992417655    0.06554586970367139    0.07384213143183284    
  0.08611649391902754    0.10327858001097764    0.1273078690173629    0.1601371626704477    0.20226968408219437    
  0.2496181644809605    0.2917387158688541    0.317314517198972    0.32431970606157046    0.3158953591121907    
  0.2898782134229883    0.24814452643938453    0.20133439985952525    0.15891550167756846    0.1244016015688779    
  0.0974722311522731    0.07682810648925431    0.061294067953617866    0.05050794277299273    0.04426480972433445    
  0.04221811884547161    0.039760982723538466    0.04140458179710284    0.046509659263125745    0.055746777388988346    
  0.07024129200597824    0.09237719655750752    0.126335645748594    0.17714642845126305    0.24814451081634012    
  0.3294693695415649    0.3875992796410219    0.39912339721777274    0.39416058224050765    0.40106357003737914    
  0.39072883027641186    0.33224805127609786    0.2497747094883311    0.17806522210456316    0.1274291613227595    
  0.0944769333801152    0.07381424715836339    0.06081172860219422    0.05278268412636505    0.04844927171117192    
  0.04706656326650086    0.048449235552469334    0.052782708252045396    0.060811754156081324    0.07381425636669757    
  0.09447694158366887    0.12742908225494928    0.1780651384565453    0.2497746870658752    0.3322479798871775    
  0.3907287246078767    0.4010636025910412    0.39416057894660494    0.39912339740520064    0.387599342664521    
  0.32946935429926394    0.24814454822139395    0.177146471519144    0.12633570411426973    0.09237721539612477    
  0.07024131124518533    0.055746787035011666    0.04650964909917395    0.04140459655167783    0.039760982723538466    
  0.03738993069312195    0.0386609619448399    0.04271214305584655    0.05047461586257561    0.06381172452219959    
  0.08671116065703997    0.12625929919847378    0.19220589406247182    0.2898781474623216    0.3875992944481003    
  0.3986604575682022    0.3193393686529007    0.2737417964350898    0.3209583868670249    0.40211004944040907    
  0.3914201938682002    0.29251627748676773    0.19367435873299163    0.12724767669112538    0.08784940653472777    
  0.06545005344766128    0.0527287425558103    0.045525677270076656    0.04185997408784376    0.04072548121764765    
  0.04185994844956804    0.04552567894803152    0.05272873998884257    0.06545002776242438    0.0878494124412078    
  0.12724760376178199    0.19367435797131727    0.29251621056056687    0.3914201195851211    0.4021101022584395    
  0.3209584455174147    0.27374175388896166    0.3193392596649191    0.3986605388335733    0.387599374829106    
  0.2898782381069082    0.19220589571138605    0.12625930570410573    0.08671115003527717    0.06381171086817586    
  0.05047463475004547    0.0427121320222215    0.038660989534347386    0.03738993069312195    0.03576888897601169    
  0.036794763530274804    0.04014163788527588    0.04691883833497086    0.059461700724706364    0.08268689545633952    
  0.1257500506987824    0.20226643433899325    0.31589528067703404    0.39912343543537565    0.3193393422528737    
  0.16564488235650565    0.10953551188149324    0.16648130085700144    0.3218028571691728    0.4027098365546395    
  0.3188907858851981    0.20415618007235264    0.12700864128138167    0.08378975068293029    0.06066968814729514    
  0.048352534623230886    0.04181890752367486    0.03865510051199566    0.03769594348318285    0.03865507892149053    
  0.041818924398806495    0.048352540277914205    0.06066967356475953    0.08378975191000959    0.12700865854718654    
  0.20415610710492957    0.3188907073020739    0.4027098352462468    0.3218028587613515    0.16648138311763172    
  0.10953552281433986    0.16564478153804288    0.3193392392524116    0.3991233407508635    0.31589542832293366    
  0.20226644853907622    0.12575008097905993    0.08268691093585319    0.05946173778544647    0.046918832673531745    
  0.040141599236303914    0.0367947766024038    0.03576888897601169    0.03535534354070656    0.03629150766712842    
  0.03937798758081728    0.04578306037395017    0.058021672451495025    0.0813311301922139    0.12566183872050887    
  0.20605509169808983    0.3243196618117755    0.3941605762727547    0.27374191428946976    0.1095355844921679    
  0.060830050789828484    0.1099179681745132    0.2751638422162397    0.39657257490190745    0.32656295784921274    
  0.20771035242273744    0.1269282080290043    0.08243251546999796    0.05911702720354454    0.04696433185374548    
  0.04067259829839984    0.03767802285415208    0.036776555822200234    0.037678011032302235    0.040672598145010654    
  0.04696432283620304    0.05911701738558187    0.08243252832315748    0.12692814101506852    0.20771031426127168    
  0.32656286844186705    0.3965726155329811    0.2751638998630153    0.10991805560050798    0.06083005983058949    
  0.1095355147837394    0.27374178637425794    0.3941605413514318    0.32431975422430637    0.2060551423838976    
  0.12566189366141636    0.08133113022226422    0.05802168967414326    0.04578305444196228    0.03937798004019048    
  0.03629153402679175    0.03535534354070656    0.0365709758687427    0.03755858123195067    0.04079854477193151    
  0.04742745382726021    0.05982268510763553    0.08296554006072476    0.12611128786736764    0.20300488309025827    
  0.3173144342253927    0.4010635464111915    0.32095849976140234    0.16648142266620558    0.10991798936006666    
  0.16660840673582414    0.32150524314151285    0.40202725943050566    0.3182757762737036    0.20388592537770167    
  0.12696101574694124    0.08381820974399709    0.06071745580833866    0.048388194885310334    0.04183035000120105    
  0.03864467923187102    0.03767688712765367    0.03864465465979693    0.041830355252175114    0.048388190700450986    
  0.060717442704314395    0.08381818998275228    0.12696098810238618    0.2038859090821473    0.31827561700877965    
  0.4020272407634696    0.3215052989238539    0.1666084588117135    0.10991801052505448    0.16648133324930572    
  0.3209584243179337    0.40106354564311    0.31731454489839245    0.20300492189609426    0.1261113387340712    
  0.08296554678782972    0.05982269327393401    0.04742744807306498    0.040798525011450926    0.03755860872878985    
  0.0365709758687427    0.03994311978501137    0.041108964393675604    0.044859725070565515    0.05217892021974065    
  0.06501739721301306    0.08749889289269831    0.12688246401169903    0.19312592934702053    0.29173868815209414    
  0.39072876508126453    0.4021100867877748    0.3218029848261997    0.2751638577032399    0.32150526456513495    
  0.4015763567973131    0.39025683150614143    0.29155984959492665    0.19321611804500544    0.12715817458382833    
  0.08791706517507726    0.0655501372045555    0.05280145764980171    0.04554627942861304    0.04183548785614993    
  0.04068307724929477    0.04183549635614943    0.04554629190068111    0.05280145477231    0.06555011024813275    
  0.08791707103354973    0.1271581471852108    0.19321607352748363    0.2915597368564734    0.39025672005469875    
  0.40157631690732615    0.3215052767615398    0.27516386213002597    0.32180288070546004    0.40211010160118005    
  0.3907287630630517    0.2917387889788307    0.19312594981546985    0.12688251330339684    0.08749887985877988    
  0.0650174029695483    0.052178958925609635    0.044859709324200345    0.04110898574080265    0.03994311978501137    
  0.046655859118827595    0.04807552377604361    0.05251120697744073    0.060680412476849535    0.07382231024916609    
  0.09457799363831387    0.12750484825502792    0.17800637401383165    0.24961820529492115    0.3322479339468528    
  0.39142012286111655    0.40270990707844107    0.396572620186012    0.40202726586513293    0.3902567842571439    
  0.33107875733772785    0.24878251951361    0.1775350596720048    0.1273194152676058    0.09459459096757802    
  0.07397639918774121    0.06092433967433824    0.052809841134412276    0.0484033330139803    0.04699249092129043    
  0.048403299729479016    0.05280986169398358    0.06092435017497875    0.07397639555165564    0.09459457837603696    
  0.12731933276333263    0.17753503077576938    0.24878248152232768    0.3310786793562048    0.39025668259705676    
  0.40202724854296135    0.3965726096721123    0.4027098882839871    0.39142019567888553    0.33224801618338984    
  0.24961823521336507    0.17800638446716066    0.1275048874060827    0.09457802157182495    0.07382231838205386    
  0.06068040951052861    0.052511220146786206    0.04807553845746763    0.046655859118827595    0.0591759339762151    
  0.060765168314817465    0.06560920366170057    0.0740658742835863    0.08648568797769682    0.10370190423147314    
  0.12762965955730535    0.16027317961850526    0.20226966764736468    0.2497746231726359    0.29251616223598403    
  0.3188907090818226    0.3265628537625712    0.31827574160838645    0.29155982696887134    0.24878248934235334    
  0.2014178533183383    0.15963534969639875    0.12720580591848676    0.10344933477908828    0.08634998348201074    
  0.07399841814115485    0.06557561641831998    0.06074496017000387    0.05915934584233573    0.06074492846939627    
  0.06557560041653832    0.07399840950582029    0.08634998129876227    0.10344935007651056    0.12720576236021203    
  0.15963536848728743    0.20141780600594386    0.24878244097788227    0.2915597528904522    0.31827570398072985    
  0.32656291382025804    0.3188907342646471    0.2925162621765057    0.2497746865440294    0.20226971528176332    
  0.16027320242079884    0.12762970802057924    0.10370186216758524    0.08648568836645985    0.07406587428508679    
  0.06560919109164093    0.06076520276520038    0.0591759339762151    0.0827429536141056    0.0841232911943579    
  0.08822575213245282    0.09490498887065425    0.10374986305766985    0.11450743884353366    0.12739041990661362    
  0.1426833714470272    0.1601371312466199    0.17806513552366235    0.19367431495967855    0.20415619954547695    
  0.20771028058294105    0.20388591534490144    0.19321614117045938    0.17753502666817134    0.15963538582685044    
  0.1422599330546729    0.12705053302597316    0.11423007169103182    0.1035035099683622    0.09466249767801983    
  0.08797186986163288    0.08385609048459261    0.08246990545754077    0.08385607733306358    0.08797185932698778    
  0.09466251770249517    0.10350348159115697    0.11423004174869279    0.12705053198206562    0.1422599542450639    
  0.15963534536949406    0.17753500763842522    0.1932160629191427    0.20388594130278193    0.20771030503887644    
  0.2041561462327015    0.19367437121507974    0.1780651410645805    0.1601371602843987    0.14268339221676782    
  0.12739043373174902    0.11450741578496554    0.10374985134816449    0.09490500691778724    0.08822573801031866    
  0.08412329834651386    0.0827429536141056    0.12725963638596022    0.12731173557894326    0.1275099693967512    
  0.12763815348404195    0.12745415312746836    0.12720361835945682    0.12710768762764793    0.12712772855192564    
  0.12730788056506162    0.12742912690234706    0.12724764933199206    0.12700868496428888    0.12692817995092587    
  0.12696100777997157    0.12715819609654674    0.12731939319136007    0.1272058336824215    0.12705057450392782    
  0.12704983604164308    0.1271380099592338    0.12734648289152548    0.12746104493532304    0.12725572369711327    
  0.12699788256822264    0.12692374020825123    0.12699784291543803    0.1272556954312999    0.1274610362020556    
  0.1273464610499893    0.12713801132484848    0.1270498156783542    0.12705058014534915    0.1272058165026809    
  0.12731939565600925    0.12715817384188077    0.12696104203744585    0.12692819953765874    0.12700868273401641    
  0.12724769498740593    0.12742914162324062    0.12730790838393222    0.12712772372048    0.1271077093403734    
  0.12720366046719944    0.1274542087088481    0.12763817722184567    0.12750995764743328    0.12731174152180427    
  0.12725963638596022    0.20769016317792538    0.20398260219564168    0.19336737355732164    0.17767525642296905    
  0.1597015536930238    0.14221612492909746    0.12690155257831218    0.11401501617377886    0.10327858570468412    
  0.09447693323678118    0.08784941426870024    0.08378974909616314    0.08243247941389471    0.08381823587452689    
  0.08791707582097835    0.0945945785123777    0.10344934818962322    0.11423003627509058    0.1271379801642    
  0.14244071324489146    0.15987639218092936    0.1777676570669087    0.19336430229545915    0.20390271633628188    
  0.207580656979213    0.20390270853472525    0.19336430791899462    0.1777676431726741    0.15987636251306175    
  0.14244072869288008    0.12713798297033946    0.11423005713360322    0.10344932346302733    0.09459455339763324    
  0.08791707794550821    0.08381823171541268    0.08243249009214026    0.08378973884425787    0.08784942974496912    
  0.09447695073833239    0.10327859041069663    0.11401503507260835    0.12690156713550463    0.14221610675115925    
  0.1597015631778842    0.1776752699898822    0.19336730437705016    0.2039826482243514    0.20769016317792538    
  0.3257623553316278    0.3178108304170071    0.2913332313262133    0.2486531240375177    0.20129028568768523    
  0.15945807398279965    0.12697550940110208    0.10319718080873515    0.08611649726527287    0.07381423075710905    
  0.06545000899900384    0.06066969573453594    0.05911698462868953    0.06071745926132017    0.0655501180790728    
  0.07397640461709923    0.08634997641827025    0.10350351357815331    0.12734645067833186    0.15987638249959685    
  0.20173247708283462    0.24909386580850496    0.2917518274950501    0.3181991957404993    0.32613583975223026    
  0.3181990717191653    0.29175180082438684    0.2490938001040747    0.2017324567793602    0.15987634676940068    
  0.12734643283711158    0.1035034951405156    0.08634996652023376    0.07397637595334387    0.06555012308097229    
  0.06071746342674407    0.05911699493325897    0.060669687018366905    0.06545002671513646    0.07381424879029916    
  0.08611652100888816    0.10319721798052063    0.1269755285765799    0.15945808180489063    0.2012903391883799    
  0.24865320905019936    0.2913331961429217    0.31781096985515717    0.3257623553316278    0.39520285733787014    
  0.4010601009072798    0.3897405275107488    0.3308690776783856    0.24867961891185922    0.17744149681776428    
  0.12720154817186347    0.09445798025217515    0.07384214604756344    0.0608117402861259    0.05272875530024441    
  0.04835255875607891    0.04696431286263905    0.04838821601413243    0.05280147821102197    0.060924361756678674    
  0.07399844722021731    0.09466253173630122    0.12746103622769886    0.17776771547909492    0.2490939244466514    