#     DFTpy    
  CRYSTAL 
    
  PRIMVEC    
  8.619134672876385    6.874791802496552e-07    1.1349678663448276e-06    
  6.874793435875861e-07    8.619137628567206    1.1473809124806897e-06    
  1.1349680115048277e-06    1.1473809388255172e-06    8.619137031142676    
  PRIMCOORD    
  16    1    
  Si    1.271841803496602    7.347294454790214    3.03772714232322    
  Si    7.347293474043722    1.2718445399133982    5.581408652999541    
  Si    1.2718430991496403    1.2718434174324758    1.2718438650390607    
  Si    3.0377316039127593    3.037732865418692    3.0377325480401467    
  Si    7.347291383986884    3.0377273542945287    1.2718424392733025    
  Si    1.2718415192651944    5.581413496232571    7.34729438757109    
  Si    3.037726216895777    1.2718448006702967    7.347295081153073    
  Si    5.581408339388896    7.347296447451084    1.2718425428308193    
  Si    5.581407903912045    3.037733372666184    7.34729909562133    
  Si    3.0377284643514195    5.581405925367527    1.2718383608526358    
  Si    5.58140504532831    5.5814102127779135    5.581408534948348    
  Si    7.347293718166897    7.347297778997296    7.3472961703721875    
  Si    3.037731941796985    7.347301680413065    5.581408839425593    
  Si    5.581403769730934    1.2718378886680446    3.0377296227824053    
  Si    7.3472967995890865    5.581409424652602    3.0377327523507076    
  Si    1.2718382604396428    3.0377306668084954    5.581405853211148    
  BEGIN_BLOCK_DATAGRID_3D    
  3d_datagrid_density    
  BEGIN_DATAGRID_3D#0    
  37    37    37    
  0.0    0.0    0.0    
  8.619134672876385    6.874791802496552e-07    1.1349678663448276e-06    
  6.874793435875861e-07    8.619137628567206    1.1473809124806897e-06    
  1.1349680115048277e-06    1.1473809388255172e-06    8.619137031142676    
  0.020679416965692716    0.021476078506232503    0.02368014387834982    0.026747974869552573    0.02980155211816798    
  0.03192127772311221    0.03266285139949816    0.03230301673509459    0.031605217925525425    0.03128453916768565    
  0.031605262089016685    0.03230305425321098    0.03266296875477988    0.031921340052917455    0.029801640526677338    
  0.026748014697673697    0.023680272005603405    0.021476126697680568    0.020679537874555138    0.02147616025855753    
  0.023680376122735408    0.026748149803089556    0.02980185855576033    0.03192148501126016    0.03266314582644734    
  0.03230316725303419    0.031605406114000804    0.03128457392376437    0.03160534554046717    0.03230307449110746    
  0.03266303455774972    0.03192138761142218    0.02980167434311072    0.0267480285701563    0.02368023428709086    
  0.021476082150008156    0.020679416965692716    0.021476064063023124    0.024988249329323704    0.030350435419594646    
  0.036841301707651555    0.042959391720922044    0.04703638264468954    0.048307216197474565    0.047405363596897516    
  0.04586278326489974    0.04514587893823862    0.04586282942098359    0.04740545094584018    0.04830733502602579    
  0.047036530027018235    0.04295950190953993    0.036841446084181134    0.030350529912068193    0.024988390612402003    
  0.021476120474976334    0.019851971107997527    0.019752178028613097    0.02062975998330857    0.02186423192093672    
  0.02285794965380327    0.023292144211846794    0.023211395583566566    0.022952782410953453    0.022836043537108747    
  0.022952773640631526    0.023211337547336383    0.023292110716973968    0.02285787458804465    0.02186415921468312    
  0.020629644753430057    0.019752123254696326    0.019851862350187748    0.021476064063023124    0.023680162953713925    
  0.030355233898391572    0.039929850610347255    0.05137687915904941    0.06214281896261131    0.06927102849918441    
  0.07135283790639939    0.06954681918699444    0.06667462540699062    0.06536742503073494    0.06667475073079693    
  0.0695469160535934    0.07135307130839687    0.06927123717423685    0.06214303132682268    0.051377025880284345    
  0.0399300313794462    0.030355315669057862    0.02368027407939708    0.019754737199524648    0.01790598881623442    
  0.017400773314291716    0.017602125372720538    0.01798991158255241    0.01825479523155677    0.018301884076796372    
  0.0182308803787093    0.018193417636004336    0.018230861901134928    0.01830185517599394    0.018254752751877972    
  0.017989878804051673    0.017602050994469993    0.017400729297797277    0.01790592416372701    0.019754697338413032    
  0.023680162953713925    0.026747956291857382    0.03677606191214694    0.051272894876019035    0.06881344788955959    
  0.08545304421055039    0.09652761601154089    0.09971769174462387    0.09676649460392704    0.0922226505987279    
  0.09019165795886035    0.09222278249235401    0.09676667065525911    0.09971801870455507    0.09652803576582876    
  0.08545330105644607    0.06881373958062924    0.05127307443014626    0.036776215628204906    0.02674802815198535    
  0.020707189324916886    0.01752204132689239    0.016143465527083428    0.015788043167309522    0.01587226894565351    
  0.016048257974299283    0.01615304573310167    0.01617173343265529    0.01616989223664981    0.016171751421041717    
  0.016152991152439043    0.016048251228565343    0.015872227340052714    0.0157880148256573    0.016143399997104436    
  0.017522022306741682    0.020707097013410232    0.026747956291857382    0.029801561812175963    0.04264229214789419    
  0.06153497373057753    0.08474865804835043    0.1070189929413768    0.12197389603148942    0.12632804761160882    
  0.12241165296270436    0.11635289438485269    0.11365422184740118    0.11635308184912746    0.1224118136815259    
  0.12632840480643348    0.12197430126808163    0.10701943485789814    0.08474893191859813    0.061535238643751995    
  0.04264243523152293    0.029801701791437107    0.022169350541804352    0.018134590981100932    0.016314409392875172    
  0.01574160106104307    0.01574184045171664    0.015904434815662477    0.016035534347465297    0.016086528218999217    
  0.016096430942009195    0.016086529026833198    0.01603557769369908    0.015904436750318083    0.015741878878622436    
  0.015741563634434644    0.016314422355143122    0.018134527435318567    0.022169316011478604    0.029801561812175963    
  0.031921256521569186    0.04602949209901238    0.06708623150409541    0.09330978429003194    0.118804977030428    
  0.1360779788919489    0.14119423243908152    0.13686203415175538    0.13004642879047731    0.1269709626946426    
  0.13004650266401907    0.13686227907710763    0.14119462419512105    0.13607846110940977    0.11880533636964258    
  0.09331017326001363    0.0670864679196969    0.046029685985993746    0.031921331212386966    0.023711016063042743    
  0.019529614250352295    0.017763182484791803    0.017321423534406043    0.01745902192822964    0.017706153670173783    
  0.01784797436693986    0.01787023646297791    0.017863835612492003    0.017870271005913232    0.017847976556935825    
  0.01770618980838482    0.01745903807169999    0.01732144342622022    0.01776315756981136    0.019529626714719216    
  0.023710933414568394    0.031921256521569186    0.032662934946921574    0.045858144321466496    0.06584847186713207    
  0.09099768970656884    0.11565354573550835    0.13254759475941785    0.13774636843994334    0.1337791685581023    
  0.12731802809761847    0.12437956681024054    0.1273181240068204    0.13377939058486985    0.1377468461459075    
  0.1325480390468737    0.11565397110903876    0.09099795054670433    0.06584875674575916    0.04585825699818079    
  0.032663064757549154    0.025239772653007007    0.021791603335246004    0.02072545062503193    0.020906644873380103    
  0.021493224595400835    0.021936721560927075    0.02206460263369198    0.021994354530508617    0.02194145692070734    
  0.021994407106353076    0.022064633206159225    0.021936774379297072    0.021493298431980133    0.020906641856016834    
  0.020725463918817903    0.02179156268287952    0.025239731265935206    0.032662934946921574    0.03230293350180875    
  0.042599755008720167    0.058641790714270454    0.07903919178786971    0.09918518313591906    0.11318608656692354    
  0.11776717859334387    0.11473781400117275    0.10956279615289671    0.10721879818293495    0.10956291959400191    
  0.11473801184353434    0.11776750381531113    0.11318653599252995    0.09918544275547349    0.07903945771290655    
  0.058641988161003716    0.0425999466863369    0.03230300795718431    0.02701223741794735    0.025317853712737953    
  0.025854261002409673    0.02743562922344519    0.028973924209213405    0.02978706589197399    0.029818848326564024    
  0.02948295540258642    0.02930082174908784    0.02948300757834952    0.029818934663837726    0.029787185168343094    
  0.028973996701021496    0.027435702024102507    0.025854244997932607    0.025317877483011463    0.027012163121850122    
  0.03230293350180875    0.0316052906469466    0.037838199314130364    0.048482747938264105    0.06242802179799425    
  0.07644321040458152    0.0863655626916008    0.08986026785168688    0.0879823352283162    0.08448359871879688    
  0.08289973794535066    0.08448366065075448    0.0879824333885943    0.08986054584808505    0.08636583252851741    
  0.07644342447319019    0.06242817944390757    0.04848297113631188    0.037838303121477616    0.03160544292269276    
  0.029523823209256693    0.030747206107512647    0.03415958291740478    0.038313511867939555    0.041588835886010554    
  0.04303836417458274    0.042792089091863036    0.041854632139570115    0.04138876639967316    0.04185469416771754    
  0.04279226503666883    0.04303850339973039    0.04158894814588556    0.038313510125509445    0.03415959064652177    
  0.03074715597532444    0.029523753061013614    0.0316052906469466    0.031284447163053085    0.0331764712378327    
  0.038580376208130866    0.0464944608729934    0.05481216860970553    0.060892755830423625    0.06326324706101244    
  0.062401074906041916    0.06041430091473594    0.05948635190176646    0.0604143429644222    0.06240115782702522    
  0.06326339493752586    0.060892943527287156    0.054812241912051356    0.04649460724243809    0.03858049364716776    
  0.033176620873362095    0.0312845522012894    0.03317668747720297    0.038580526630931256    0.0464947344874051    
  0.054812264292575234    0.06089286544366117    0.06326316092074538    0.06240103052322623    0.06041408262580861    
  0.05948626693978366    0.060414199288278514    0.06240111861370194    0.06326335984347634    0.060892950124298746    
  0.054812251304115316    0.046494618397007914    0.03858046337680491    0.033176501883557766    0.031284447163053085    
  0.03160538285854486    0.029523742024414747    0.030747154053348193    0.034159529216480175    0.03831347400857798    
  0.041588871545044453    0.043038497371625344    0.04279226466799797    0.04185475152453164    0.0413889162437243    
  0.04185478160161726    0.042792243300173595    0.04303857681900599    0.04158893204795104    0.03831356931091131    
  0.034159580163578715    0.030747304965825343    0.029523866261121773    0.03160559792715181    0.03783841055934701    
  0.04848327503973349    0.06242840964498618    0.07644386551259098    0.08636586594372156    0.08986068719931072    
  0.08798227294694541    0.08448370412535172    0.08289955096970901    0.08448379893241312    0.08798237745308016    
  0.08986073431550448    0.08636583416925168    0.07644360229202612    0.062428212998401254    0.048483002679228795    
  0.03783823657430937    0.03160538285854486    0.03230294803361332    0.0270122841834106    0.02531782050823719    
  0.025854280706262944    0.027435609319254657    0.02897400648520582    0.02978711368375173    0.02981902556941632    
  0.029483065165330044    0.02930097242090905    0.029483059830213605    0.02981901811427469    0.02978717133227258    
  0.02897410103597806    0.027435656682561607    0.025854392406751414    0.02531793626069448    0.027012457576986063    
  0.032303172813860234    0.042600407397744296    0.05864234595315831    0.07904030729907593    0.09918605502496419    
  0.11318736491215436    0.11776767689634862    0.11473848616038217    0.10956286275275147    0.10721916718126898    
  0.1095628576158095    0.1147384343707491    0.11776753135829256    0.11318696724222183    0.09918555671913803    
  0.07903974432463917    0.05864195808112297    0.04260001100128244    0.03230294803361332    0.03266316969970718    
  0.02523970677321593    0.021791659663976296    0.0207253900746233    0.020906737916297078    0.021493212503498015    
  0.021936837269336942    0.02206462614797316    0.021994495975386646    0.021941479613790428    0.021994515311058054    
  0.022064619764879702    0.021936905987922355    0.021493275248826892    0.020906813173676264    0.020725454688556886    
  0.021791828339764598    0.02523986558918298    0.03266353337581276    0.045858676729746875    0.06584977796127353    
  0.09099887167267867    0.11565556209389526    0.13254889646109916    0.1377480179951814    0.1337798858358032    
  0.1273189909661826    0.1243796769511284    0.12731886392557548    0.13377945070728595    0.13774747413366917    
  0.13254817984535833    0.11565452321697126    0.09099803011910158    0.06584902809741176    0.04585817317139751    
  0.03266316969970718    0.03192123958069065    0.02371112818757734    0.019529535232091538    0.017763275396302795    
  0.017321375100672158    0.017459112072561688    0.01770610699745867    0.01784808799684151    0.017870214028049825    
  0.017863956111461757    0.01787021854466304    0.017848105544887492    0.01770613989562932    0.01745919203036969    
  0.017321385314434265    0.0177633603535331    0.01952966038522188    0.023711384172825256    0.031921591826545075    
  0.04603053625864408    0.06708727796945915    0.09331192767076382    0.11880675921149916    0.13608054544774728    
  0.14119573211017197    0.13686392393820196    0.13004715895142482    0.12697213270765026    0.13004688438962062    
  0.13686332576302807    0.1411949538475279    0.13607936047313338    0.11880552261143558    0.09331071514349461    
  0.06708643319702813    0.04602991824296109    0.03192123958069065    0.029801888488028797    0.02216925176727164    
  0.01813467470000839    0.01631433681500785    0.015741672699666063    0.015741768249122472    0.01590454159794004    
  0.016035499354236635    0.016086631018913954    0.01609638246714848    0.016086656513149417    0.016035494706984975    
  0.015904618865075985    0.01574181887237199    0.015741758131165635    0.01631440811090683    0.018134860797777045    
  0.02216946484136926    0.029802293854658945    0.042642905841747    0.061536613090245496    0.08475016625370191    
  0.10702173755170072    0.12197578948047624    0.12633057295753597    0.12241285328966647    0.11635460604309569    
  0.11365480434643502    0.11635428129183464    0.12241218344493988    0.1263294646937995    0.12197453802905397    
  0.10702023512721177    0.08474900146793728    0.061535634219321234    0.04264232479021325    0.029801888488028797    
  0.026747889177713355    0.020707327743060448    0.017521895911234167    0.016143554586703794    0.015787892294559003    
  0.01587233206789412    0.016048121469620202    0.016153143692593838    0.016171649764117557    0.016170046137166414    
  0.0161716878287401    0.016153203865447174    0.01604823971323253    0.01587248277953708    0.015787999490197224    
  0.0161436975156349    0.017522074497954346    0.020707586177569987    0.026748232934430346    0.03677709112030797    
  0.05127380688381041    0.0688154205577404    0.08545464851559094    0.09653010907005516    0.09971919565088773    
  0.09676846442604405    0.09222344726049853    0.0901929518382335    0.0922231304276112    0.09676769058997663    
  0.09971818346703679    0.0965288816017429    0.08545339219288722    0.06881428884871983    0.05127300462557555    
  0.03677647702949739    0.026747889177713355    0.023680454080862057    0.019754581838518026    0.017906080505102513    
  0.01740060424769169    0.017602184562392112    0.017989707746459683    0.018254872743724223    0.018301725985050872    
  0.018231000304634558    0.018193324874909107    0.018231077409735497    0.01830182851305871    0.018255062862174234    
  0.017989923862200094    0.0176023870413993    0.01740076422710782    0.017906322800446697    0.01975481032644387    
  0.02368080459654232    0.03035560289423501    0.03993105980718745    0.05137774128973477    0.06214462589682403    
  0.06927218676819108    0.07135466496720261    0.0695476074523214    0.06667595339534954    0.06536775652959236    
  0.06667566505406008    0.0695470454869011    0.07135385662339142    0.06927127548039672    0.06214363137118827    
  0.05137695769193234    0.039930396046447734    0.030355177301525156    0.023680454080862057    0.02147593597926517    
  0.01985208919619895    0.01975195086610676    0.020629824807723043    0.0218639678194978    0.022857978842388278    
  0.023291891108183672    0.023211477862929878    0.022952610913124116    0.022836244592284817    0.022952725563357337    
  0.023211730525298853    0.02329221614043469    0.022858379156512926    0.02186428012815291    0.02063013436051705    
  0.019752224857444697    0.01985238715293512    0.021476215481835263    0.024988974946409344    0.03035080114491697    
  0.036842405293918676    0.04296003062701603    0.04703773568703374    0.048307799981120794    0.047406483732105945    
  0.04586308547483798    0.04514668918431018    0.04586288798572753    0.04740609444514474    0.048307287963324536    
  0.04703708410190756    0.042959407129783765    0.03684181708577315    0.030350382281226357    0.02498857381703048    
  0.02147593597926517    0.020679668371940907    0.021475947392445006    0.023680413207858703    0.0267478145404797    
  0.0298018257058253    0.03192107082988496    0.03266313108176527    0.032302837341827574    0.03160554937061907    
  0.03128449644263305    0.03160577957824676    0.03230325118884864    0.03266373434868556    0.031921714382963436    
  0.029802440144067476    0.026748276649549253    0.023680872254603302    0.02147625525862303    0.02067999139722367    
  0.021476228386503794    0.023680833158369954    0.0267482251984237    0.029802421183973922    0.03192158186606184    
  0.03266370830485539    0.032303208133532914    0.031605868952100664    0.031284538107611295    0.03160576038816808    
  0.032302970779431416    0.032663373623850134    0.031921236437000546    0.029801978126545375    0.026747868402156982    
  0.023680487765130143    0.021475932127302463    0.020679668371940907    0.02147594094272821    0.02498857209540825    
  0.03035031506909339    0.036841667099765406    0.042959223359177276    0.047036713100412894    0.04830697754271472    
  0.047405715354896204    0.04586264785697991    0.045146451987321506    0.04586300956352891    0.04740645939159127    
  0.04830797106293838    0.04703784582635468    0.04296019362493407    0.0368424975733019    0.03035092078444828    
  0.02498904321493353    0.02147624526668251    0.019852403261075357    0.019752188248229757    0.020630149189596242    
  0.021864252160633958    0.022858375146674895    0.023292127813458227    0.02321177652999654    0.022952721579621558    
  0.02283634124258296    0.022952665304047663    0.023211608848585176    0.02329196770906699    0.022858132063951604    
  0.021864016847344656    0.020629897529055762    0.019751976840856233    0.019852108742610265    0.02147594094272821    
  0.023680465173219766    0.03035516227849858    0.03993029042573744    0.05137676913829539    0.06214324533978734    
  0.06927077661643503    0.07135322680246624    0.06954652703002155    0.06667515096440546    0.06536750429345477    
  0.06667577858447996    0.06954767151791372    0.07135483950941984    0.06927248648540267    0.062144844466783034    
  0.05137798953912512    0.039931228264520315    0.03035570110296073    0.023680861562706806    0.01975480335529567    
  0.017906335231091704    0.017400744030522546    0.017602419567807382    0.017989863685404037    0.018255101557488235    
  0.018301799145469148    0.018231139613418493    0.018193308497483317    0.018231103356525537    0.018301707802492483    
  0.018254965153189393    0.01798973450502734    0.01760226544201107    0.017400603392889118    0.017906142552074806    
  0.019754583489873138    0.023680465173219766    0.02674789676758379    0.036776507684425815    0.05127286717668394    
  0.06881402620422619    0.08545294288071525    0.09652811585061698    0.0997173658602527    0.09676684879017289    
  0.09222249109357296    0.09019251028946323    0.09222330291585137    0.09676850098689746    0.09971956109271433    
  0.09653055006685286    0.08545502593126797    0.06881572751659742    0.05127400602393237    0.03677721535117032    
  0.02674826650835921    0.02070763751304998    0.017522034060605707    0.016143734079432454    0.015787989049103467    
  0.01587250074439693    0.016048169985761838    0.01615326064931114    0.016171637643464087    0.01617009795980296    
  0.016171634710093412    0.016153180193231025    0.01604810778764466    0.015872413347783346    0.015787885618639516    
  0.01614358276047696    0.017521916744695214    0.020707370717269136    0.02674789676758379    0.029801938063789408    
  0.042642317664041786    0.06153556576986466    0.08474871876632041    0.10701962944414073    0.12197362537599181    
  0.12632838278697459    0.12241117997597212    0.11635335003083754    0.11365429318056301    0.11635435828467522    
  0.1224130459545254    0.12633098021575542    0.12197640714113123    0.1070221986865816    0.08475057451736495    
  0.06153691622722889    0.04264307266364316    0.02980241881149417    0.022169461546678388    0.01813490577649621    
  0.016314361217201704    0.015741821516265807    0.01574177891297693    0.015904642816478118    0.016035449256918816    
  0.016086720974930312    0.016096316210540737    0.016086692350152892    0.01603544116943021    0.015904592851921265    
  0.01574173036672179    0.015741728453277943    0.01631429099540871    0.018134754693654057    0.022169242193295687    
  0.029801938063789408    0.03192126475129509    0.046029993867865236    0.0670863434590534    0.09331053577222352    
  0.11880497759143521    0.13607842968212813    0.14119377011450002    0.13686219931161242    0.13004600706028446    
  0.12697151413446728    0.13004691471136462    0.1368640154888295    0.14119626059030704    0.136081190322996    
  0.11880731732098096    0.09331237252366127    0.06708757062441573    0.04603077537425949    0.031921633388413716    
  0.023711427282024612    0.019529632569726674    0.01776342101457753    0.017321370014678972    0.017459237024317405    
  0.01770608205298216    0.017848165681144324    0.017870173180272834    0.01786400030761063    0.01787015274094613    
  0.01784811023892811    0.017706039414861263    0.017459176080522557    0.017321308990751724    0.017763327219322902    
  0.01952953757645296    0.023711197710851836    0.03192126475129509    0.032663261126791195    0.045858237284879706    
  0.0658490188710486    0.09099781675245508    0.11565415937133336    0.1325473757000453    0.13774651523282208    
  0.1337785592228479    0.12731805505996183    0.12437920104950591    0.1273188134796534    0.1337800488072773    
  0.13774855705425024    0.13254952236765638    0.11565610892849762    0.09099926109522899    0.0658500771026606    
  0.04585877621618313    0.03266365599059958    0.025239876543662745    0.021791894535269123    0.02072541767513773    
  0.020906873054215243    0.021493191403980337    0.021936933862988815    0.022064543363617184    0.0219945474668991    
  0.021941376863047257    0.021994536514224495    0.022064521783041715    0.021936872760196777    0.02149315908439154    
  0.020906754539458925    0.020725342580195483    0.021791745778222443    0.025239704307114093    0.032663261126791195    
  0.032302959305002994    0.04260012903375556    0.0586419409715241    0.07903966167478105    0.0991851902428168    
  0.1131863530177512    0.11776680875645296    0.1147376699332751    0.10956223570921492    0.10721877487856286    
  0.10956276824968016    0.11473862985259967    0.11776803258204008    0.11318782177306368    0.09918645542173986    
  0.07904066776321376    0.0586425759642015    0.04260058621655156    0.03230322690438787    0.027012548611873625    
  0.025317896571978565    0.02585447056934006    0.02743563056178631    0.02897417238657727    0.02978705554241396    
  0.029819076954026476    0.02948292560941639    0.029300987254829713    0.029482914954732563    0.029819017370772374    
  0.02978702369885097    0.028974048410136892    0.0274355413967131    0.02585434774433196    0.025317804588435387    
  0.027012354430979966    0.032302959305002994    0.03160548407887178    0.037838279599698696    0.04848305730427369    
  0.0624281686798206    0.07644348805134102    0.08636547352272142    0.08986023949257259    0.0879818735391629    
  0.08448337858132722    0.08289930242808902    0.0844836387691754    0.08798235139387119    0.08986095874477898    
  0.08636616925831272    0.07644412750549007    0.06242862199637001    0.04848352700742734    0.03783852081988657    
  0.03160573300307992    0.02952387547134414    0.030747388766672188    0.034159598624396104    0.03831373907576278    
  0.041588888702961194    0.04303864026161118    0.042792130398342995    0.04185484338422135    0.041388729642006114    
  0.04185477314646705    0.042792088484284216    0.04303849997539654    0.041588717175147276    0.03831348570872996    
  0.034159430390820096    0.03074723493224476    0.029523732925347348    0.03160548407887178    0.0312844401711057    
  0.0331766053191597    0.038580463420932354    0.04649464086787674    0.05481221718097406    0.06089279624571531    
  0.06326304098442294    0.0624008932418973    0.06041396033526005    0.05948612223605172    0.060414091694888594    
  0.06240109652448813    0.06326332896373106    0.06089310506586735    0.05481239778626354    0.046494891116690855    
  0.03858064400091853    0.033176803472939775    0.03128460940197879    0.03317677487940053    0.038580520139971965    
  0.04649482906649286    0.054812301670915616    0.0608930822165686    0.06326326781810956    0.0624012600897357    
  0.06041414195783649    0.0594863620719491    0.06041407174805242    0.062401062968861866    0.0632630773336445    
  0.06089279257823563    0.054812010468730715    0.046494511672193886    0.03858034394976549    0.03317654558171482    
  0.0312844401711057    0.03160538453848185    0.02952379058471633    0.03074721863222159    0.0341595977896282    
  0.03831353014484947    0.041588846216743545    0.04303842006713915    0.042792115563834304    0.04185454250434208    
  0.04138870488304715    0.041854606839626905    0.04279208925424275    0.043038489588314875    0.04158889896460244    
  0.038313623982068286    0.034159663141782495    0.030747359212335384    0.029523889419290385    0.03160560246668102    
  0.03783838142358561    0.04848323393135873    0.062428341733225375    0.07644383919669245    0.08636587386801547    
  0.0898607755292636    0.08798237099643802    0.0844837713410051    0.08289948214336612    0.08448366858611202    
  0.0879820781378693    0.0898603787173706    0.08636542672989625    0.07644328637840635    0.06242797051512375    
  0.04848286742902036    0.03783818235076734    0.03160538453848185    0.032302959177920414    0.027012256071870196    
  0.02531788894803554    0.02585428330201835    0.027435711255099107    0.028973969069590096    0.02978708968499272    
  0.029818891137090443    0.02948296148025696    0.029300810499817278    0.029482978995870174    0.02981885034203728    
  0.029787113919831076    0.02897398526196828    0.027435673157465416    0.02585433785913503    0.025317925358958243    
  0.027012376181842063    0.03230311180126109    0.04260021258954195    0.058642160816189066    0.07903995953964545    
  0.09918581253629738    0.11318706410116053    0.1177676154426933    0.11473831888819234    0.10956277975556855    
  0.10721894632808752    0.10956262731887245    0.11473790831944894    0.11776707019181765    0.11318631933163043    
  0.0991851087111508    0.07903933806549206    0.05864180186930177    0.04259987283983636    0.032302959177920414    
  0.03266301951831378    0.02523975471744177    0.02179158344630148    0.020725459359909416    0.02090670855276463    
  0.021493275111471748    0.02193673331580206    0.022064637828895194    0.021994348939130142    0.021941464380283056    
  0.021994367184429695    0.02206460215396289    0.021936748612655106    0.021493254295199812    0.020906684362601353    
  0.020725459182152014    0.021791690711519984    0.025239832570635595    0.032663279896532185    0.04585847385230617    
  0.0658492459856975    0.09099842483706073    0.11565474545962548    0.13254843245256645    0.13774740436401198    
  0.13377956349448208    0.12731847553589443    0.12437941112666479    0.1273182365044075    0.1337790732171115    
  0.13774672803069046    0.13254769319392215    0.11565381630444642    0.09099771773486463    0.06584869226024274    
  0.04585814794120282    0.03266301951831378    0.03192128681160434    0.02371096542055197    0.019529613259491454    
  0.01776318421786651    0.017321444089276147    0.017459037057524093    0.017706192036349454    0.017847975659439873    
  0.017870258315478386    0.017863824905255905    0.01787026899166239    0.01784793712423549    0.01770614999469584    
  0.01745903871577528    0.01732142597739556    0.017763221469147848    0.019529671099124513    0.023711144678215685    
  0.03192148731918887    0.04603005020217805    0.06708688525358872    0.09331096796235727    0.11880605495264984    
  0.1360793204501003    0.14119513162284966    0.1368629409459696    0.13004675480517666    0.12697138841690994    