#     DFTpy    
  CRYSTAL 
    
  PRIMVEC    
  3.4284827586206896    0.0    0.0    
  0.0    3.4284827586206896    0.0    
  0.0    0.0    3.4284827586206896    
  PRIMCOORD    
  4    1    
  Si    0.0    0.0    0.0    
  Si    0.0    1.7142413793103448    1.7142413793103448    
  Si    1.7142413793103448    0.0    1.7142413793103448    
  Si    1.7142413793103448    1.7142413793103448    0.0    
  BEGIN_BLOCK_DATAGRID_3D    
  3d_datagrid_density    
  BEGIN_DATAGRID_3D#0    
  15    15    15    
  0.0    0.0    0.0    
  3.4284827586206896    0.0    0.0    
  0.0    3.4284827586206896    0.0    
  0.0    0.0    3.4284827586206896    
  0.053415319379343566    0.1039036119103039    0.2852153099737702    0.43568070757054456    0.39849062519323203    
  0.312912412820849    0.2600441164513276    0.24361197216821395    0.2600441131180688    0.31291237847679904    
  0.3984906687975868    0.43568073031332477    0.28521531644961223    0.10390361294097036    0.053415319379343566    
  0.10390360086784116    0.16479176147459912    0.33956223636358546    0.4508694572475582    0.4025622725364267    
  0.32279671652799424    0.27485197696341085    0.26004407443076777    0.2748519944019776    0.32279675351807813    
  0.40256225034743215    0.45086944784157995    0.3395622307113725    0.1647917459360083    0.10390360086784116    
  0.2852153044016479    0.33956223057520385    0.443126912063762    0.46801296491714833    0.41265543895542545    
  0.3550565752207596    0.3227967599609762    0.31291239926352626    0.3227967546771919    0.3550565814313459    
  0.4126554778660524    0.46801293661290283    0.44312692333322545    0.3395622334268454    0.2852153044016479    
  0.4356807023512958    0.45086950462920566    0.4680129797023445    0.4563760768073829    0.43099530391574686    
  0.4126554841996173    0.4025622769655478    0.3984906203354305    0.40256226409159385    0.41265543750747785    
  0.43099530551607135    0.45637608991932266    0.4680129849158258    0.4508695198207115    0.4356807023512958    
  0.3984906213892886    0.4025622633455106    0.41265544605102283    0.43099534596782607    0.4563761043398359    
  0.4680129312262462    0.45086950798373016    0.435680694555747    0.450869458464997    0.4680129599032716    
  0.456376127478488    0.4309953271425422    0.41265546366706013    0.40256227473091566    0.3984906213892886    
  0.31291240398600134    0.3227967604549399    0.355056601472581    0.41265542563929686    0.46801298344774334    
  0.44312691223914796    0.3395622439156389    0.2852152917141594    0.33956227676545403    0.4431269123261165    
  0.4680130033075201    0.41265543600705257    0.35505660739981776    0.32279672845611646    0.31291240398600134    
  0.2600441093160447    0.27485196792081473    0.32279674650906937    0.4025622693068392    0.45086953445851247    
  0.3395622304990471    0.16479175601810805    0.10390359543040593    0.16479174700345053    0.3395622049884045    
  0.4508694771141847    0.40256225118203315    0.32279674999142993    0.27485196581837273    0.2600441093160447    
  0.24361199276885132    0.2600440846460602    0.31291240742015475    0.3984906136098532    0.43568074156723885    
  0.28521528008290153    0.10390363267973225    0.05341531694724098    0.10390361858047496    0.2852152685743829    
  0.43568071532538677    0.39849061116663387    0.31291239518004255    0.2600441223657641    0.24361199276885132    
  0.2600440843594896    0.2748519957124751    0.3227967418905039    0.4025622609643472    0.4508695038446767    
  0.3395622333690492    0.16479175663348547    0.10390360218883268    0.1647917672411599    0.3395622323539996    
  0.45086943464695417    0.40256226642273657    0.32279674435354666    0.27485195877483043    0.2600440843594896    
  0.3129124147597831    0.3227967498204926    0.35505661380287107    0.4126554402169685    0.4680129504200642    
  0.44312690656480197    0.33956226835418585    0.28521528149559655    0.33956223887544873    0.4431268726456738    
  0.46801300241833144    0.4126554338444262    0.3550566033824882    0.32279678266672773    0.3129124147597831    
  0.3984906288857932    0.4025623052670125    0.4126554132172377    0.4309953330114614    0.4563761347512315    
  0.4680129655163355    0.45086945690471986    0.43568070132647657    0.4508694570679306    0.4680129188919422    
  0.4563761288226882    0.43099532025902704    0.4126554453883867    0.402562259046555    0.3984906288857932    
  0.43568075727700284    0.4508694471686182    0.468012972620711    0.4563761102364931    0.43099532627098747    
  0.41265543074885425    0.4025622609948799    0.39849060503853867    0.40256226830477937    0.4126554001381061    
  0.43099533290960795    0.4563760960766468    0.4680130163316197    0.45086949015983546    0.43568075727700284    
  0.28521529901876885    0.3395622518791839    0.4431269404170176    0.4680129466734053    0.4126554260378723    
  0.35505661108738096    0.32279675115749734    0.3129123808793685    0.32279676686069825    0.355056596633439    
  0.4126554595837918    0.4680128983202385    0.4431269307741995    0.33956222904099675    0.28521529901876885    
  0.10390361927421754    0.1647917542612718    0.3395622242806328    0.45086941321315305    0.40256226250243865    
  0.3227967166084553    0.2748519866083888    0.26004407890062153    0.27485197970753955    0.32279671315900743    
  0.4025622745841411    0.450869438794162    0.33956225108577104    0.16479176304732204    0.10390361927421754    
  0.053415319379343566    0.1039036119103039    0.2852153099737702    0.43568070757054456    0.39849062519323203    
  0.312912412820849    0.2600441164513276    0.24361197216821395    0.2600441131180688    0.31291237847679904    
  0.3984906687975868    0.43568073031332477    0.28521531644961223    0.10390361294097036    0.053415319379343566    
  0.10390362613684782    0.16479173445169792    0.33956225232076886    0.4508694572923362    0.40256228174620534    
  0.322796756346665    0.2748519824212337    0.2600440986351163    0.2748520003793419    0.3227967028144012    
  0.4025622852310826    0.4508694526766647    0.3395622597559848    0.16479174896286392    0.10390362613684782    
  0.16479173115926374    0.2288136569723086    0.38409543465541146    0.4595601165653213    0.40468461810451284    
  0.3314918830467333    0.28827435202949586    0.27485194163445076    0.2882743759493037    0.33149186869825586    
  0.40468460360132485    0.4595601341481115    0.38409543856088924    0.22881364920788302    0.16479173115926374    
  0.33956225883999924    0.3840954220565958    0.4596350247901094    0.46451676740369374    0.4100030967604232    
  0.35933330428793875    0.3314918963457583    0.32279675357082765    0.3314919149273724    0.3593332954510123    
  0.4100031184835219    0.4645167527487619    0.45963504013347245    0.38409544486147557    0.33956225883999924    
  0.4508694684544388    0.45956015237368586    0.4645167630083489    0.4467939590588548    0.42315072909435913    
  0.4100031256590503    0.40468456969747135    0.40256225555846126    0.40468459655475214    0.4100030545105255    
  0.423150721525445    0.44679396001719296    0.4645168088745366    0.45956018432966983    0.4508694684544388    
  0.402562273354374    0.4046845823456967    0.4100030909704009    0.42315075149270215    0.4467939831681197    
  0.46451674498862977    0.45956016607203903    0.45086945029644204    0.45956012793574863    0.464516734528069    
  0.44679397297220147    0.42315070305012803    0.41000311659556093    0.4046846101526254    0.402562273354374    
  0.32279677027439374    0.33149189212532154    0.3593333548819169    0.41000305221292604    0.46451679532614054    
  0.4596350249124137    0.38409547300922947    0.3395622440682395    0.3840954779318321    0.4596350129809268    
  0.46451678748823994    0.4100030514957817    0.35933334045576765    0.3314918868580891    0.32279677027439374    
  0.2748519492994858    0.2882743663539326    0.33149189151106945    0.40468457760483884    0.4595601817053928    
  0.3840954122841492    0.22881365372569643    0.16479173915503986    0.22881363824690465    0.38409543441242455    
  0.45956018588574016    0.40468456983091794    0.3314919012901683    0.288274371470679    0.2748519492994858    
  0.26004410992958765    0.27485197292124874    0.32279674781700013    0.40256223590936474    0.45086947234718344    
  0.33956226075039314    0.16479175474747096    0.10390360800318157    0.16479175766102788    0.3395622211608165    
  0.45086947508280834    0.402562291342862    0.3227967638368085    0.2748519664980995    0.26004410992958765    
  0.2748519461480372    0.28827437804659084    0.3314918767716076    0.40468457511369016    0.45956019638043494    
  0.3840954334534839    0.22881363445295347    0.16479172697823716    0.22881366528851438    0.3840954121941139    
  0.4595601564368347    0.40468457729989377    0.3314918876232846    0.28827434166369015    0.2748519461480372    
  0.3227967629469843    0.3314918893858511    0.35933331150826786    0.4100030783219829    0.4645167945608221    
  0.45963500914820116    0.3840954653916917    0.33956224735440377    0.3840954622728647    0.4596349970027324    
  0.46451682947466105    0.4100030246749705    0.3593333432540427    0.33149189925858014    0.3227967629469843    
  0.40256222740425673    0.4046845784555252    0.41000304130953696    0.4231507373555031    0.4467939706298059    
  0.4645167949810539    0.4595601979355725    0.4508694426458852    0.4595601844437134    0.46451672475639316    
  0.44679396714692404    0.42315071681536137    0.41000310811880786    0.40468460559631936    0.40256222740425673    
  0.4508694924127027    0.4595601486647753    0.4645168317860233    0.4467939689258093    0.42315074365692223    
  0.4100030634885395    0.40468460167040127    0.402562255161954    0.40468458326771484    0.4100030483573561    
  0.42315076654970457    0.4467939404822332    0.46451679682099956    0.45956020274487186    0.4508694924127027    
  0.3395622425439992    0.38409547065698996    0.45963502222061803    0.46451676704346284    0.4100030992653932    
  0.35933332262107914    0.3314919063728074    0.3227967346057405    0.33149190365449205    0.3593332848568853    
  0.4100030932782229    0.4645167400797102    0.4596350498445579    0.38409544321811323    0.3395622425439992    
  0.16479173921142123    0.2288136486610943    0.3840954522116257    0.45956011301002714    0.40468465988091323    
  0.3314918782200275    0.2882743968823684    0.2748519642490814    0.28827435854736205    0.3314918758086517    
  0.4046845741342069    0.45956012313099165    0.38409546960168434    0.22881363543924058    0.16479173921142123    
  0.10390362613684782    0.16479173445169792    0.33956225232076886    0.4508694572923362    0.40256228174620534    
  0.322796756346665    0.2748519824212337    0.2600440986351163    0.2748520003793419    0.3227967028144012    
  0.4025622852310826    0.4508694526766647    0.3395622597559848    0.16479174896286392    0.10390362613684782    
  0.2852152815820039    0.33956222040502543    0.4431269178301048    0.4680129609732963    0.41265541223479935    
  0.355056643333138    0.322796750869142    0.312912389013455    0.32279677587427674    0.3550565547871651    
  0.41265549556058556    0.4680129542358086    0.44312691716047836    0.33956223092861615    0.2852152815820039    
  0.3395621977907915    0.3840954831308877    0.4596350080782406    0.4645167627233092    0.4100031102028132    
  0.35933330834029675    0.331491886250127    0.3227967238602604    0.3314919184725814    0.3593333301603834    
  0.4100030397385278    0.4645167745237129    0.45963500319672573    0.3840954645342468    0.3395621977907915    
  0.4431269274996843    0.45963502675647133    0.4750538931566076    0.4495172010884334    0.4048909649632429    
  0.3737380732879173    0.359333336073115    0.35505660902056974    0.3593333111208491    0.37373808932049474    
  0.404890971733267    0.4495171403359932    0.4750539126663799    0.4596350257503506    0.4431269274996843    
  0.4680129447380641    0.46451682567046687    0.4495172022288568    0.4251317486733878    0.4073733772961537    
  0.4048909958205688    0.41000308980503025    0.41265541985701054    0.410003077556678    0.4048909772101273    
  0.40737337081358227    0.4251317029071754    0.44951725654937574    0.46451675684980664    0.4680129447380641    
  0.4126554632654404    0.41000305908394674    0.40489098070237    0.40737334625387556    0.42513177888154763    
  0.4495171891851237    0.46451683138709354    0.4680129481603759    0.46451679464285767    0.44951717493689514    
  0.4251317359267996    0.40737336051954337    0.40489101028473856    0.41000308552194    0.4126554632654404    
  0.3550565931005673    0.3593333322185298    0.37373809263627117    0.4048909419270242    0.4495172199238697    
  0.4750538898815472    0.4596350199827362    0.4431268914192693    0.4596350421826292    0.4750539135397343    
  0.44951726197051944    0.40489096603155655    0.37373807468321424    0.35933331929674356    0.3550565931005673    
  0.3227967313603977    0.331491899814318    0.359333317783457    0.4100030770036023    0.46451685071423016    
  0.4596350153735127    0.3840954626865383    0.33956224021535364    0.3840954593534929    0.4596350023108148    
  0.4645168022294155    0.4100030829516095    0.3593333114563224    0.33149191582436344    0.3227967313603977    
  0.3129123939144824    0.32279672208834004    0.35505659444224485    0.41265542377228615    0.4680129699052373    
  0.4431269248081609    0.3395622609031048    0.2852152807485287    0.33956227339963807    0.4431268649367596    
  0.4680129827742963    0.41265542991994425    0.35505662374334435    0.32279673284957927    0.3129123939144824    
  0.32279671705913743    0.33149193439034913    0.35933331299499194    0.4100030804020417    0.4645167711018917    
  0.4596350031712808    0.3840954477716525    0.33956222678601955    0.3840954675765898    0.45963500494768006    
  0.46451682568226954    0.410003067813627    0.35933329572520717    0.33149189804387796    0.32279671705913743    
  0.35505660054086813    0.359333342073088    0.3737380604633154    0.4048909660007328    0.449517239338545    
  0.4750538928147118    0.45963502350142543    0.4431269185702589    0.4596350426326982    0.47505388783128977    
  0.44951723261676746    0.4048909535801159    0.37373807242195145    0.3593333585436653    0.35505660054086813    
  0.4126554180340035    0.4100030939870054    0.40489095118057367    0.40737336981373334    0.4251317380459669    
  0.4495171902739927    0.46451682008571415    0.4680129476992176    0.46451674467505083    0.4495171666043569    
  0.4251317631743092    0.40737336682666814    0.4048909725168331    0.41000308716446426    0.4126554180340035    
  0.4680129630705701    0.46451677070742886    0.4495172537078015    0.42513172804036886    0.4073733841602838    
  0.40489098931292905    0.410003066588994    0.41265543295079443    0.410003094671117    0.40489097586189227    
  0.4073733793174671    0.4251317148411172    0.44951723300333557    0.4645168039684628    0.4680129630705701    
  0.4431269129680665    0.4596350323701167    0.4750538838208591    0.4495172340200194    0.4048909939519078    
  0.3737380679451889    0.35933332327332945    0.3550565904412777    0.3593333352384232    0.37373806320573694    
  0.4048909866656192    0.4495172230521289    0.4750538983896648    0.45963499392719437    0.4431269129680665    
  0.33956223489569876    0.38409547363365    0.459634998383257    0.46451675415169125    0.41000308741665165    
  0.35933329610834014    0.33149191037416315    0.32279674121231966    0.3314919155720637    0.35933329786981216    
  0.4100031085797557    0.464516741133426    0.4596350450322038    0.38409545803775197    0.33956223489569876    
  0.2852152815820039    0.33956222040502543    0.4431269178301048    0.4680129609732963    0.41265541223479935    
  0.355056643333138    0.322796750869142    0.312912389013455    0.32279677587427674    0.3550565547871651    
  0.41265549556058556    0.4680129542358086    0.44312691716047836    0.33956223092861615    0.2852152815820039    
  0.4356807280287165    0.45086943288448833    0.46801297417011894    0.45637609477896507    0.4309953404755024    
  0.4126554913917346    0.40256223454833223    0.39849062971075316    0.40256230129685405    0.41265542879882466    
  0.4309953459232792    0.4563761269864915    0.4680129627869832    0.45086945906426285    0.4356807280287165    
  0.45086945981862286    0.45956019176419777    0.4645167529352208    0.4467939201982894    0.423150725106033    
  0.4100030299232531    0.4046846022835096    0.4025622196931127    0.40468460979902027    0.4100030873206612    
  0.4231506990121361    0.4467939587411023    0.46451678703074345    0.4595601497716978    0.45086945981862286    
  0.46801297767363265    0.46451673991341846    0.4495172429425286    0.4251317302886685    0.4073733676230103    
  0.40489094718189717    0.410003094638409    0.412655445185913    0.4100030896792945    0.40489096683473197    
  0.40737339627332386    0.4251317054498684    0.44951721961905405    0.4645168288154499    0.46801297767363265    
  0.45637607601691976    0.4467939459964799    0.42513171768710384    0.40495809626728696    0.3981760176835134    
  0.4073733389372933    0.4231507601623766    0.4309952901227562    0.4231507379829893    0.4073733265129993    
  0.3981759988910404    0.4049581009964371    0.42513175596310765    0.4467939495814741    0.45637607601691976    
  0.43099533240784815    0.42315071471228366    0.40737336838110316    0.39817597386637227    0.40495813150651605    
  0.42513170292844665    0.4467940009025485    0.4563760957682869    0.4467939513399896    0.42513169226232256    
  0.4049581279712466    0.398175963418207    0.4073733649088527    0.42315073908736217    0.43099533240784815    
  0.41265544801077836    0.41000309989485895    0.4048910176486321    0.40737335357390975    0.42513171820088597    
  0.44951719658413597    0.4645168175997088    0.46801291583761234    0.464516806112112    0.4495172151111297    
  0.42513174978020657    0.40737332731651316    0.4048910194040855    0.4100030698188967    0.41265544801077836    
  0.4025622433548762    0.404684605205232    0.41000303070895433    0.42315072338253823    0.4467939529136384    
  0.46451673435073226    0.4595601699977419    0.45086945742305384    0.45956016305255576    0.4645167630752133    
  0.4467939625636327    0.42315070778269526    0.41000308546204184    0.40468461488286783    0.4025622433548762    
  0.3984906116517338    0.4025622096448193    0.4126554576451962    0.43099531372372807    0.4563760801007172    
  0.4680130256447861    0.45086949344786525    0.435680696588989    0.4508695149246879    0.468012946759339    
  0.4563761153467886    0.430995318699877    0.4126554649399299    0.4025622494506628    0.3984906116517338    
  0.40256222084225857    0.40468460479191704    0.4100030528092338    0.4231507493894582    0.44679401971613436    
  0.4645167544289556    0.4595601192652723    0.4508694707282825    0.4595602287409792    0.46451675178374485    
  0.44679399840272754    0.42315074743281544    0.41000307791742596    0.4046845995675737    0.40256222084225857    
  0.4126554233419931    0.4100030848115688    0.4048909640810882    0.40737331387712805    0.4251317621297789    
  0.44951719967373865    0.46451680587404665    0.4680129956819162    0.4645167886677105    0.449517177905066    
  0.4251317476053128    0.40737333862633496    0.4048909736792463    0.4100030783050059    0.4126554233419931    
  0.4309953090495264    0.4231507319863246    0.40737330768061886    0.3981760027294707    0.4049581115149602    
  0.42513175336473796    0.44679400526133534    0.4563760961842433    0.4467939750082266    0.42513170335350814    
  0.4049581346464887    0.39817597362711893    0.40737336580324157    0.423150769695308    0.4309953090495264    
  0.45637606851126167    0.4467939402875766    0.42513174062607073    0.4049580925130042    0.398176000685042    
  0.40737335050063633    0.4231507361582942    0.43099532160204096    0.42315073503253814    0.40737336029462656    
  0.3981759841939228    0.4049581054771013    0.42513174666735376    0.44679399346225523    0.45637606851126167    
  0.4680129585005382    0.4645167668976698    0.4495172371071937    0.4251317063995399    0.4073733846440685    
  0.4048909694803015    0.41000310625110575    0.41265546292628735    0.4100030781904411    0.4048909316596188    
  0.40737338709352283    0.4251317448728586    0.449517192899285    0.46451678135252406    0.4680129585005382    
  0.4508694807975284    0.459560164789058    0.4645167708105293    0.44679398487627775    0.42315075227558974    
  0.4100030515027907    0.4046846340200816    0.402562243573457    0.4046846070797526    0.4100030794587986    
  0.42315073883547044    0.446793946123243    0.46451677853947343    0.4595601656367558    0.4508694807975284    
  0.4356807280287165    0.45086943288448833    0.46801297417011894    0.45637609477896507    0.4309953404755024    
  0.4126554913917346    0.40256223454833223    0.39849062971075316    0.40256230129685405    0.41265542879882466    
  0.4309953459232792    0.4563761269864915    0.4680129627869832    0.45086945906426285    0.4356807280287165    
  0.3984906445927978    0.40256221339839704    0.41265542577527903    0.4309953106339726    0.45637609902284787    
  0.4680130303860642    0.4508694426023773    0.4356807059902237    0.4508695212364017    0.4680129470345396    
  0.4563761391155136    0.43099538521449965    0.4126554405619796    0.402562234232028    0.3984906445927978    
  0.4025622632297681    0.4046846188038984    0.41000304801385085    0.42315071618069106    0.4467939832388551    
  0.4645167814593397    0.45956016158508006    0.45086942854666034    0.4595601935396676    0.4645167880253311    
  0.44679396623159295    0.42315074358259136    0.4100030514250286    0.4046845828460919    0.4025622632297681    
  0.41265542912300907    0.41000306329940023    0.40489101051195947    0.4073733599097372    0.42513173395140685    
  0.44951718940008484    0.4645167886965022    0.46801296617924487    0.46451678879807057    0.4495171878138878    
  0.4251317788949922    0.40737331493352286    0.4048909744239235    0.4100031140206009    0.41265542912300907    
  0.4309952836774599    0.4231507649860379    0.40737334753015597    0.39817596773151215    0.4049581305500832    
  0.4251317173962452    0.44679397681314936    0.4563760911695848    0.4467939567565362    0.42513172492715307    
  0.4049581080436296    0.39817596477460815    0.4073733908657123    0.4231506908853156    0.4309952836774599    
  0.45637611126971195    0.4467939550262755    0.4251317461430982    0.40495809577099556    0.3981760084272228    
  0.40737332869396686    0.4231507458796294    0.43099529489085314    0.42315074500946753    0.4073733195575027    
  0.3981759920539263    0.4049580988312699    0.4251317520238224    0.4467939583973116    0.45637611126971195    
  0.46801296027641265    0.46451678786336975    0.4495172572956682    0.42513174770830686    0.40737334670158054    
  0.4048909671377598    0.4100031015259894    0.4126554192543315    0.4100031206733347    0.40489097127753476    
  0.4073733684257182    0.42513170810078826    0.4495172601811741    0.4645167502870555    0.46801296027641265    
  0.450869466311199    0.45956018110466673    0.4645167217221987    0.4467939896265586    0.4231507446415851    
  0.41000304597388687    0.40468462141388517    0.40256221652890417    0.40468459981911176    0.4100030579921503    
  0.42315074712055556    0.44679391651043154    0.46451678655680934    0.4595601679801092    0.450869466311199    
  0.43568068551761424    0.4508694308275034    0.4680129616209989    0.4563760916392245    0.4309952963683685    
  0.412655480036701    0.4025622916673924    0.39849061933310287    0.40256229777873315    0.41265542932923255    
  0.4309953244394567    0.45637609886527103    0.4680129802856029    0.4508694712413767    0.43568068551761424    
  0.45086945229766834    0.4595601863371511    0.4645167809729923    0.44679395418269735    0.4231507707095501    
  0.4100030577852567    0.4046845630428558    0.4025622683895996    0.4046846516195704    0.41000304502364426    
  0.42315075793792906    0.4467939599887967    0.464516787149834    0.45956013997038203    0.45086945229766834    
  0.4680129575937034    0.464516762230261    0.4495171862767706    0.42513170680464457    0.40737338296035425    
  0.40489094423155986    0.41000310553489894    0.41265545185255353    0.41000307178216683    0.40489098089499387    
  0.4073733799971147    0.42513170910062353    0.4495172047922867    0.46451679322814293    0.4680129575937034    
  0.45637610021317676    0.4467939627276514    0.42513170632385866    0.40495811837534584    0.3981759966184497    
  0.40737336968453813    0.4231507503541108    0.4309953186438883    0.42315072898812645    0.40737333659500974    
  0.39817601597837876    0.4049580977110208    0.4251317395375918    0.44679402488472214    0.45637610021317676    
  0.43099528559385253    0.4231507063348781    0.40737337368056287    0.3981759671836854    0.40495814387868884    
  0.42513170639580267    0.4467939346729623    0.4563760905540274    0.44679397825631867    0.4251317369811679    
  0.40495811762899026    0.39817596938138694    0.4073733678940394    0.4231507642872667    0.43099528559385253    
  0.41265545370749374    0.41000308618423736    0.40489099146085744    0.4073733370628117    0.42513177302555705    
  0.44951717598654006    0.4645167919415122    0.4680129804792855    0.46451680436587306    0.4495171749801981    
  0.4251317772085187    0.40737336553151904    0.40489098199862167    0.4100030684809058    0.41265545370749374    
  0.402562258404245    0.40468461250023124    0.41000307244510814    0.42315071762524425    0.44679400264662333    
  0.4645167466195695    0.45956021159158816    0.4508694879627544    0.45956017891998047    0.46451675187788377    
  0.4467939630890648    0.4231507089660732    0.41000307334663477    0.4046846127581438    0.402562258404245    
  0.3984906445927978    0.40256221339839704    0.41265542577527903    0.4309953106339726    0.45637609902284787    
  0.4680130303860642    0.4508694426023773    0.4356807059902237    0.4508695212364017    0.4680129470345396    
  0.4563761391155136    0.43099538521449965    0.4126554405619796    0.402562234232028    0.3984906445927978    
  0.31291239495477363    0.3227967312924515    0.35505662327151516    0.41265544758920125    0.46801295188433095    
  0.4431269393078628    0.33956224558922543    0.2852152929133055    0.3395622805288146    0.4431268737370839    
  0.46801305207088667    0.4126554307454048    0.3550566384943598    0.32279673720920526    0.31291239495477363    
  0.3227966948649678    0.33149193104233016    0.35933332163183007    0.41000306000659037    0.46451680844858495    
  0.45963499914035344    0.3840954389536995    0.3395622239993264    0.3840954740052823    0.4596350334667594    
  0.4645167219967779    0.4100030540244555    0.35933331313267175    0.3314918997948631    0.3227966948649678    
  0.3550566054891319    0.35933331700751964    0.373738102310504    0.4048909531671975    0.44951719528550255    
  0.47505389635377493    0.45963503358860336    0.4431269133101603    0.4596350158606025    0.4750538839569038    
  0.44951721001872663    0.4048909354807476    0.3737381157184003    0.35933332360877135    0.3550566054891319    
  0.4126554200641608    0.41000311154279956    0.40489096934332264    0.4073733645078332    0.42513175889064003    
  0.44951723882603956    0.46451679206799495    0.46801292594892074    0.46451679139983554    0.4495171862315443    
  0.42513174312816265    0.40737334122466057    0.40489101623333834    0.4100030666808567    0.4126554200641608    
  0.4680129701892541    0.4645167668723255    0.4495171924691098    0.4251317251704352    0.40737337848315536    
  0.4048909580554899    0.4100031078195175    0.4126554099357613    0.4100030914219267    0.4048909369570565    
  0.40737337798712236    0.42513173179222763    0.4495172238159264    0.4645168027184557    0.4680129701892541    
  0.44312688638329    0.45963503664059824    0.4750538974315088    0.4495171632134236    0.4048909886378599    
  0.3737380751711167    0.3593333298410914    0.3550565788839784    0.3593333439721544    0.3737380996202562    
  0.4048910202176528    0.4495171894056372    0.4750538883973307    0.4596350127966512    0.44312688638329    
  0.33956223508257133    0.38409544650929145    0.4596350290238482    0.464516757158171    0.41000312804978767    
  0.3593333107899167    0.33149192177874715    0.3227967344975021    0.3314919040216516    0.3593332900421939    
  0.41000307970339067    0.46451678249960127    0.4596350077648287    0.38409544818780483    0.33956223508257133    
  0.28521528363748877    0.33956222146452253    0.4431268972911873    0.4680129564971398    0.41265542657139825    
  0.35505662247500336    0.32279675712881434    0.31291237072955486    0.3227967578707538    0.3550565704583621    
  0.4126554669895607    0.46801297898509703    0.44312692797311204    0.3395622522850336    0.28521528363748877    
  0.3395622179374067    0.38409549112873737    0.45963501668809303    0.4645167949717864    0.41000309592841744    
  0.359333316437944    0.3314918932828763    0.3227967318942882    0.3314919124284877    0.35933331475218067    
  0.41000310858491784    0.4645167640790491    0.45963497620254123    0.3840954336626419    0.3395622179374067    
  0.44312691191887316    0.45963503988709825    0.4750538688297227    0.44951719384152433    0.40489101467672356    
  0.37373809184765816    0.3593333501860483    0.35505658136383783    0.3593333225329802    0.3737380806743045    
  0.4048909940552172    0.4495171881748316    0.4750539009349063    0.45963504066620503    0.44312691191887316    