#     DFTpy    
  CRYSTAL 
    
  PRIMVEC    
  3.7102758620689653    0.0    0.0    
  0.0    3.7102758620689653    0.0    
  0.0    0.0    3.7102758620689653    
  PRIMCOORD    
  4    1    
  Si    0.0    0.0    0.0    
  Si    0.0    1.8551379310344827    1.8551379310344827    
  Si    1.8551379310344827    0.0    1.8551379310344827    
  Si    1.8551379310344827    1.8551379310344827    0.0    
  BEGIN_BLOCK_DATAGRID_3D    
  3d_datagrid_density    
  BEGIN_DATAGRID_3D#0    
  17    17    17    
  0.0    0.0    0.0    
  3.7102758620689653    0.0    0.0    
  0.0    3.7102758620689653    0.0    
  0.0    0.0    3.7102758620689653    
  0.05512619594917439    0.09910823392070765    0.2545769408174663    0.39597440038374293    0.3657010124410522    
  0.2726112510807219    0.20634211095683125    0.1727639469084437    0.16259657911274003    0.1727638954542861    
  0.2063422029654099    0.2726112632703436    0.3657009951598798    0.39597442153162643    0.25457691643666036    
  0.09910824350164228    0.05512619594917439    0.09910822561789576    0.15067326946620876    0.30032684368985996    
  0.4055734006376734    0.3613132966017473    0.2736315252802709    0.21292353848372703    0.18212755868685226    
  0.17276392886935898    0.1821275141295204    0.21292354383520246    0.27363153006145496    0.3613133090117225    
  0.4055733850114035    0.3003268226403608    0.15067325478522559    0.09910822561789576    0.25457695107395845    
  0.30032681822526014    0.39027209893485115    0.4108223983495218    0.3490537721878984    0.27951385945143986    
  0.23495099492633106    0.2129235593890361    0.20634218915266803    0.21292351436729168    0.23495103633985304    
  0.27951386945060747    0.349053758043878    0.41082240189329366    0.390272054324682    0.30032684187491937    
  0.25457695107395845    0.39597435002253106    0.40557337834257257    0.4108223575429119    0.38144036772149553    
  0.33359514638163584    0.2973389027001899    0.27951384659074036    0.27363154773188214    0.2726112446622097    
  0.27363153513387234    0.2795138924538045    0.2973388499526103    0.3335951462770542    0.38144039488956993    
  0.41082235564058167    0.4055734097451516    0.39597435002253106    0.36570105012449744    0.36131331903836494    
  0.3490537749435081    0.33359514007238844    0.3260552693259713    0.33359512896378896    0.34905376594078913    
  0.3613133640975242    0.3657010554297597    0.361313310119759    0.34905381630761434    0.3335951157035063    
  0.32605522108112633    0.3335951640156186    0.3490537556566647    0.36131333051106823    0.36570105012449744    
  0.27261128348093544    0.27363154804695133    0.27951386226610114    0.2973388851423184    0.33359515571777903    
  0.3814404103860166    0.41082235398126127    0.40557341673013864    0.3959743865634494    0.4055733642598355    
  0.41082239161427075    0.38144037552427346    0.33359513510411193    0.29733888112980505    0.27951382450914125    
  0.27363152911765853    0.27261128348093544    0.2063421689561194    0.21292353356744978    0.23495101548941355    
  0.2795138551271324    0.34905380776996014    0.41082238769876983    0.3902719979687891    0.3003268540222108    
  0.2545769365789723    0.3003268208102689    0.39027209961905235    0.41082234862668604    0.34905377087585465    
  0.27951390870092235    0.23495101704129953    0.21292354372329483    0.2063421689561194    0.1727639470626768    
  0.18212754119192615    0.2129235201087319    0.27363153373754806    0.3613133310872673    0.4055733820961945    
  0.3003268430069268    0.15067326736432016    0.09910822513946167    0.15067327915425963    0.3003268760086276    
  0.40557334008098894    0.3613133457817196    0.27363154752714963    0.2129235370996343    0.1821275284118373    
  0.1727639470626768    0.1625966077415795    0.17276393478186933    0.20634217895768878    0.27261125076596    
  0.3657010591858523    0.3959743724102857    0.2545768984314941    0.09910823684134719    0.05512620269700385    
  0.09910821273581354    0.25457696468472607    0.39597434871385145    0.36570101110464937    0.2726112627169717    
  0.20634216443434156    0.17276391934579738    0.1625966077415795    0.17276392309882183    0.1821275233246771    
  0.21292353388309213    0.27363153278877916    0.36131333420251327    0.40557332066994    0.30032681103539893    
  0.1506732860359533    0.09910822958117473    0.150673265403897    0.3003268693447679    0.40557335277567175    
  0.3613133062669081    0.2736315519435253    0.21292354253319065    0.1821275240620928    0.17276392309882183    
  0.2063421667825491    0.2129235521024965    0.2349510217552973    0.2795138624270017    0.34905380843130124    
  0.4108223807432892    0.3902720488990144    0.3003268691609081    0.254576941138224    0.3003268011663862    
  0.3902720722231554    0.4108223754615267    0.34905377720130804    0.2795138935224707    0.23495100380016348    
  0.2129235471455398    0.2063421667825491    0.2726112356942592    0.2736315389484507    0.2795138546873309    
  0.2973388670158892    0.33359514580374655    0.3814404191328479    0.41082233975600213    0.40557337070790306    
  0.39597439712374755    0.4055733800926215    0.4108224368483155    0.3814403616818013    0.33359512500499344    
  0.2973388692115415    0.27951388915939207    0.27363157568114865    0.2726112356942592    0.3657010444071912    
  0.36131332042717823    0.34905379802330966    0.3335951540163846    0.3260552896384531    0.3335951660537665    
  0.34905374617187584    0.3613133760241504    0.36570106463089974    0.3613132848991922    0.3490538275712876    
  0.3335951426781045    0.32605526903762544    0.33359519072898886    0.3490537468672602    0.36131332520848747    
  0.3657010444071912    0.39597435864619207    0.4055733878929597    0.41082237359443347    0.3814403962239596    
  0.3335951537774114    0.29733886218689803    0.279513860205258    0.2736315661155206    0.27261126690400306    
  0.27363150539616427    0.27951385975287674    0.2973388453277799    0.3335951475182139    0.3814404192137267    
  0.4108223494101676    0.40557338438242296    0.39597435864619207    0.254576954922673    0.3003268280158091    
  0.39027209303084376    0.4108223608168459    0.34905379911662    0.2795138513900204    0.23495100600921215    
  0.2129235694782636    0.20634214683483465    0.2129235263784294    0.23495100926308413    0.27951383955249903    
  0.34905378288046573    0.4108224411601927    0.3902720711194211    0.3003268275697708    0.254576954922673    
  0.09910822281918773    0.1506732561366989    0.3003268256677003    0.4055733750706929    0.3613133610140024    
  0.27363159188689556    0.21292355448178601    0.18212753618808797    0.17276392975793423    0.18212753585138397    
  0.2129235743935694    0.27363152737725044    0.36131333030066815    0.40557336017291834    0.3003268408050589    
  0.15067327124383442    0.09910822281918773    0.05512619594917439    0.09910823392070765    0.2545769408174663    
  0.39597440038374293    0.3657010124410522    0.2726112510807219    0.20634211095683125    0.1727639469084437    
  0.16259657911274003    0.1727638954542861    0.2063422029654099    0.2726112632703436    0.3657009951598798    
  0.39597442153162643    0.25457691643666036    0.09910824350164228    0.05512619594917439    0.09910823198835486    
  0.15067327873716221    0.3003268340153521    0.405573362740863    0.36131332546080924    0.2736315386721182    
  0.21292350916345443    0.18212755523642063    0.17276393323878292    0.1821275054717597    0.21292355880197272    
  0.273631518017172    0.36131329922241073    0.4055733635195818    0.3003267780022408    0.15067327541229117    
  0.09910823198835486    0.15067327600219302    0.20455326652535286    0.3385141196483932    0.409903713195797    
  0.355740321623689    0.27365338061619454    0.2183739885984296    0.19054429559108477    0.18212752467266158    
  0.1905442524469991    0.21837404077990005    0.2736533813832079    0.3557403089948009    0.40990370724650516    
  0.3385140997072899    0.20455327715765695    0.15067327600219302    0.3003268529717467    0.3385141156823116    
  0.4045995840068218    0.4045890906573472    0.341102844024293    0.27709422007652346    0.23732481928515572    
  0.21837403902735877    0.21292353405441167    0.21837398157920798    0.23732488737410126    0.2770942098618986    
  0.3411028256106316    0.4045891202381618    0.40459957842566613    0.33851411569352263    0.3003268529717467    
  0.40557334253495    0.409903690194814    0.4045890883337498    0.37008906169779116    0.32426909794142267    
  0.2917404228751605    0.2770941952930677    0.2736533988955206    0.2736315246408756    0.27365337962088515    
  0.27709421778865584    0.2917403747539359    0.32426907812173594    0.3700890843229488    0.4045890748345758    
  0.40990371595317804    0.40557334253495    0.3613133330737129    0.35574035036418733    0.34110284581666783    
  0.3242690894149342    0.31653033616894954    0.32426907054680415    0.34110280216316086    0.35574037075173137    
  0.36131332068319955    0.3557403258448496    0.3411028835716294    0.32426907122727044    0.31653034053375956    
  0.32426910312415014    0.3411028161550997    0.355740336306281    0.3613133330737129    0.27363156197789784    
  0.27365340960708046    0.2770942015511331    0.2917404303404852    0.32426905613562773    0.37008910094575775    
  0.4045890336200179    0.40990372263038477    0.4055733636280319    0.40990366786419435    0.40458911095038924    
  0.37008906101138056    0.3242690644433783    0.2917404181071003    0.27709418318066675    0.2736533825370893    
  0.27363156197789784    0.21292353933702604    0.218374008599062    0.23732487650577802    0.27709421286251457    
  0.341102853400976    0.4045890735925395    0.40459953381763436    0.3385141464730507    0.30032680571736853    
  0.33851407697480934    0.40459961923416665    0.40458903762503806    0.34110282635143174    0.2770942478309024    
  0.23732485524920602    0.21837399943087302    0.21292353933702604    0.18212754370851206    0.19054425867230843    
  0.21837401413496332    0.2736533845203871    0.3557403613094365    0.4099036931130125    0.33851410255977743    
  0.20455329604835426    0.1506732657671353    0.20455328061902953    0.33851414351314346    0.4099036734419744    
  0.35574034842844254    0.2736534084438928    0.2183740010189209    0.19054427374129893    0.18212754370851206    
  0.17276394890768743    0.18212754938768108    0.21292355637011684    0.2736315427645689    0.36131336786376655    
  0.4055733562836242    0.3003268107837212    0.15067329515189842    0.0991082349882294    0.15067324447282326    
  0.3003268245831858    0.40557332341394897    0.3613133240398835    0.2736315459466482    0.21292354006950237    
  0.1821275248076648    0.17276394890768743    0.18212751732216184    0.19054425834841596    0.21837401153989375    
  0.27365338904119696    0.355740355851743    0.40990369409722055    0.3385141041433167    0.2045533036583396    
  0.15067327636074926    0.20455327585144706    0.3385141445718417    0.40990366454742827    0.35574032393911265    
  0.2736534433414188    0.21837400013520128    0.19054425091799007    0.18212751732216184    0.21292352112325072    
  0.21837401572305287    0.2373248714366303    0.2770942299790926    0.34110284073479397    0.40458910387057767    
  0.40459954759381606    0.3385141590491433    0.30032681518818105    0.33851406549824176    0.4045996376278101    
  0.40458906830820307    0.341102819114926    0.27709420903660037    0.23732486491791246    0.21837402855943874    
  0.21292352112325072    0.2736315292144483    0.27365337344159874    0.2770942306036467    0.29174037399085945    
  0.32426907495177804    0.37008912315978104    0.4045890503138415    0.409903696281554    0.40557334961959085    
  0.40990367232136143    0.4045891049220505    0.3700890714025897    0.32426907597178306    0.29174040447082605    
  0.2770942543332641    0.27365341823925426    0.2736315292144483    0.3613133235454852    0.3557403505190302    
  0.3411028497527022    0.3242690884360805    0.3165303028246483    0.32426905298895153    0.3411028131369444    
  0.3557403621109223    0.3613133232259606    0.3557403287356772    0.34110287032812414    0.3242690504753747    
  0.3165303343615101    0.32426909110847324    0.34110279437166585    0.35574032567575037    0.3613133235454852    
  0.40557336508393954    0.4099036810004187    0.40458905630688213    0.37008908289430686    0.32426905744193424    
  0.29174039942552127    0.27709416873398557    0.2736533933146503    0.2736315535875577    0.27365339163131913    
  0.2770942491541805    0.29174035650567476    0.32426907002884864    0.3700891262931739    0.4045890316621947    
  0.40990367095590347    0.40557336508393954    0.3003268399733702    0.3385140904737767    0.40459960109401066    
  0.40458909099699847    0.3411028483205617    0.27709419644416666    0.2373248622781997    0.21837402633237069    
  0.2129235084484404    0.21837398497258564    0.23732488147254405    0.2770942019724331    0.34110283100268496    
  0.404589126173261    0.40459957473204455    0.33851412345840254    0.3003268399733702    0.15067327313269155    
  0.20455328530922437    0.3385140960171498    0.409903668209169    0.35574036056561703    0.2736534142848302    
  0.21837403547692127    0.19054426712758774    0.18212751524861082    0.19054425746266215    0.21837404375563252    
  0.2736533772967003    0.3557403348899718    0.4099037088738655    0.3385141287977442    0.20455329529388017    
  0.15067327313269155    0.09910823198835486    0.15067327873716221    0.3003268340153521    0.405573362740863    
  0.36131332546080924    0.2736315386721182    0.21292350916345443    0.18212755523642063    0.17276393323878292    
  0.1821275054717597    0.21292355880197272    0.273631518017172    0.36131329922241073    0.4055733635195818    
  0.3003267780022408    0.15067327541229117    0.09910823198835486    0.25457693926574265    0.30032684016555306    
  0.39027208350643394    0.4108223570130607    0.34905379462998176    0.27951381946528747    0.2349509648833314    
  0.21292355879725097    0.20634215703772144    0.21292351606176005    0.2349510277453783    0.2795138491299328    
  0.34905376292296236    0.410822406356336    0.39027202791321636    0.30032683428602275    0.25457693926574265    
  0.3003268181917059    0.33851411757772965    0.4045995975272724    0.4045891223477399    0.34110285635102794    
  0.2770942315076834    0.23732485872472697    0.21837405832589246    0.21292354738116845    0.21837399598184887    
  0.2373248686253843    0.27709420748221014    0.3411028483419975    0.40458911013154253    0.40459957994291756    
  0.3385141146609162    0.3003268181917059    0.39027208164375093    0.4045995977017932    0.4149185226849031    
  0.380527274042821    0.3218376651565237    0.2742784208066486    0.24781434045714026    0.23732490618555543    
  0.2349510073878949    0.23732485336517867    0.24781436609065377    0.27427839709399027    0.3218376577466835    
  0.3805272822148577    0.4149185048130205    0.404599594178719    0.39027208164375093    0.41082234539193097    
  0.4045890744467811    0.3805272494142958    0.3403659958066754    0.30242936572756685    0.2802990515811226    
  0.2742783827675634    0.2770942258001483    0.27951383215201536    0.27709419481293374    0.2742784418220806    
  0.2802990261044555    0.30242934554635226    0.3403660235263442    0.3805272721942259    0.4045891129511974    
  0.41082234539193097    0.3490538076553892    0.3411028618455034    0.321837648160692    0.30242937119383817    
  0.29433488364684907    0.30242933192845195    0.3218376560509512    0.34110286544860313    0.3490537931303267    
  0.34110281267808573    0.32183768278680513    0.30242935475101146    0.29433484380206854    0.3024293878494858    
  0.3218376353264482    0.3411028672131683    0.3490538076553892    0.2795138530892634    0.27709421002576506    
  0.2742783940955517    0.28029905537133304    0.3024293525143281    0.3403660191596247    0.3805272327829497    
  0.4045891106581869    0.41082241213083887    0.4045890607000021    0.38052726392330183    0.3403659833275113    
  0.3024293593866412    0.2802990508121955    0.2742783821158595    0.277094219500013    0.2795138530892634    
  0.23495099404027237    0.23732486013408569    0.247814379565414    0.2742783951169175    0.3218376702953635    
  0.38052725116562497    0.4149184445541962    0.40459964679366944    0.39027207680321296    0.4045995874367581    
  0.41491851335617724    0.3805272505418429    0.3218376602555809    0.27427845449847904    0.2478143724418698    
  0.23732487063883193    0.23495099404027237    0.21292353791594953    0.2183740115846873    0.2373248545299918    
  0.2770942041285602    0.3411028457667913    0.404589076685131    0.40459958617504893    0.33851412548802745    
  0.3003268388281755    0.33851410385467257    0.40459962522670717    0.4045890555699362    0.3411028475530371    
  0.2770942223168191    0.23732485878168255    0.21837400856547787    0.21292353791594953    0.20634218624715622    
  0.21292355003396615    0.234951010881414    0.2795138392392448    0.34905381044004236    0.41082236093267155    
  0.39027201953570156    0.30032684030819584    0.2545769550030672    0.30032680563690634    0.39027210056371286    
  0.4108223578295035    0.3490537954991481    0.27951387305856795    0.2349510053080615    0.21292353187651225    
  0.20634218624715622    0.21292353704012734    0.21837399759049786    0.23732485172489784    0.27709421999708406    
  0.34110286935957074    0.4045890416829527    0.40459957153224413    0.33851415588383155    0.300326838427553    
  0.3385140853461171    0.404599610335459    0.4045890769635555    0.3411028540802464    0.27709423808536193    
  0.2373248533289798    0.2183740050042694    0.21292353704012734    0.2349509964166221    0.23732489296329673    
  0.24781438734565245    0.2742784125583046    0.3218376634616746    0.3805272598946077    0.4149184488834409    
  0.40459962242234604    0.3902720560854935    0.40459955863772146    0.41491851316668893    0.3805272623843387    
  0.3218376564231412    0.2742784183596813    0.24781434030408908    0.23732487378311495    0.2349509964166221    
  0.279513833404579    0.2770942153297163    0.27427838938131976    0.280299017726011    0.30242933540042494    
  0.34036604006616994    0.38052726375192003    0.4045890716093042    0.41082236404442585    0.40458905906272585    
  0.3805273070577006    0.3403660039373368    0.3024293526057254    0.2802990305652985    0.27427841445117596    
  0.27709424296896024    0.279513833404579    0.3490537749729374    0.3411028552008872    0.32183770579741466    
  0.302429382467897    0.29433486676179743    0.30242937150433863    0.32183764960087513    0.3411028867597572    
  0.3490537908307899    0.34110282936404823    0.32183770926399224    0.30242935275344335    0.2943348740974723    
  0.3024293693316611    0.32183762944594557    0.3411028523727124    0.3490537749729374    0.41082239604262566    
  0.40458911554611626    0.3805272874257175    0.3403660105738785    0.3024293677857354    0.2802990431189578    
  0.27427839545183424    0.2770942418165083    0.2795138609027299    0.2770941827932416    0.27427843189363427    
  0.28029901900412274    0.3024293416855152    0.3403660486744412    0.38052723742393996    0.4045890961284659    
  0.41082239604262566    0.39027208870418745    0.40459958727517126    0.4149185183150542    0.38052725546043387    
  0.3218376636869886    0.27427839101611917    0.24781433227819447    0.2373248932785001    0.23495099308419903    
  0.23732483947513844    0.24781438068291817    0.2742783791511902    0.3218376482992421    0.3805272925445833    
  0.4149184301094344    0.404599613321261    0.39027208870418745    0.30032683487292794    0.3385140886725081    
  0.40459954427855543    0.4045890477444675    0.34110286399004097    0.2770942464432075    0.23732487713428158    
  0.218374030569378    0.21292355331642834    0.2183740179091729    0.23732491583901366    0.2770942140482247    
  0.34110286986866195    0.40458905433871467    0.40459960672125406    0.33851413602937996    0.30032683487292794    
  0.25457693926574265    0.30032684016555306    0.39027208350643394    0.4108223570130607    0.34905379462998176    
  0.27951381946528747    0.2349509648833314    0.21292355879725097    0.20634215703772144    0.21292351606176005    
  0.2349510277453783    0.2795138491299328    0.34905376292296236    0.410822406356336    0.39027202791321636    
  0.30032683428602275    0.25457693926574265    0.3959744002559665    0.40557337572675106    0.4108223368318773    
  0.38144038997529456    0.33359514288487385    0.29733884639486513    0.2795138159243356    0.27363156690834045    
  0.27261127666690915    0.2736315113716509    0.2795138801985238    0.29733883288976226    0.3335951232540779    
  0.38144036026920397    0.4108223244799077    0.405573352003782    0.3959744002559665    0.40557338738014803    
  0.40990367496872304    0.4045890781809172    0.3700890990168751    0.3242690739273428    0.29174035398305226    
  0.27709418270146235    0.2736534330969872    0.2736315375167779    0.2736533863638515    0.27709422769407527    
  0.29174037691684845    0.32426907410613753    0.37008909089965786    0.40458906308299897    0.4099036914666918    
  0.40557338738014803    0.41082239758056555    0.4045890770727807    0.3805272470957773    0.3403660058162792    
  0.3024293287514104    0.28029905317101705    0.274278354214639    0.2770942444483381    0.27951384409005486    
  0.27709419778324706    0.2742784220517154    0.28029901898768994    0.30242933734706606    0.34036603535032023    
  0.38052724786900916    0.40458908677203514    0.41082239758056555    0.3814403644742757    0.3700890702830177    
  0.340365992616066    0.3058659170144512    0.28170676383801735    0.27406681907311714    0.2802990199872248    
  0.2917404180958552    0.2973388376704839    0.2917403937239636    0.2802990446964484    0.2740667976189558    
  0.2817067560194134    0.30586593956527003    0.34036599356601466    0.37008908865664947    0.3814403644742757    
  0.3335951705994225    0.32426906361495    0.30242933539255284    0.2817067574833561    0.2735017649511603    
  0.28170677399996336    0.302429332564935    0.32426911039684053    0.33359514322733175    0.3242690426849475    
  0.302429385738456    0.28170676081315676    0.2735017584545013    0.2817067892390828    0.3024293391259449    
  0.32426906876955086    0.3335951705994225    0.2973388673962006    0.2917403968909654    0.28029903858323    
  0.27406683186706143    0.2817067612192806    0.30586594044608306    0.34036597808411756    0.3700890886223958    
  0.38144037508150047    0.3700890554132246    0.3403660042257601    0.30586591543939606    0.2817067350609713    
  0.2740668227377796    0.28029900479485115    0.2917403878246462    0.2973388673962006    0.27951385802597867    
  0.27709420377490307    0.2742784254798312    0.28029903093607433    0.30242934392088405    0.34036601556131624    
  0.3805272226784263    0.40458911696948935    0.4108223581516392    0.40458906317440735    0.38052728691737475    
  0.3403659911424192    0.3024293294781405    0.2802990558715917    0.27427838450150616    0.27709419307212046    
  0.27951385802597867    0.27363152891262504    0.27365339362606367    0.27709421139857454    0.2917403899596765    
  0.3242690811653313    0.3700890954178968    0.4045890829436737    0.40990369517873776    0.4055733848583833    
  0.40990366415726937    0.40458912808902564    0.37008905824406635    0.3242690852473859    0.2917403974291412    
  0.2770941986352815    0.27365339260121807    0.27363152891262504    0.27261129559341524    0.27363156270449346    
  0.27951384038491595    0.29733884950637707    0.333595179173655    0.381440375194118    0.41082234488513    
  0.40557343272549373    0.39597439021183806    0.40557334160380487    0.41082239947148874    0.38144035493765815    
  0.3335951386707384    0.29733884571525265    0.2795138249830869    0.27363149774017975    0.27261129559341524    
  0.2736315297195747    0.2736533806142922    0.27709421131967554    0.2917403905479485    0.324269114817243    
  0.37008906470517733    0.40458905641159554    0.4099037291002239    0.4055733885692661    0.4099036584818119    
  0.40458908497933155    0.37008902321344006    0.32426905272113493    0.2917404221867374    0.277094207314222    
  0.273653382518543    0.2736315297195747    0.2795138489498936    0.27709422195816324    0.27427839256181874    
  0.2802990255842884    0.3024293228215478    0.34036601504234104    0.38052719554302666    0.40458912083294907    
  0.4108223622171321    0.40458904895426234    0.38052727105507733    0.34036600988443766    0.3024293415748932    
  0.28029902842205495    0.2742784105769142    0.27709422032151826    0.2795138489498936    0.297338843772157    
  0.2917403885423018    0.28029901408683383    0.2740668021051624    0.28170674119940015    0.30586598023850525    
  0.3403659793263738    0.37008906179662465    0.38144035093167433    0.370089044074205    0.3403660572251649    
  0.3058659331190515    0.2817067379623254    0.2740668202803508    0.2802990585344097    0.291740425234924    
  0.297338843772157    0.3335951220268886    0.3242690974747479    0.3024293762834687    0.28170677628619356    
  0.2735017561645587    0.28170674306168153    0.3024293222439339    0.32426911832441324    0.3335951847899624    
  0.3242690612296203    0.30242939021251564    0.2817067381891283    0.2735017748405743    0.2817067848964386    
  0.30242932132413197    0.32426908092696394    0.3335951220268886    0.38144036941675935    0.37008907642441846    
  0.34036597246258715    0.30586593844341675    0.281706756681105    0.27406679400894585    0.2802989991189291    
  0.2917403939890097    0.29733886063636916    0.29174039119407424    0.28029904962092556    0.27406677797437357    
  0.2817067497926129    0.3058659684553457    0.3403659425236232    0.3700890819489665    0.38144036941675935    
  0.41082237380945263    0.4045890436938247    0.38052727543751014    0.3403659995222277    0.3024293546910721    
  0.28029899332007635    0.27427837117295156    0.27709424027139556    0.27951382144875286    0.2770941839548203    
  0.274278420156664    0.28029900198468477    0.3024293345976825    0.3403660367573193    0.3805272222324264    
  0.4045891081402556    0.41082237380945263    0.40557336688699436    0.40990371005260035    0.4045890841742391    
  0.3700890549354655    0.32426910898421324    0.2917404306475778    0.27709423945483797    0.2736534172590106    
  0.2736315285657611    0.2736533964148053    0.2770942455317328    0.29174037680343257    0.3242690858350756    
  0.37008909257020256    0.4045890793320261    0.40990370525370373    0.40557336688699436    0.3959744002559665    
  0.40557337572675106    0.4108223368318773    0.38144038997529456    0.33359514288487385    0.29733884639486513    
  0.2795138159243356    0.27363156690834045    0.27261127666690915    0.2736315113716509    0.2795138801985238    
  0.29733883288976226    0.3335951232540779    0.38144036026920397    0.4108223244799077    0.405573352003782    
  0.3959744002559665    0.3657010421372216    0.361313357217575    0.3490537937910539    0.3335951602431428    
  0.3260552811565321    0.3335951124875289    0.34905371830430765    0.3613133675455604    0.3657010274196204    
  0.3613132748353087    0.34905382763602627    0.33359514169822063    0.3260552520323362    0.33359520944648413    
  0.3490537645205137    0.3613133437788935    0.3657010421372216    0.36131330352606766    0.3557403359123943    
  0.3411028572991089    0.32426910850743784    0.3165303503543418    0.3242690699805188    0.3411028485804055    
  0.35574038778405764    0.3613133095906027    0.35574031232615444    0.34110287708530485    0.32426906056426663    
  0.31653034599012037    0.3242691079001387    0.3411028427499465    0.3557403300328394    0.36131330352606766    
  0.3490537963164964    0.34110284340497354    0.3218376925448769    0.30242936699755113    0.2943348819515186    
  0.302429363902226    0.32183765893488264    0.34110289211771666    0.34905381556701465    0.34110283073158615    
  0.3218376899632107    0.3024293370137681    0.29433486713677504    0.3024293700279502    0.32183768390067985    
  0.34110288205258066    0.3490537963164964    0.3335951141875871    0.32426908670892146    0.30242934831161544    
  0.2817067674325146    0.27350179784155304    0.28170679299326357    0.30242932730355304    0.32426908592575737    
  0.333595135160957    0.3242690974520112    0.3024293980788182    0.28170676923703336    0.2735017742095048    
  0.28170677242361863    0.3024293402741246    0.3242691091193247    0.3335951141875871    0.3260552771109977    
  0.3165303463871848    0.2943348765253046    0.27350179037206684    0.265339034610799    0.2735017599260918    
  0.2943348580281788    0.316530381077375    0.3260552851728952    0.3165303334707658    0.29433490967821957    
  0.2735017634867313    0.26533899285800583    0.27350179586011675    0.29433486786715973    0.3165303563700043    
  0.3260552771109977    0.333595137353881    0.324269092528815    0.30242934715479836    0.2817067894383701    
  0.27350178794120045    0.28170678906929564    0.3024293194869684    0.32426913071081154    0.3335951584048361    
  0.32426906076584855    0.3024293773454996    0.28170676895867813    0.27350176348751665    0.2817067938950253    
  0.3024293412492857    0.32426906671404204    0.333595137353881    0.34905378969130246    0.3411028445583918    
  0.3218376828696588    0.30242935904772716    0.29433489009094765    0.30242936076988947    0.3218376288097399    
  0.341102883441219    0.34905377804730175    0.34110283273570696    0.3218377157088683    0.3024293467932064    