#     DFTpy    
  CRYSTAL 
    
  PRIMVEC    
  3.834845330751852    -2.1069387999999996e-10    3.9935504689655165e-10    
  -2.1069387999999996e-10    3.8348453305290193    1.924285717241379e-10    
  7.29770996551724e-10    3.516973931034482e-10    7.025510967662299    
  PRIMCOORD    
  4    1    
  Si    1.9174226653028643    1.9174226663197278    2.158899120382054    
  Si    7.110297966966804e-10    -6.580485997210543e-10    1.3538563610874585    
  Si    1.0905525836928793e-10    4.969838381760901e-10    5.671654602589915    
  Si    1.917422665877751    1.9174226648630568    4.866611851856951    
  BEGIN_BLOCK_DATAGRID_3D    
  3d_datagrid_density    
  BEGIN_DATAGRID_3D#0    
  17    17    31    
  0.0    0.0    0.0    
  3.834845330751852    -2.1069387999999996e-10    3.9935504689655165e-10    
  -2.1069387999999996e-10    3.8348453305290193    1.924285717241379e-10    
  7.29770996551724e-10    3.516973931034482e-10    7.025510967662299    
  0.279139449435469    0.2591280352444727    0.20895046916694132    0.15085365027696085    0.10227540964989858    
  0.06906476317958252    0.04952063913828894    0.039674228183650594    0.036700516115912796    0.039674238239619145    
  0.04952064464260497    0.06906477230429929    0.10227546586348271    0.15085366585670493    0.20895045018907563    
  0.25912800018034304    0.279139449435469    0.25912785549067263    0.2408334667007506    0.19506180792775046    
  0.14200105884500439    0.09736089549708152    0.06660938002828881    0.04840103274144347    0.03916936256433215    
  0.03635846953519232    0.039169360707273906    0.04840102777291754    0.0666093547213716    0.09736088436108963    
  0.14200104727610208    0.19506186048473634    0.2408334066162622    0.25912785549067263    0.20895047307166797    
  0.1950619567404095    0.16023273470211136    0.11952014335785144    0.08474689847001063    0.06029264017866137    
  0.04551871684750367    0.03787234499114144    0.03550186586949444    0.03787235992773761    0.045518701321908106    
  0.06029268143270807    0.08474690424436121    0.11952012190355546    0.1602327598018125    0.19506190899072282    
  0.20895047307166797    0.1508536454653649    0.14200101324742773    0.11952007196255071    0.09273829548248219    
  0.06935052806223828    0.05245448087493171    0.0419381990732498    0.03636201630797609    0.034601972973721085    
  0.036362031288933665    0.041938193465194264    0.05245446420198192    0.06935053001242188    0.09273828789011593    
  0.11952012379323994    0.14200108308799209    0.1508536454653649    0.10227546883348859    0.0973608805149208    
  0.08474687554198364    0.06935051366320684    0.05556571154542615    0.04534825377376188    0.038805173663683704    
  0.03528188690702093    0.0341768508944213    0.035281878524000033    0.0388051971912232    0.04534825667573042    
  0.055565723180862094    0.06935048754842521    0.08474687722119482    0.09736081834011866    0.10227546883348859    
  0.06906473653048299    0.06660942185727531    0.06029265322068511    0.05245450464142783    0.04534821034471758    
  0.0400922301101982    0.03672512494951167    0.03495269879254734    0.034421601739945046    0.034952706330061575    
  0.03672513054031913    0.04009219642037051    0.045348257257987766    0.05245447324856734    0.06029267275784805    
  0.06660938432014508    0.06906473653048299    0.04952060653539741    0.04840103296884924    0.04551868833424618    
  0.041938201234633134    0.03880518263104848    0.03672512288968603    0.03562630109395313    0.03521768809876119    
  0.035152628763508095    0.03521768781576798    0.03562628386446419    0.036725160292988474    0.038805183212321674    
  0.04193820937054863    0.04551869018279884    0.04840103504672788    0.04952060653539741    0.03967422948306568    
  0.039169375637529    0.03787234421331809    0.03636201496027929    0.03528185377170507    0.03495272583753623    
  0.035217648555309976    0.03567576083222393    0.03589675888013328    0.03567573190108682    0.0352176434946567    
  0.03495269140934079    0.035281881657606345    0.036362008991979326    0.0378723238209196    0.039169388080022224    
  0.03967422948306568    0.03670050623297756    0.0363584832474931    0.035501884285726336    0.03460199063643285    
  0.03417682267417519    0.03442161001021805    0.03515263967022153    0.03589678538659702    0.03621121680303146    
  0.03589679549801928    0.03515265545744604    0.0344216347692416    0.03417682813259565    0.03460197634653113    
  0.035501894038811745    0.036358475197260647    0.03670050623297756    0.039674209698055594    0.03916940057999418    
  0.03787233073499229    0.03636203101502444    0.0352818647753175    0.03495271193587524    0.035217685015559504    
  0.0356757519489268    0.035896752353156765    0.0356757401858687    0.035217687556372515    0.034952688754182636    
  0.03528188737847859    0.03636201703396501    0.037872323446754085    0.039169381212701075    0.039674209698055594    
  0.049520600870745446    0.04840104105058709    0.04551869520144454    0.04193822055104306    0.03880518321474468    
  0.03672513876356456    0.03562629294078993    0.03521770314596195    0.03515264232460478    0.03521769673729525    
  0.03562630036318679    0.03672517609934486    0.03880517429233269    0.041938243477333145    0.04551868100319024    
  0.04840101951415049    0.049520600870745446    0.06906475504574958    0.06660936334836594    0.06029265778142032    
  0.0524545031076599    0.04534822641480267    0.04009221981486022    0.03672513720223928    0.03495270230075057    
  0.034421593674561456    0.03495271851792648    0.03672512804234795    0.04009216519267844    0.04534823280473996    
  0.05245448646193855    0.0602926647120397    0.06660937271410149    0.06906475504574958    0.10227546555246836    
  0.09736089651124888    0.08474682678272032    0.06935054267137908    0.05556572001787387    0.04534825211118731    
  0.038805182241975766    0.03528188807875848    0.034176843586106495    0.03528187979313145    0.038805178577422876    
  0.04534825679686933    0.055565725863414336    0.06935052459715339    0.08474688200085156    0.0973608708784078    
  0.10227546555246836    0.15085367410187964    0.1420010389539447    0.11952007009879057    0.09273830334450697    
  0.06935051947511332    0.052454463556231665    0.04193821072965637    0.03636201053967437    0.03460198050307139    
  0.036362003213692665    0.041938201869027775    0.052454471294940457    0.06935054502709188    0.09273823149119587    
  0.11952010864596294    0.14200102839673298    0.15085367410187964    0.2089504871916461    0.19506187665099334    
  0.1602326842648946    0.11952010443351989    0.08474686942446179    0.06029264750457617    0.045518694216873275    
  0.03787234838788334    0.035501878975269296    0.03787234932011775    0.045518711504849575    0.06029266754337858    
  0.08474688799277667    0.11952012174989206    0.1602327645496935    0.1950619177464144    0.2089504871916461    
  0.2591279590001126    0.24083341270226483    0.1950618390658201    0.14200103761316926    0.0973608422765457    
  0.06660940893329853    0.04840102768214421    0.039169395981643394    0.03635845018788731    0.039169370340137906    
  0.04840102890183903    0.06660934652998525    0.09736089344062997    0.14200098516024576    0.1950618792353202    
  0.2408334506907647    0.2591279590001126    0.279139449435469    0.2591280352444727    0.20895046916694132    
  0.15085365027696085    0.10227540964989858    0.06906476317958252    0.04952063913828894    0.039674228183650594    
  0.036700516115912796    0.039674238239619145    0.04952064464260497    0.06906477230429929    0.10227546586348271    
  0.15085366585670493    0.20895045018907563    0.25912800018034304    0.279139449435469    0.3150337700164878    
  0.2922212589726024    0.2348824725306251    0.16819209723375972    0.11244999511208685    0.07454775586697744    
  0.052374359159382385    0.041334844554250585    0.03804472667383242    0.041334858491642014    0.052374365242845985    
  0.07454778689296883    0.11245003462724062    0.1681921349480263    0.234882464591195    0.2922211952778561    
  0.3150337700164878    0.29222111226675884    0.2714159034739582    0.21910991338187427    0.1581155668863947    
  0.10688265881524116    0.07182390262230273    0.05118119823322868    0.040838242708922674    0.03774201038534144    
  0.04083824634674726    0.05118119791181751    0.07182388094439661    0.10688266055465048    0.15811552285158006    
  0.21910995756417675    0.2714159071052573    0.29222111226675884    0.23488239977132025    0.21911013064882284    
  0.1793132342074772    0.13252295691041188    0.09267484500990264    0.06487985698899519    0.0481710294095278    
  0.039639847243131764    0.03704867203135091    0.0396398656648838    0.048171019148496    0.06487986213717052    
  0.09267486819403008    0.13252291077384287    0.17931327951388412    0.21911007535111196    0.23488239977132025    
  0.16819208529049182    0.15811553341742252    0.13252293187069947    0.10199310401911284    0.07541306960985808    
  0.05634236382294242    0.04454612326523496    0.03836941548328542    0.0364655036486022    0.038369409829486965    
  0.04454611011841428    0.05634236308069069    0.075413098230918    0.10199305259515958    0.13252293083753994    
  0.15811556295468876    0.16819208529049182    0.11245001508194401    0.10688265783640263    0.09267482164495713    
  0.07541310480514986    0.05998385277802333    0.04863878479912862    0.041463675156889784    0.03764738156876992    
  0.03645915007527722    0.0376473829770229    0.041463690460133984    0.048638786943768525    0.059983843746679776    
  0.07541308830342026    0.09267485916300114    0.10688265402423217    0.11245001508194401    0.07454773196164154    
  0.07182392098561807    0.06487984766734604    0.05634240120269668    0.04863874816265687    0.04302415426757422    
  0.03954844875287018    0.03776167386780773    0.037226737010246126    0.03776170505664902    0.03954846070199388    
  0.04302413861130805    0.048638787362752005    0.05634235720250009    0.06487986797102777    0.07182390789926663    
  0.07454773196164154    0.05237432415454987    0.051181209621949136    0.048171012440067836    0.04454612947673752    
  0.04146368448554216    0.03954845476204707    0.03870565319622973    0.03851543778707808    0.038524328239035024    
  0.03851544196702691    0.03870567154577942    0.03954845566376351    0.041463675960506624    0.0445461250640446    
  0.04817100837439599    0.051181230496446635    0.05237432415454987    0.04133484561974892    0.04083827285422402    
  0.03963985101239806    0.03836941606379782    0.037647358102679385    0.03776169373010424    0.038515401947801155    
  0.03935999436067632    0.03973005615365361    0.03935999473035035    0.03851543614267804    0.03776169680782619    
  0.03764740497704435    0.038369407671086014    0.03963984978660344    0.0408382764450499    0.04133484561974892    
  0.038044708720503154    0.037742022503046375    0.037048694035720114    0.036465503055569885    0.03645912710024939    
  0.0372267367812855    0.03852433503690076    0.03973008319105922    0.0402189301459345    0.039730061637760314    
  0.03852435037862403    0.037226748367905585    0.03645912594901613    0.036465513864610354    0.03704869183467875    
  0.037742014174717946    0.038044708720503154    0.04133481718795295    0.040838273314636526    0.039639837892318605    
  0.038369444687671186    0.03764738072196025    0.037761714524776446    0.038515436544379424    0.039359973432867804    
  0.03973005348591588    0.039359983918079    0.03851544996530506    0.037761686748562895    0.03764737985168768    
  0.03836940629160036    0.03963986597955512    0.04083825282537662    0.04133481718795295    0.05237431678636653    
  0.05118122622651227    0.04817100395464353    0.044546143752546966    0.04146368533638408    0.03954846522807902    
  0.038705654213668755    0.038515465108311366    0.03852434047934429    0.03851545320204704    0.03870566755199735    
  0.03954848473836549    0.04146366791940672    0.04454615048223122    0.04817101459250855    0.051181215161546875    
  0.05237431678636653    0.07454774875589969    0.07182389628493918    0.06487985186521017    0.056342417477778906    
  0.04863874342209619    0.04302415519834938    0.0395484558752971    0.03776167004546892    0.03722671050275889    
  0.03776169373096289    0.039548412479365726    0.043024124869384964    0.04863875288858673    0.0563423762465762    
  0.06487986664669983    0.07182393465914438    0.07454774875589969    0.11244998658847756    0.10688268130909064    
  0.09267480293662794    0.07541311326391656    0.05998384725060203    0.0486387558100257    0.041463690930399984    
  0.03764739399335601    0.03645914577116838    0.037647368677795286    0.041463685015990924    0.04863876444832289    
  0.05998387988331154    0.07541311339621036    0.09267486777957944    0.10688265623314701    0.11244998658847756    
  0.1681920748068488    0.1581155937638304    0.1325229005523084    0.10199310359805504    0.07541308675792847    
  0.056342377924292246    0.04454610827550159    0.03836941752289288    0.03646549419045306    0.038369395302090666    
  0.04454611558672745    0.056342378775977656    0.07541311683120622    0.10199304980572803    0.13252296612390466    
  0.15811552115279914    0.1681920748068488    0.23488240775760813    0.21911004325331923    0.17931323213822287    
  0.1325229228067177    0.0926748518308625    0.06487984284023912    0.048171035534821084    0.039639855177678686    
  0.03704867603194273    0.03963986821634799    0.04817104154161423    0.06487986158201522    0.09267485011371014    
  0.1325229491111633    0.17931332276241227    0.21910999025694153    0.23488240775760813    0.2922211479820364    
  0.27141584693488796    0.21910998333708845    0.15811558180155555    0.10688263185979315    0.0718239221878557    
  0.051181187039896624    0.0408382643176003    0.037741981403846346    0.04083825283875661    0.051181181726503204    
  0.0718238853033938    0.10688265740620055    0.15811553920521693    0.21910999906214884    0.27141591561865197    
  0.2922211479820364    0.3150337700164878    0.2922212589726024    0.2348824725306251    0.16819209723375972    
  0.11244999511208685    0.07454775586697744    0.052374359159382385    0.041334844554250585    0.03804472667383242    
  0.041334858491642014    0.052374365242845985    0.07454778689296883    0.11245003462724062    0.1681921349480263    
  0.234882464591195    0.2922211952778561    0.3150337700164878    0.4014664240192453    0.37695217662672464    
  0.3088478152425473    0.22068830574998996    0.14329224121114656    0.09079426427687431    0.06075374938475591    
  0.04619440871544831    0.04194964907342227    0.046194420586382116    0.06075374213372581    0.09079426211718554    
  0.14329232233442493    0.2206882744922131    0.3088477400925353    0.37695213089106683    0.4014664240192453    
  0.37695205580853247    0.3533073861555842    0.28889648673187657    0.20707138347332862    0.13582069597016547    
  0.0874069363807681    0.05947735202179706    0.045836500291229966    0.0418487774716867    0.04583650464751402    
  0.059477342293543296    0.08740695204098627    0.1358207386380792    0.2070712787422496    0.2888966178331712    
  0.35330719006528466    0.37695205580853247    0.3088477070204469    0.2888966842933417    0.23652554657562702    
  0.17226875038813547    0.11686920155640665    0.0787771504058719    0.056294844548280515    0.045094179515808464    
  0.04179756982987502    0.04509418254783969    0.056294852385442774    0.07877716403813086    0.11686922797776107    
  0.17226871751653547    0.2365255688706763    0.2888965626410454    0.3088477070204469    0.22068833120595327    
  0.207071284142103    0.17226869240319514    0.13038553372237785    0.09398882763860761    0.06830242300551576    
  0.0526882376799176    0.04471254905733931    0.04233029129391399    0.04471255212060217    0.05268822160950337    
  0.06830239512272276    0.09398888393259099    0.13038550195124132    0.1722687148104593    0.2070713217075725    
  0.22068833120595327    0.14329231187902597    0.1358207238369331    0.11686921271102901    0.09398884300441974    
  0.07369449118669759    0.059043073214840154    0.050035769510020665    0.045380403234041224    0.0439654326690976    
  0.045380381324078636    0.05003579572977089    0.05904305684421163    0.07369450176871305    0.09398887608490433    
  0.11686923035726547    0.1358206893711861    0.14329231187902597    0.09079423433348782    0.08740698805072557    
  0.07877711960845703    0.06830245120973724    0.05904302562090529    0.05259920938062874    0.04899246426828034    
  0.04734685890393084    0.04688231710653964    0.04734687803177269    0.04899247108839619    0.05259918105469735    
  0.05904304365257291    0.06830242684690052    0.07877715591695778    0.0874069464572337    0.09079423433348782    
  0.06075368966755828    0.059477356655418895    0.0562948120624236    0.052688241263667994    0.0500357667714616    
  0.04899246335440151    0.049316816126164974    0.05012607631961707    0.050516865163256305    0.050126065300347765    
  0.04931678750238911    0.04899248969448161    0.05003576151514287    0.05268824828224005    0.0562948238532757    
  0.05947738014305949    0.06075368966755828    0.04619440270861432    0.04583653058676396    0.045094171219876494    
  0.04471255520440247    0.045380395945623264    0.047346901939841195    0.050126041150891844    0.05260183764633785    
  0.05359275223505392    0.052601824538549724    0.05012605144709101    0.04734686759140807    0.04538039452897005    
  0.04471252508372365    0.04509418413590383    0.045836547839424785    0.04619440270861432    0.041949642212679036    
  0.04184878561502363    0.041797594727596726    0.0423302987129903    0.04396542485521918    0.04688233134798176    
  0.05051687923818757    0.05359280026375668    0.054797551131611104    0.05359274344027253    0.05051688280452247    
  0.046882370244002665    0.04396543815603063    0.042330307809802695    0.04179758440088838    0.04184877174295177    
  0.041949642212679036    0.04619436896174675    0.0458365455552492    0.045094157351979205    0.044712554121350424    
  0.0453804121173433    0.04734688387772128    0.05012604117393287    0.05260179036317375    0.05359277189766457    
  0.052601823061065915    0.05012603355258373    0.04734687681705572    0.04538039535931817    0.044712541114853885    
  0.04509417002493249    0.0458365409343815    0.04619436896174675    0.06075369200322533    0.05947737811000781    
  0.05629482055176995    0.05268825378110088    0.05003577781204388    0.048992458667214    0.04931682481075967    
  0.050126077159703304    0.05051684882581073    0.050126056373661645    0.04931679006967456    0.0489924947710474    
  0.050035759836375995    0.052688276057219895    0.05629483287860055    0.059477352677679965    0.06075369200322533    
  0.09079423739168004    0.0874069474825359    0.07877713749552064    0.06830247428068975    0.05904303186572841    
  0.052599219009814395    0.048992461433863085    0.047346880189928935    0.04688231577928198    0.04734691482839233    
  0.048992447828751506    0.052599185199718373    0.05904302678052236    0.0683024553204492    0.07877715247334896    
  0.08740697005916716    0.09079423739168004    0.1432922764809203    0.13582074991262438    0.11686916335887029    
  0.09398887357114186    0.07369449876114403    0.059043012606507676    0.05003577586740605    0.045380405049363665    
  0.04396543942589495    0.045380400173567544    0.05003578245548441    0.05904303677934999    0.07369451343384743    
  0.09398886425481671    0.11686921985535051    0.13582070004180102    0.1432922764809203    0.22068835705569725    
  0.2070713014823768    0.1722687231312418    0.13038558215379348    0.09398884044323882    0.06830242797466307    
  0.05268823587559607    0.044712528599200815    0.0423302751550418    0.04471252860246222    0.05268824450954655    
  0.06830242515615055    0.09398884862448402    0.13038550485640116    0.1722687261721851    0.20707133937380906    
  0.22068835705569725    0.3088477300505194    0.2888965869853404    0.23652556388651494    0.17226870870168492    
  0.1168692191093939    0.07877713546439921    0.05629485888517452    0.045094185800915926    0.041797571007823636    
  0.04509418148776774    0.0562948313801815    0.07877716027557613    0.11686919586221932    0.17226871079598094    
  0.2365256317359006    0.28889661729402505    0.3088477300505194    0.37695209353021725    0.3533073451154727    
  0.28889659070827745    0.2070712686257428    0.13582067601007897    0.0874069741907458    0.05947733171886243    
  0.04583653344680972    0.041848744807798724    0.045836527541591905    0.05947732293057496    0.08740692803719098    
  0.13582071890152048    0.207071294740478    0.2888965736171967    0.3533072814750259    0.37695209353021725    
  0.4014664240192453    0.37695217662672464    0.3088478152425473    0.22068830574998996    0.14329224121114656    
  0.09079426427687431    0.06075374938475591    0.04619440871544831    0.04194964907342227    0.046194420586382116    
  0.06075374213372581    0.09079426211718554    0.14329232233442493    0.2206882744922131    0.3088477400925353    
  0.37695213089106683    0.4014664240192453    0.41583733872098666    0.4184824595730999    0.3893258583414885    
  0.29812850111406    0.19239325631794646    0.11659402289093165    0.07399576553394882    0.05390377058902107    
  0.04811955577735299    0.0539037753575361    0.07399577438940885    0.11659400223389083    0.19239333905684156    
  0.2981285081871451    0.38932582541454025    0.4184823401903086    0.41583733872098666    0.4184822906693849    
  0.41382527353877135    0.37305354963408976    0.28117083570532647    0.182343031772384    0.11242070588468861    
  0.07282447988524948    0.05395253890781916    0.04849988073610891    0.05395254629494608    0.07282447262722068    
  0.11242072935364968    0.18234304161143103    0.2811707269629823    0.3730537028969007    0.4138251351290014    
  0.4184822906693849    0.38932586088878957    0.3730538366945021    0.3185178115151752    0.2354220882329287    
  0.15651939714949623    0.10164916447306194    0.06992474902244368    0.054446866124369137    0.049938741810732254    
  0.05444685400003363    0.06992475349454183    0.10164913347093413    0.1565193975083347    0.23542211360428192    
  0.31851789212711096    0.37305366918686206    0.38932586088878957    0.29812852052279354    0.2811706840125291    
  0.23542207430636347    0.17710358759842088    0.12517051144380603    0.0888066421611883    0.06716671712863584    
  0.056335894095576385    0.05315340787261197    0.05633590216657791    0.06716667964350923    0.0888066104905829    
  0.1251705681445231    0.17710359905209366    0.23542211152153097    0.2811707906616775    0.29812852052279354    
  0.19239327957862903    0.18234305184481966    0.15651934669823767    0.12517053294731972    0.09758838707854722    
  0.07805264600580351    0.06640031093910836    0.060624358815010576    0.05893503640995641    0.060624339742880305    
  0.0664003433344834    0.07805265119846838    0.09758836575314588    0.12517054329704966    0.15651939559555816    
  0.18234304829026274    0.19239327957862903    0.1165939980239857    0.11242078739085971    0.10164911869640321    
  0.08880664100027548    0.07805260743289129    0.07123952012692    0.06821427098424987    0.06744756997683066    
  0.06738214945073688    0.06744751520180052    0.0682142554407187    0.07123951608688461    0.07805260790188866    
  0.08880663652903978    0.10164915171519386    0.11242072475892392    0.1165939980239857    0.07399572521797412    
  0.0728244790659005    0.069924720911088    0.06716673626987556    0.06640031268864104    0.06821425658299737    
  0.0718998843630932    0.07554919796660782    0.07704750047905547    0.07554918617787203    0.0718998135557841    
  0.06821429967666369    0.06640031499533568    0.06716671941551139    0.06992471383573164    0.07282451813314723    
  0.07399572521797412    0.05390376400938733    0.05395257636576855    0.05444685343596411    0.056335896467166816    
  0.06062435561267909    0.06744758070558611    0.07554917085276035    0.08234587339980683    0.08501580244951157    
  0.08234586401006302    0.07554917649516195    0.06744752277612168    0.060624341284809306    0.0563358779338388    
  0.05444685348321049    0.05395258491204909    0.05390376400938733    0.04811955823558294    0.04849987818923986    
  0.049938772447055815    0.053153417482092014    0.058935019488271005    0.06738216362912114    0.0770475356396886    
  0.08501581152718388    0.0881269488131529    0.08501580060920808    0.07704752933637174    0.06738220325994354    
  0.058935027371920905    0.05315341550231443    0.0499387662964891    0.04849986303882631    0.04811955823558294    
  0.05390374343876259    0.05395257926370853    0.05444684665718457    0.05633590866295464    0.06062436748336987    
  0.06744753570579014    0.07554920426886627    0.08234581692064304    0.08501582423080782    0.08234585277917908    
  0.07554919460765619    0.06744754181663826    0.06062437891412636    0.056335890096009374    0.05444685589870434    
  0.053952576567613084    0.05390374343876259    0.07399570335361441    0.0728245034637342    0.06992472013018054    
  0.0671667491824934    0.06640030603911601    0.06821426526120451    0.07189985158135713    0.07554921382610195    
  0.0770475198475042    0.07554919828029383    0.07189984537283722    0.06821430128245648    0.06640028959878634    
  0.06716675730602015    0.0699247313977671    0.07282447512809785    0.07399570335361441    0.11659398238975179    
  0.11242070351907857    0.10164914393806808    0.08880667353565459    0.07805260267115437    0.07123953094982624    
  0.06821426325244218    0.0674475388281349    0.06738213928002308    0.0674475733976608    0.06821423970607775    
  0.07123948504736533    0.07805261015478074    0.08880663596333298    0.10164915862291277    0.11242073747473066    
  0.11659398238975179    0.19239326385484726    0.18234311009498252    0.156519358901963    0.1251705558360563    
  0.09758839893643978    0.07805261465363093    0.06640031735671771    0.060624383831515055    0.0589350516907022    
  0.060624367339800464    0.06640029864831964    0.07805262047026043    0.09758839769736091    0.12517053145775858    
  0.1565194048996061    0.1823430474551066    0.19239326385484726    0.2981285501856107    0.2811707145631072    
  0.23542210597454757    0.1771036300982831    0.12517052466036188    0.0888066389673577    0.06716670549762145    
  0.056335852243834916    0.05315338711974294    0.056335882301406084    0.06716672282412929    0.0888066191327017    
  0.1251705419637484    0.17710358377866178    0.23542207417102942    0.2811707262738256    0.2981285501856107    
  0.38932590865584954    0.3730536895519341    0.3185178529279528    0.23542208534940104    0.15651938822499895    
  0.10164913623976626    0.06992476833465051    0.05444687365688895    0.04993875043098661    0.05444687442956092    
  0.06992476448501374    0.10164914495714852    0.15651934336001241    0.23542211889785974    0.3185178817571494    
  0.3730537044147462    0.38932590865584954    0.41848235773862563    0.4138252721635173    0.37305362259230773    
  0.28117070701242614    0.18234301479539883    0.11242076492810178    0.0728244572806448    0.05395255859930997    
  0.04849983680687088    0.053952569827904896    0.07282445218336694    0.11242071110784857    0.1823430692623024    
  0.2811707507939852    0.3730537337113973    0.4138251839422171    0.41848235773862563    0.41583733872098666    
  0.4184824595730999    0.3893258583414885    0.29812850111406    0.19239325631794646    0.11659402289093165    
  0.07399576553394882    0.05390377058902107    0.04811955577735299    0.0539037753575361    0.07399577438940885    
  0.11659400223389083    0.19239333905684156    0.2981285081871451    0.38932582541454025    0.4184823401903086    
  0.41583733872098666    0.24828951100466606    0.30011170497812406    0.3886642904845362    0.36526056343845215    
  0.24857196726566977    0.14767749126010646    0.09017586811401689    0.06358079195705939    0.05601162434805533    
  0.06358078073098858    0.09017584003717194    0.1476775310046122    0.24857203170932868    0.3652606014795559    
  0.38866417848181634    0.3001116133346795    0.24828951100466606    0.30011152824667864    0.341384027826129    
  0.3976684392736032    0.35147649444982937    0.23676654802157202    0.14296150368197394    0.08944830790870983    
  0.06441573408612944    0.05724139386024751    0.06441573714731519    0.08944830886371206    0.14296148073790113    
  0.23676654423067053    0.3514764653471465    0.3976685804459204    0.34138400481379955    0.30011152824667864    
  0.3886641522615136    0.39766864633802734    0.38352900769912734    0.30522257073261677    0.20525610725376153    
  0.1308880479904538    0.08810523364056352    0.06754887025076475    0.061579996284256935    0.06754889011939628    
  0.0881052231924414    0.13088805956783195    0.20525611205332944    0.3052225365657732    0.3835290724390844    
  0.39766859910005786    0.3886641522615136    0.3652606284351083    0.35147641401778895    0.30522258856733353    
  0.23433213115942791    0.16587420282193063    0.11721954200365745    0.08861160125492375    0.07451825380622464    
  0.07040279464690927    0.07451823091494562    0.08861157635375522    0.1172195280222574    0.16587421048416742    
  0.23433208929274657    0.30522257472363556    0.3514764457254172    0.3652606284351083    0.24857199749803194    
  0.23676659689526453    0.20525611670038282    0.16587421759661256    0.13123268711681227    0.10713784456750988    