#     DFTpy    
  CRYSTAL 
    
  PRIMVEC    
  7.489655172413793    0.0    0.0    
  0.0    7.489655172413793    0.0    
  0.0    0.0    7.489655172413793    
  PRIMCOORD    
  8    1    
  Si    0.0    0.0    0.0    
  Si    1.8724137931034484    1.8724137931034484    1.8724137931034484    
  Si    0.0    3.7448275862068967    3.7448275862068967    
  Si    1.8724137931034484    5.617241379310346    5.617241379310346    
  Si    3.7448275862068967    0.0    3.7448275862068967    
  Si    5.617241379310346    1.8724137931034484    5.617241379310346    
  Si    3.7448275862068967    3.7448275862068967    0.0    
  Si    5.617241379310346    5.617241379310346    1.8724137931034484    
  BEGIN_BLOCK_DATAGRID_3D    
  3d_datagrid_density    
  BEGIN_DATAGRID_3D#0    
  33    33    33    
  0.0    0.0    0.0    
  7.489655172413793    0.0    0.0    
  0.0    7.489655172413793    0.0    
  0.0    0.0    7.489655172413793    
  0.10657741282331315    0.18045065034361385    0.4038077412258489    0.515186153012519    0.3594916166349038    
  0.1806680169716166    0.08149489489976026    0.03748949870863024    0.01929867330813192    0.011820756547614828    
  0.008667368668670215    0.007368533727089294    0.006902450547302939    0.006817906066641075    0.006877320204595398    
  0.0069639698443024825    0.007002887404175054    0.006963972133555944    0.006877322152796567    0.006817907347809386    
  0.006902457296845625    0.007368531379861871    0.008667374598579788    0.01182074151365755    0.019298707615303157    
  0.037489471506515555    0.08149494473318511    0.18066790000839703    0.3594917231980997    0.5151861039030449    
  0.40380775850824047    0.18045067209510846    0.10657741282331315    0.18045065642851177    0.26070608321812994    
  0.45603833642337643    0.5039864787439547    0.3354718300469058    0.16841053773161502    0.0770571890504628    
  0.03618746015489253    0.019053060315914416    0.011886820003802768    0.008803680645112435    0.007496584160162538    
  0.006991667845302045    0.006861922648671762    0.00688080977419891    0.006938104091008231    0.006963964320473285    
  0.006938102718924332    0.006880802394065869    0.006861926420132321    0.006991675086021997    0.007496595072934253    
  0.008803667255267872    0.011886835302483108    0.019053028370701833    0.03618750283598427    0.07705711849120729    
  0.16841058183522617    0.3354717779215541    0.5039865374310132    0.45603830962280195    0.2607060866706974    
  0.18045065642851177    0.403807843498689    0.4560384015894662    0.5209063993085664    0.4410700414915331    
  0.2701698901377058    0.13719071701596908    0.06578615417751042    0.032875909076345945    0.018473148851293274    
  0.012129019097556494    0.009236082691666172    0.007897085649351042    0.007276240840726096    0.00700960264924865    
  0.006909318517936496    0.006880808485316971    0.006877323478223221    0.006880817887880649    0.006909312642554728    
  0.007009606916667076    0.007276237476953035    0.007897082271762274    0.009236084256529085    0.012128993395727816    
  0.01847317925825958    0.03287587971033578    0.06578618227768684    0.13719065997143215    0.2701699841972888    
  0.44106996646568414    0.5209064445737026    0.45603833448278047    0.403807843498689    0.5151860252223033    
  0.5039865272695491    0.4410700476129144    0.3158365676381156    0.18732216925491268    0.09975708832032332    
  0.05207973277440872    0.0288290434854139    0.017903698253454215    0.012662363759626436    0.010017860558354937    
  0.008600934088570223    0.007781105671928901    0.007294183085810442    0.007009604696064378    0.0068619363006959585    
  0.006817900607424749    0.006861930253124017    0.007009604781385517    0.00729418832525254    0.0077810932848861045    
  0.00860094726483965    0.010017847349204632    0.012662377141713333    0.017903678586996898    0.02882908123201692    
  0.05207969018990852    0.09975714594080416    0.1873221102397261    0.3158366308328301    0.4410699055269465    
  0.5039865574310227    0.5151860252223033    0.35949169947480397    0.33547179426210316    0.2701699118209873    
  0.18732216402401436    0.11557263984963849    0.06742617793772838    0.03980100662747639    0.02521979998990422    
  0.017669381570284373    0.013580350599564611    0.011181008537756956    0.009627636821907504    0.008542120098402823    
  0.007781085467777536    0.0072762488861312855    0.00699165222037582    0.006902459666073763    0.0069916528576184495    
  0.007276241583934721    0.007781091285711431    0.00854213157848878    0.009627632961128896    0.011181008451045065    
  0.013580331043493656    0.017669418809915946    0.025219777247377548    0.03980105921723563    0.06742613157003115    
  0.11557267780603189    0.18732213755628352    0.2701699230680336    0.33547170032254536    0.35949169947480397    
  0.18066795596280227    0.1684105802969418    0.1371906616715616    0.09975710267992778    0.06742618351146619    
  0.04473582854417884    0.03074877771670695    0.02265120883983294    0.017903695017367167    0.014871565858889437    
  0.012697381649252907    0.010988320884872145    0.009627631081910601    0.008600951148058788    0.007897065294431474    
  0.007496607314660554    0.007368514063295313    0.007496612034021831    0.007897070675112458    0.008600959742021035    
  0.00962763028836092    0.01098832782299518    0.012697358844417117    0.014871568971430313    0.01790366768523479    
  0.022651248329500027    0.030748736897455234    0.04473585910864246    0.0674261645459724    0.09975713092156692    
  0.13719063673832332    0.168410602379439    0.18066795596280227    0.08149497706384518    0.0770571367611491    
  0.06578616935569714    0.05207970935269002    0.039801034435324    0.0307487819373358    0.024822347792047648    
  0.021060518414676266    0.01847316585729392    0.016385200586361073    0.014472202243339873    0.012697366126936524    
  0.011181024034257263    0.010017839319546576    0.00923611154514839    0.008803647189570647    0.008667401341918578    
  0.008803649873650468    0.009236109880027236    0.010017847627801953    0.011181030355665911    0.012697370817112447    
  0.014472196125741339    0.016385177250355862    0.018473188026269353    0.021060491247290012    0.02482236041379087    
  0.030748746473796277    0.03980106814753357    0.05207969890074091    0.06578621523991948    0.07705711991978201    
  0.08149497706384518    0.03748945361380511    0.03618748276632574    0.03287587589259959    0.02882905770446519    
  0.025219785980828736    0.022651222541988095    0.021060510426975994    0.0200176096871781    0.019053027373960047    
  0.0178529489917305    0.01638518101445897    0.014871579384814019    0.013580312258667291    0.012662401696856306    
  0.012128970776785916    0.01188686982709354    0.011820708360281974    0.011886863707452367    0.012128966963907162    
  0.012662404663624295    0.013580312216165227    0.014871593070865894    0.016385164046186135    0.017852962949451295    
  0.019052998030048715    0.020017649138927385    0.021060480368618958    0.022651238988748934    0.025219772331565766    
  0.028829078541118325    0.03287587061654315    0.036187484259825424    0.03748945361380511    0.019298700249497147    
  0.01905303368610287    0.018473156475813237    0.0179036867143299    0.017669392849618895    0.0179036768635326    
  0.01847316537687595    0.019053017469521087    0.01929871389019891    0.019053004812652916    0.018473194582295308    
  0.017903647537915655    0.017669432351694263    0.01790364055244401    0.018473211140718596    0.019052971558261383    
  0.019298741336192856    0.01905298020156902    0.018473204590937157    0.017903634336317514    0.01766944160699613    
  0.017903644689401938    0.018473184952179228    0.019052997361102036    0.019298739407719062    0.019053003441645393    
  0.018473189107294678    0.017903666446835238    0.017669411785783757    0.01790367635797314    0.018473168767843485    
  0.019053015017021124    0.019298700249497147    0.011820735682348937    0.011886840793497316    0.012128993488010352    
  0.012662366696356302    0.01358034253777675    0.0148715644619094    0.016385191122118323    0.017852942725827704    
  0.019053016761025606    0.020017646771841414    0.021060482804854317    0.022651256251777985    0.02521972312979286    
  0.028829122222586892    0.03287580081295722    0.03618757303832952    0.03748938149009448    0.03618756778053626    
  0.03287580125078243    0.028829136451169322    0.02521974331758766    0.022651275233760405    0.02106045451741639    
  0.020017651655072143    0.019052985460031934    0.017852974486050326    0.016385169802016177    0.014871581840017786    
  0.013580322255333075    0.012662381655309361    0.012128988057086496    0.011886845124537245    0.011820735682348937    
  0.008667390222700072    0.008803668652725052    0.00923608620393054    0.01001785470772551    0.011181019600458426    
  0.012697391373226233    0.014472190386223353    0.01638518149954043    0.01847319175840133    0.021060480595079683    
  0.024822382979970314    0.030748699082985748    0.03980113547006972    0.05207958831523768    0.06578630182390854    
  0.07705698590418515    0.0814950966014005    0.07705699047895889    0.06578629208482745    0.052079618349979026    
  0.0398011164560483    0.030748702494135315    0.02482239503623466    0.021060463294466435    0.01847321321012638    
  0.016385178631827348    0.014472206840379954    0.012697368505628756    0.011181021540075718    0.010017859097940358    
  0.009236086376705196    0.008803663445974831    0.008667390222700072    0.007368517496821566    0.007496598320932712    
  0.007897078086553964    0.008600940069342942    0.009627640202993485    0.010988321135952236    0.012697371389599275    
  0.014871571834647396    0.017903662449378143    0.022651266376655307    0.03074870792092084    0.04473590678155908    
  0.06742604628675176    0.09975727410728023    0.13719047762026743    0.16841081144012857    0.18066771681379012    
  0.16841079264173825    0.13719046672525212    0.09975730703864176    0.06742604687652551    0.044735918277980985    
  0.030748686945292952    0.02265127366441928    0.017903643313785647    0.014871596923251091    0.012697347919710326    
  0.010988339531553246    0.009627624355478287    0.0086009639674439    0.007897070391486115    0.007496600576551681    
  0.007368517496821566    0.006902460566703088    0.006991666506517628    0.007276241551695146    0.007781090443967729    
  0.008542128844131455    0.009627636228053108    0.011181017641259677    0.01358031664408333    0.01766942932798292    
  0.02521974419884343    0.03980111075438615    0.06742604409858932    0.11557280171746023    0.1873219076223007    
  0.270170241158116    0.3354714016761546    0.35949202557785764    0.3354713869177359    0.27017015401153355    
  0.18732192531265435    0.11557281812775187    0.067426066763735    0.0398011224499741    0.02521972974441408    
  0.01766944107850561    0.013580309177099905    0.01118103251536149    0.009627612090175533    0.008542136449784691    
  0.007781096219689605    0.007276243299021213    0.00699165511831632    0.006902460566703088    0.006817897171786749    
  0.00686193938328535    0.007009594475104957    0.007294185849921543    0.007781098229068614    0.008600948287076832    
  0.01001784046520639    0.01266238099453344    0.017903659566326828    0.028829121843613276    0.05207962643156035    
  0.09975728032519658    0.18732191640567475    0.315836876089489    0.4410695690583327    0.5039869442939399    
  0.5151855876648934    0.5039869479856951    0.4410695188829533    0.3158369052588215    0.1873219192749969    
  0.09975729215302355    0.05207961311691953    0.028829138463446705    0.017903635809746295    0.012662413162311908    
  0.01001783225421012    0.00860096465242191    0.007781080495789873    0.0072941933469432155    0.007009600575135702    
  0.00686194361709251    0.006817897171786749    0.006877332967398597    0.0068808144298981395    0.0069093037327037565    
  0.0070096085424771895    0.007276248303289084    0.007897084962409947    0.009236096672934785    0.012128975936205974    
  0.018473196193663506    0.03287583394401561    0.0657862896927498    0.13719048237811066    0.2701702007582633    
  0.44106964424482803    0.5209068807502721    0.4560379578549879    0.4038082414431351    0.4560379393625777    
  0.5209068110862816    0.4410696233480223    0.2701701618509112    0.13719051028149848    0.06578628647954089    
  0.032875812908548116    0.01847321819405597    0.012128976990572159    0.009236111381153154    0.007897059223347429    
  0.007276250070682762    0.007009603338727167    0.0069093121732759265    0.006880803467703786    0.006877332967398597    
  0.0069639616975464705    0.006938101403389426    0.006880812598182796    0.006861927947222795    0.006991670701344595    
  0.0074965978965226155    0.008803660590961673    0.011886843719678354    0.01905300549280627    0.03618754689681259    
  0.077057023184864    0.16841075148160162    0.3354714056272685    0.5039868577047589    0.4560379326054426    
  0.2607064699094814    0.18045033455091308    0.2607064586957109    0.4560379254636536    0.5039869949092721    
  0.33547148414047206    0.16841079829587052    0.07705698816070393    0.03618756212414063    0.019052991986524617    
  0.0118868670160452    0.008803652423820758    0.007496613176010814    0.006991652621595346    0.006861945944265401    
  0.006880805057003484    0.0069381093364384635    0.0069639616975464705    0.007002878367927363    0.006963974386271204    
  0.006877316231239784    0.0068179060963356845    0.006902453778303616    0.00736852556312394    0.008667383669499252    
  0.011820723719031062    0.019298728914961382    0.037489424658672006    0.08149505051517435    0.18066776769640683    
  0.3594919591165245    0.5151856411458902    0.40380817649071    0.18045033398652663    0.10657768195139801    
  0.18045033909355723    0.40380820261559214    0.5151857431307016    0.35949195523067984    0.1806677422732201    
  0.08149504223497701    0.037489402112780956    0.019298737695623774    0.01182071801462117    0.0086673936992504    
  0.007368511532126366    0.006902458920167873    0.006817910203819954    0.006877316543550243    0.006963960782554222    
  0.007002878367927363    0.006963980133616753    0.006938094285895822    0.006880814049338536    0.006861921634598419    
  0.006991680167651004    0.007496585514763811    0.008803666348155586    0.011886835730349135    0.019053019507912477    
  0.03618753713890069    0.07705705579624393    0.16841073314104385    0.33547146213007656    0.5039869006602619    
  0.456037946126798    0.2607064638519119    0.1804503688659307    0.26070643171461366    0.4560379665893875    
  0.5039869206485691    0.335471459238627    0.16841074621314986    0.07705702596284139    0.036187549832971906    
  0.019053003334175977    0.01188686222587146    0.008803654919994823    0.007496598798571267    0.00699166594902618    
  0.006861930584667637    0.006880816402478472    0.006938099122799257    0.006963980133616753    0.0068773160433954    
  0.006880822930929491    0.00690929479297192    0.007009619603480107    0.007276236314527932    0.007897096968811069    
  0.00923607420866651    0.01212900209887537    0.01847317447170981    0.032875864837026376    0.065786223181436    
  0.137190547905444    0.2701701583076113    0.4410696813745066    0.5209068310882188    0.45603800669498284    
  0.4038082071028261    0.4560380228275311    0.520906746756687    0.44106971541473244    0.27017010594956703    
  0.1371905614573013    0.06578624489278216    0.03287584249645613    0.018473188695381785    0.012128993360481302    
  0.009236097439032734    0.007897074834723924    0.007276231533007811    0.00700961182410093    0.00690929100396435    
  0.006880812828329586    0.0068773160433954    0.0068179189242679695    0.006861907806665105    0.007009622059811285    
  0.007294156527239536    0.0077811216770400085    0.008600915785719577    0.010017870354532176    0.012662364925434178    
  0.0179036832687903    0.028829071435250767    0.05207967480951449    0.09975719689549613    0.1873220167309086    
  0.31583681894120547    0.44106971202100165    0.5039868702621303    0.5151857592530393    0.5039867983383775    
  0.4410697419081208    0.31583681579405576    0.1873220054422297    0.09975721206674366    0.05207964358744497    
  0.028829085690056943    0.017903676636268413    0.012662380848840677    0.010017864430859063    0.008600930292625765    
  0.00778110981614065    0.007294173413818902    0.007009622735128364    0.006861916661226412    0.0068179189242679695    
  0.006902431706366167    0.006991689309338412    0.0072762090766387835    0.007781123642810406    0.008542101794487897    
  0.009627665169207598    0.011180982900490508    0.013580353710797214    0.017669385159187943    0.025219787607057835    
  0.03980105417601763    0.06742611938382749    0.11557273578110552    0.18732202323473832    0.2701701081208252    
  0.33547152916112477    0.3594918703395332    0.3354715151080406    0.2701700977845118    0.18732200952099537    
  0.11557274776184179    0.06742611156100267    0.039801067395893036    0.025219770343179876    0.017669398075473474    
  0.013580348116265326    0.011181004659112884    0.00962764284635604    0.008542103201143075    0.007781120203441866    
  0.007276211262551373    0.006991680848242091    0.006902431706366167    0.007368559291407954    0.007496566448461813    
  0.007897111878212954    0.00860090813305683    0.009627673641678663    0.01098828366453575    0.012697396824008349    
  0.014871524438560315    0.017903706270500707    0.022651209805556637    0.030748761608804725    0.04473586425190369    
  0.06742611435876239    0.0997571903317538    0.13719057394011788    0.1684107112057315    0.1806678595919464    
  0.168410731688116    0.1371905502684286    0.09975720431476215    0.067426108905702    0.0447358713795234    
  0.030748732622425626    0.022651228331231895    0.017903684217548507    0.014871553593781164    0.012697397675751634    
  0.01098830209641716    0.009627660982022382    0.008600922655101297    0.007897104245395917    0.007496572444671843    
  0.007368559291407954    0.008667353712686126    0.008803705090929145    0.009236050919000609    0.01001789536905044    
  0.011180977809399903    0.012697429328457974    0.01447215196029509    0.01638524084508143    0.01847314776245335    
  0.02106052213286857    0.024822341190999995    0.030748761384918107    0.03980106571035102    0.05207965913657189    
  0.06578624013034634    0.07705705435494432    0.08149502093254074    0.07705707816114614    0.06578623031519845    
  0.0520796721031381    0.03980105819717591    0.030748759817951308    0.024822355802817754    0.021060506049212373    
  0.018473160751516757    0.016385224268663665    0.014472172706112172    0.012697403168605148    0.011180985774618402    
  0.010017894364184605    0.009236058384013876    0.008803698508936237    0.008667353712686126    0.011820772413702461    
  0.01188679671994292    0.012129038045657866    0.01266233238004295    0.013580381551475139    0.014871520204935837    
  0.016385227972419196    0.017852904236984154    0.019053061847080527    0.02001760218470035    0.02106051404773257    
  0.02265122908785003    0.02521978400196285    0.028829071811207453    0.032875847403942955    0.03618752332262668    
  0.037489436161999734    0.036187522996159543    0.03287584435605118    0.028829090686306458    0.02521977907839696    
  0.022651239783983833    0.021060495906142594    0.020017612670704656    0.019053038215649822    0.017852922841029656    
  0.01638521957499209    0.014871530103601914    0.013580363308895126    0.012662345190051438    0.012129029257000911    
  0.011886796110114803    0.011820772413702461    0.019298652941020455    0.01905307922046643    0.018473103621625464    
  0.017903731234657872    0.01766935139736257    0.01790372802056914    0.018473112932568467    0.01905306672603796    
  0.01929866616306749    0.01905305341933026    0.018473140796481626    0.01790369322488036    0.017669397087580047    
  0.017903673954271605    0.018473174498423887    0.01905300444537003    0.019298710690926466    0.019053010112271226    
  0.018473172668356828    0.017903668663938877    0.01766940661882856    0.01790368306124912    0.0184731543737236    
  0.01905303881974434    0.019298684429574747    0.019053051509331235    0.01847314389709977    0.01790370914353464    
  0.017669360405375815    0.017903726618910605    0.01847311828187938    0.019053065317775765    0.019298652941020455    
  0.03748952318089969    0.036187426512316684    0.0328759266593465    0.02882900547181012    0.02521984671176259    
  0.02265117154099801    0.021060558926459375    0.02001757497827084    0.019053075742684607    0.017852912114192144    
  0.01638522202622272    0.014871548322454495    0.013580343802597317    0.012662373787761807    0.01212899773717759    
  0.011886845080830925    0.011820733609103413    0.011886846693639864    0.012128990182025698    0.012662377652477106    
  0.013580351270637532    0.01487156305840098    0.016385197455157607    0.017852917818655417    0.019053040288080865    
  0.020017609434810974    0.021060522631749606    0.022651181326557326    0.025219823644819308    0.028829010679489984    
  0.03287591737198797    0.036187429269460565    0.03748952318089969    0.08149488193852876    0.0770572088759875    
  0.06578610413214782    0.052079780947612474    0.03980098265314203    0.03074882659742019    0.024822299505498087    
  0.021060555275147573    0.018473132704365614    0.016385235936925056    0.014472161865012503    0.012697400015235396    
  0.011181001484360001    0.010017864332674462    0.009236088985056694    0.008803671129570843    0.00866738366434776    
  0.008803669463598365    0.009236091422369403    0.010017858777568906    0.011181007457486335    0.01269740306382488    
  0.01447217041531877    0.016385203669015656    0.018473155282750283    0.021060542017064626    0.024822328163398407    
  0.030748802721876505    0.03980100566748145    0.052079769641319065    0.06578609825999213    0.07705719226932284    
  0.08149488193852876    0.18066804988613808    0.16841047150353608    0.13719073601839624    0.09975705297041638    
  0.0674262500736167    0.0447357615880672    0.03074881371817806    0.02265117520181253    0.017903713885816488    
  0.01487153528569422    0.01269740073555964    0.010988292775421307    0.009627650040060665    0.00860093419815759    
  0.0078970887738844    0.007496598695802994    0.007368527740625558    0.0074965911457200735    0.007897087161389335    
  0.00860093612309752    0.009627643014924152    0.010988313672913086    0.012697390005648772    0.014871550252486616    
  0.017903702268222407    0.022651205624881137    0.030748796168451806    0.04473579660389515    0.06742620685208481    
  0.09975706140158982    0.13719073037784987    0.16841050053276718    0.18066804988613808    0.3594915589330324    
  0.3354718412054119    0.2701698230182127    0.18732224411204287    0.11557259795668617    0.06742624739137754    
  0.03980097003669914    0.025219828749913107    0.017669359734453015    0.013580368225047799    0.011180982106619964    
  0.00962765176102388    0.008542110750176779    0.00778110245927604    0.007276233452002846    0.006991668560377062    
  0.006902442025854194    0.006991666850478635    0.007276232804164562    0.007781099895199611    0.008542114639972308    
  0.009627651340008345    0.011180991310008732    0.013580343895112366    0.017669388716748644    0.025219812741530342    
  0.03980101376332122    0.0674261793466252    0.11557261213015785    0.18732223467170184    0.2701698134005419    
  0.3354718934048076    0.3594915589330324    0.5151861845174308    0.503986397488751    0.4410700914230967    
  0.3158364905603773    0.18732228058485373    0.09975705563148485    0.05207978391818885    0.02882902781413935    
  0.017903731063384998    0.012662348155629848    0.01001788447782768    0.008600920324637561    0.007781108269991442    
  0.007294170789903599    0.007009616426226482    0.006861922404876583    0.006817909236957678    0.00686192402099969    
  0.007009604077091312    0.007294175735991127    0.0077811030861210636    0.008600942098695484    0.010017872111776965    
  0.012662353497491275    0.01790370463915497    0.02882905486131632    0.05207973282403057    0.09975706549213288    
  0.1873221969604552    0.3158365076224716    0.44107000532575863    0.5039864120670912    0.5151861845174308    
  0.40380776382783895    0.45603849322502765    0.5209063539084481    0.4410701132389376    0.2701698775577453    
  0.1371907614565812    0.06578611340804594    0.03287593720392498    0.01847314222383057    0.012129027058911302    
  0.009236072799336898    0.00789708713637182    0.007276231682633338    0.0070096127200041354    0.006909309227707442    
  0.006880812296988889    0.006877321740110847    0.006880812629913569    0.0069093004838408365    0.007009611086033782    
  0.007276234845341029    0.007897084646458363    0.009236075951696857    0.012129008355971752    0.018473162500996936    
  0.032875891949400986    0.06578616173971918    0.13719066928591847    0.2701699210510912    0.44107005114223335    
  0.5209063596403131    0.45603844605554167    0.40380776382783895    0.18045066544130267    0.2607060269696735    
  0.45603838917429945    0.5039864286772339    0.3354718020754805    0.1684105196590771    0.077057172568686    
  0.03618744246067695    0.01905306202298051    0.011886819399112606    0.008803683141651362    0.007496584800739873    
  0.00699167250785868    0.00686192124883168    0.006880815756777187    0.0069381036457776945    0.0069639734810138815    
  0.006938096109902865    0.006880812733785953    0.00686192962106961    0.006991668661502002    0.007496590603143761    
  0.008803670676751793    0.011886828658090567    0.019053042496695035    0.036187488853359394    0.07705712723434541    
  0.16841056615524808    0.3354718046768795    0.5039864575378162    0.45603831931551225    0.26070606626237147    
  0.18045066544130267    0.10657741282331315    0.18045065034361385    0.4038077412258489    0.515186153012519    
  0.3594916166349038    0.1806680169716166    0.08149489489976026    0.03748949870863024    0.01929867330813192    
  0.011820756547614828    0.008667368668670215    0.007368533727089294    0.006902450547302939    0.006817906066641075    
  0.006877320204595398    0.0069639698443024825    0.007002887404175054    0.006963972133555944    0.006877322152796567    
  0.006817907347809386    0.006902457296845625    0.007368531379861871    0.008667374598579788    0.01182074151365755    
  0.019298707615303157    0.037489471506515555    0.08149494473318511    0.18066790000839703    0.3594917231980997    
  0.5151861039030449    0.40380775850824047    0.18045067209510846    0.10657741282331315    0.1804506602882348    
  0.2607060785558636    0.45603845324666037    0.5039863823820702    0.33547186772459414    0.16841053752836938    
  0.07705716206199069    0.03618745718249166    0.01905305368023909    0.011886819878183885    0.00880367919376455    
  0.007496580973911792    0.00699166893740346    0.0068619290594008975    0.00688080792959834    0.006938104600796193    
  0.006963969630425706    0.006938100977015519    0.006880813880250812    0.0068619357723725466    0.006991675336773573    
  0.007496588916621366    0.00880366409876314    0.011886834945088093    0.019053048674124967    0.036187487765117626    
  0.07705710709432363    0.16841054588701804    0.3354718024677952    0.5039865037852709    0.456038336596211    
  0.26070606824703363    0.1804506602882348    0.2607060944078607    0.3376843165775943    0.49260960079342914    
  0.48799474992949593    0.3145342308372663    0.15924060378336016    0.0748546299793705    0.03650065686053005    
  0.020017604956882987    0.012898997676830483    0.00969020519127239    0.008212304619263007    0.00752868762581871    
  0.007223832508330181    0.007084669156315768    0.007011252325978299    0.006938096928666974    0.006834161185632001    
  0.00671172790891528    0.006630696241038116    0.006699595660585696    0.007131409306329171    0.008320920658668803    
  0.011181214707946821    0.017852935943696944    0.03374116676892155    0.0714654514670143    0.1554902371599933    
  0.31096162509433617    0.4856996420771018    0.4921784580897049    0.33786507123463616    0.2607060944078607    
  0.45603837100828676    0.4926096878527422    0.5191448689828884    0.41910523211954953    0.25566992541794387    
  0.13308369283938218    0.06672246460981997    0.035330771823850596    0.021060526253874085    0.014436371580129791    
  0.01115451180665233    0.009409033328543478    0.00839690709716838    0.007771061320797074    0.00736162641528323    
  0.007084678992633444    0.006880799185435913    0.006711743513005717    0.006578744088613819    0.006515243382591625    
  0.0066062853174874755    0.0070300911304304915    0.00812407352580546    0.010660229233304891    0.016385203829837738    
  0.029532537208548214    0.059720929384701374    0.12528450410076983    0.2481749253792064    0.413786406259023    
  0.5169667470058282    0.49217856372676555    0.45603837100828676    0.5039864931759402    0.4879946655864092    
  0.4191052505718888    0.2993383005585702    0.18150936287318717    0.10116371724500224    0.05647332200589488    
  0.033868744813742746    0.02265121436960169    0.016791535361420303    0.013410458794009521    0.011231043815052869    
  0.009688523545767859    0.008568992972407688    0.007771076353278465    0.007223826909778061    0.006861933143025974    
  0.006630685690234433    0.0065152437101442485    0.006519238227519645    0.006689812352328858    0.007154185886465968    