#     DFTpy    
  CRYSTAL 
    
  PRIMVEC    
  4.006344827586206    0.0    0.0    
  0.0    4.006344827586206    0.0    
  0.0    0.0    4.006344827586206    
  PRIMCOORD    
  2    1    
  Si    0.0    0.0    0.0    
  Si    2.003172413793103    2.003172413793103    2.003172413793103    
  BEGIN_BLOCK_DATAGRID_3D    
  3d_datagrid_density    
  BEGIN_DATAGRID_3D#0    
  19    19    19    
  0.0    0.0    0.0    
  4.006344827586206    0.0    0.0    
  0.0    4.006344827586206    0.0    
  0.0    0.0    4.006344827586206    
  0.08000733692655893    0.1323261848278154    0.30237857933758944    0.4343069532843387    0.3581540600623601    
  0.21569617021722853    0.11868270117368515    0.06875840510609509    0.04683990032644534    0.04079388593616279    
  0.04683997341517504    0.06875825980659535    0.11868291721683241    0.21569597734387844    0.3581541489681387    
  0.4343069618200174    0.30237841655195313    0.1323262306318679    0.08000733692655893    0.13232609120912395    
  0.19044431390841743    0.3478588471290285    0.4347998250621636    0.34053445835775586    0.20376301383021694    
  0.11320935866726854    0.06654027293676221    0.0458938080872667    0.040171690866776605    0.04589374381959934    
  0.06654041675332635    0.1132092036180821    0.2037631631363818    0.3405344377097178    0.43479970925887007    
  0.3478589700624272    0.19044422845811096    0.13232609120912395    0.30237874901233536    0.3478587116009225    
  0.42566851676708717    0.40688187542815896    0.2889088876245756    0.17236079448988972    0.09899451302729124    
  0.06076922890622448    0.043476104076679525    0.03861194687626285    0.04347616966248315    0.060769114965025205    
  0.0989946828182779    0.1723606536953506    0.28890889535272135    0.40688197069529813    0.4256683395534364    
  0.3478588151134933    0.30237874901233536    0.4343064649025989    0.4348001249804829    0.40688168651557083    
  0.32272380313401755    0.2168081045707243    0.13285435634651924    0.08119054957738878    0.053527308825442446    
  0.040594463335483374    0.03687763832896298    0.04059438982450877    0.05352741163492086    0.08119040751783448    
  0.13285443584191034    0.21680809221427602    0.32272366469217256    0.4068818155000747    0.43480000231898225    
  0.4343064649025989    0.35815459196042937    0.34053402446202613    0.2889091579087593    0.21680801678558329    
  0.1478811910732367    0.09680499411731305    0.06480663233704564    0.04697676299473017    0.03832316711929275    
  0.03577433053620505    0.03832322739882116    0.0469766691834079    0.06480676488481905    0.09680489450154268    
  0.14788119611847034    0.21680810664738226    0.28890897471769555    0.3405341320571925    0.35815459196042937    
  0.2156956866992835    0.20376341640582826    0.1723605448888373    0.1328544769214912    0.09680495864509164    
  0.06989731716525274    0.05243161088311412    0.042345740048322054    0.037299625952832725    0.03577427957908715    
  0.037299563830867875    0.0423458471040034    0.05243148995225705    0.06989738696615314    0.09680493852269642    
  0.13285438461473348    0.1723606617269293    0.20376331244251    0.2156956866992835    0.11868305386714573    
  0.1132091010000428    0.09899471380418344    0.08119045747749919    0.06480665788385694    0.05243161720482097    
  0.04435156711396389    0.039762168609216865    0.03753854299343326    0.036877769166092415    0.03753860033101311    
  0.03976206110123404    0.04435167961703131    0.05243154667425487    0.06480666680403001    0.08119050688818111    
  0.09899462857488507    0.11320914266641743    0.11868305386714573    0.06875818501669685    0.06654045356421548    
  0.060769131584745506    0.05352734620341425    0.04697680342234102    0.04234569685964817    0.03976220270182723    
  0.03874773810376907    0.038583022715787396    0.03861170305314911    0.03858295500699029    0.038747851459986334    
  0.03976209489503259    0.04234577452160987    0.04697678453274716    0.05352730478210072    0.060769201711153034    
  0.06654039602540024    0.06875818501669685    0.04684002778331371    0.04589372120869893    0.043476134208858944    
  0.04059450271389895    0.03832308372534259    0.03729974911234062    0.03753845356687343    0.03858306934373729    
  0.039698183697190616    0.04017205380222323    0.03969825790668299    0.038582960033839576    0.037538574127491606    
  0.037299650958960796    0.038323118531630194    0.040594512050504926    0.04347609012490275    0.04589376342715133    
  0.04684002778331371    0.04079381868226177    0.04017171990814781    0.03861198579458611    0.036877546327202367    
  0.03577446450802986    0.03577411316430276    0.03687791047947039    0.03861158247449106    0.040172124115272496    
  0.04079342277069399    0.04017203351113814    0.038611707964577406    0.03687777241244698    0.0357742134575146    
  0.03577441830821436    0.03687754264983287    0.03861201485216706    0.0401716922755903    0.04079381868226177    
  0.046840001191881336    0.045893753374093044    0.04347608729590153    0.040594535604729746    0.03832304509680843    
  0.037299773608848695    0.03753841029347688    0.038583122856850324    0.03969814177159869    0.04017208515784667    
  0.039698232892832544    0.03858298252282273    0.03753855761917431    0.037299654974653255    0.03832311852384576    
  0.04059452495870064    0.043476079228430976    0.04589378137719421    0.046840001191881336    0.06875825714660289    
  0.06654036723156806    0.060769227342963014    0.05352724795372629    0.04697689657058146    0.04234559705369831    
  0.03976229328375475    0.038747643970456304    0.03858310136559096    0.038611629699339664    0.03858301269097044    
  0.03874779950125874    0.0397621288964386    0.042345737707332895    0.04697681882860527    0.053527267737832084    
  0.06076924170901028    0.06654033758561936    0.06875825714660289    0.1186828986410594    0.11320925791183244    
  0.09899452916176243    0.0811906306373703    0.06480648866849073    0.052431767776568945    0.044351431366137374    
  0.0397622895261939    0.0375384395056949    0.03687786171271049    0.03753852226187131    0.03976213065529055    
  0.044351600589626276    0.052431608427798426    0.06480658734974655    0.081190599294047    0.09899452570701252    
  0.11320927890269555    0.1186828986410594    0.21569597918653646    0.20376308685488834    0.17236084403513693    
  0.13285417791513854    0.096805228758546    0.06989708440528856    0.0524317995201919    0.04234556776461259    
  0.03729978194374436    0.035774133716310566    0.03729969330055636    0.04234573618082778    0.052431622117314884    
  0.06989725608791805    0.09680511347876948    0.13285423111162128    0.17236086739974216    0.20376305439498466    
  0.21569597918653646    0.35815412377086653    0.3405344805556205    0.2889086881402145    0.21680842810111842    
  0.14788082823591292    0.09680529862295106    0.06480638747401017    0.04697697233233851    0.038322986522078314    
  0.0357744891499792    0.03832307000660429    0.046976816727531234    0.06480659575067702    0.09680509985989985    
  0.14788095433431073    0.21680836169544954    0.28890866910540997    0.3405345236702512    0.35815412377086653    
  0.4343069459052841    0.43479962223480045    0.40688218129772524    0.322723288250434    0.21680855312483927    
  0.13285398222270506    0.08119082598550618    0.0535270887463895    0.04059464798138757    0.03687747407609222    
  0.040594555048934396    0.053527251418607834    0.08119060025069948    0.13285422336805394    0.21680838539084588    
  0.32272334925339496    0.4068822192830375    0.4347995495945759    0.4343069459052841    0.30237837555364744    
  0.34785909604372656    0.42566803956664306    0.406882296708363    0.28890850811577756    0.17236111417422562    
  0.09899427024503211    0.06076941786710939    0.04347594112779972    0.0386120869256459    0.04347602890506888    
  0.06076926768977895    0.09899452129151702    0.17236089037253077    0.2889086516872009    0.40688225839759234    
  0.42566798396785466    0.347859126296461    0.30237837555364744    0.13232623412593394    0.1904441479242952    
  0.34785905638055237    0.43479955633057926    0.3405346977320917    0.2037628248269984    0.11320951315202751    
  0.06654015428359364    0.04589390691537769    0.04017161618584572    0.04589382108002917    0.0665403249895042    
  0.11320929971629921    0.2037630204659915    0.3405345872273417    0.4347995228579982    0.34785915031727527    
  0.19044407880579478    0.13232623412593394    0.08000733692655893    0.1323261848278154    0.30237857933758944    
  0.4343069532843387    0.3581540600623601    0.21569617021722853    0.11868270117368515    0.06875840510609509    
  0.04683990032644534    0.04079388593616279    0.04683997341517504    0.06875825980659535    0.11868291721683241    
  0.21569597734387844    0.3581541489681387    0.4343069618200174    0.30237841655195313    0.1323262306318679    
  0.08000733692655893    0.13232614791200376    0.19044427254405455    0.34785894843860676    0.4347997410208476    
  0.340534570162412    0.20376294762567077    0.1132094182139904    0.06654022959685738    0.04589384391164748    
  0.0401716663193428    0.045893772132327953    0.06654037517908624    0.11320924048005875    0.2037631085857412    
  0.34053449833420724    0.43479964948350347    0.34785903866931683    0.19044417645068493    0.13232614791200376    
  0.19044433406730835    0.2486945998181546    0.38386623445548834    0.4297688218545743    0.32307383324023253    
  0.1926753094139899    0.10821396412100144    0.06456933492406387    0.045116209305689055    0.03969854013719146    
  0.04511627862869887    0.06456921983650298    0.10821413665609653    0.1926751928452807    0.3230738269687829    
  0.4297689324983284    0.38386601067630255    0.2486946843687369    0.19044433406730835    0.34785869256101626    
  0.38386635903605765    0.43390853352816616    0.3923005468361627    0.2733513656136418    0.16372188553950587    
  0.09533719593675004    0.05951421509881327    0.04319316907360134    0.03858279026222141    0.043193103601791266    
  0.05951433726303175    0.09533706310989633    0.1637219619110377    0.2733513705991839    0.3923003632709295    
  0.4339087002388941    0.3838662346797722    0.34785869256101626    0.43480013811961143    0.42976850383353543    
  0.39230070791334165    0.3062429044910642    0.20568255535863028    0.12748438464873055    0.07929401862232519    
  0.05329589884649275    0.04106399968526082    0.03753867018856256    0.04106405632159768    0.053295784880930216    
  0.0792941283876069    0.1274843085995398    0.205682508106335    0.3062430260276985    0.3923004557397997    
  0.42976858374399995    0.43480013811961143    0.3405340075969073    0.3230742163553885    0.2733511008140511    
  0.20568267957186745    0.1417356089113647    0.09437052685773874    0.06455328045535605    0.04783890867272178    
  0.03969939993430228    0.03729958783401085    0.039699352708551246    0.047839008950979686    0.06455320142559047    
  0.09437057808442084    0.14173563699860833    0.20568253419209134    0.27335125413480527    0.32307409236808965    
  0.3405340075969073    0.20376343271696545    0.1926749254349211    0.16372215810051538    0.12748426403745355    
  0.09437057363360134    0.06959464203903008    0.053526309945563545    0.04428729535725822    0.03969936572178337    
  0.038323217496754436    0.03969941779355164    0.04428721158752227    0.05352640220587752    0.06959458760362396    
  0.0943705309153561    0.1274843517849616    0.16372201126453406    0.19267502599908923    0.20376343271696545    
  0.11320905772954336    0.10821427566655384    0.09533701471833178    0.07929410984402119    0.06455327199212672    
  0.05352631294638953    0.04652789065338918    0.04275487837934079    0.04106411280925374    0.04059434834590347    
  0.04106403354171225    0.04275496270681091    0.046527791944695494    0.053526359871172755    0.06455326683282349    
  0.0792940439849352    0.09533711180070856    0.10821418259164363    0.11320905772954336    0.06654047246430865    
  0.06456916312218074    0.059514330826970656    0.05329587589159781    0.04783888524872672    0.04428736138868316    
  0.042754830116677536    0.042680508650625885    0.04319292603996171    0.043476356685015496    0.04319299889273511    
  0.042680405882616276    0.04275494596632142    0.044287284079215575    0.047838904493515244    0.053295912584918184    
  0.05951426535599014    0.06456920642571436    0.06654047246430865    0.04589370986991591    0.04511630964245492    
  0.043193132961172886    0.041063968420434874    0.03969949353370439    0.039699269354478955    0.04106420478031926    
  0.043192853423713595    0.04511659489285328    0.04589340617877263    0.04511651533951346    0.04319296941210214    
  0.041064096986094166    0.03969933345921849    0.03969947027815463    0.04106394391968359    0.043193184246354877    
  0.04511627036348545    0.04589370986991591    0.04017173607592464    0.03969851148417555    0.03858277410448058    
  0.037538749255997955    0.03729945243526421    0.03832336675722952    0.040594183100833445    0.04347647094568829    
  0.045893355237239815    0.04684039047703533    0.04589342609902872    0.04347635931064728    0.04059430824310357    
  0.03832328582039989    0.037299487746778444    0.03753876077011408    0.03858273843915179    0.039698537526613675    
  0.04017173607592464    0.0458937333980329    0.04511626475051966    0.04319317026724454    0.04106392842735536    
  0.03969954160767221    0.03969921823745643    0.04106425713355612    0.043192816885624416    0.045116634325011444    
  0.0458933645898831    0.04511654686973251    0.04319295422449735    0.04106411891838873    0.03969931798337985    
  0.03969948970483508    0.04106391989196491    0.043193208598907094    0.045116236735182336    0.0458937333980329    
  0.06654039195090865    0.06456925550058264    0.059514231265498936    0.05329597744144019    0.04783878561622197    
  0.04428745713560908    0.0427547347022619    0.04268059737463642    0.04319283149674906    0.043476431563618696    
  0.04319291932307127    0.04268047303906383    0.0427548810760084    0.044287335223988096    0.047838848401337605    
  0.05329596823186199    0.05951419657721975    0.06456928295329455    0.06654039195090865    0.11320922937351287    
  0.10821407325037717    0.0953372046485405    0.07929390756100524    0.06455345252991711    0.05352612102697158    
  0.04652805264101757    0.042754727535750985    0.04106424504694936    0.04059421782427751    0.041064145083855946    
  0.04275486503152077    0.046527880549240216    0.05352626279477415    0.0645533694101401    0.07929393286286672    
  0.09533724280809441    0.10821402160604572    0.11320922937351287    0.20376312195173998    0.19267526261642842    
  0.16372179321410824    0.12748459322549935    0.09437027230496495    0.06959490570046153    0.05352608583103346    
  0.0442874907115216    0.039699191304236464    0.03832337072132235    0.03969928617329633    0.044287348345857326    
  0.053526263520602385    0.06959473674867239    0.09437038878317738    0.12748454944772847    0.16372176326796148    
  0.19267529699908423    0.20376312195173998    0.340534457539929    0.32307372687103514    0.2733515954171664    
  0.20568219541960767    0.1417360057785133    0.09437017509846396    0.06455356876745137    0.04783866994106522    
  0.039699612669345755    0.03729940446924195    0.03969951944095813    0.0478388296656969    0.06455337437642036    
  0.09437036499327538    0.14173587902847587    0.20568222635514616    0.2733516296690726    0.3230736632924222    
  0.340534457539929    0.43479961142144224    0.4297690288784552    0.3923000973194988    0.30624341779829606    
  0.20568209027049167    0.12748475492342004    0.07929370979502946    0.053296136972822164    0.041063799112429925    
  0.03753884745171871    0.04106387681216027    0.05329597471380494    0.079293915926493    0.1274845679450937    
  0.2056822159069226    0.30624338576669347    0.3923000307752108    0.42976909864619767    0.43479961142144224    
  0.34785903964595083    0.383865911588593    0.4339089972096919    0.39230002719660084    0.273351783852959    
  0.16372153407898013    0.09533745584348383    0.0595140131273963    0.04319333009728585    0.038582641595872824    
  0.04319325466227193    0.059514181482374744    0.09533726585251287    0.16372172276249491    0.27335167733586446    
  0.392300023527942    0.43390906481586045    0.38386583448751116    0.34785903964595083    0.19044414904555568    
  0.2486948008094494    0.3838659815046984    0.4297690702347643    0.32307354922915826    0.1926755385603851    
  0.10821380471457961    0.06456944959859696    0.045116117248110335    0.039698633626454496    0.04511619167662637    
  0.06456931241313459    0.10821401638196769    0.1926753299253934    0.3230736312382164    0.4297691066878948    
  0.3838658496560174    0.24869485773526784    0.19044414904555568    0.13232614791200376    0.19044427254405455    
  0.34785894843860676    0.4347997410208476    0.340534570162412    0.20376294762567077    0.1132094182139904    
  0.06654022959685738    0.04589384391164748    0.0401716663193428    0.045893772132327953    0.06654037517908624    
  0.11320924048005875    0.2037631085857412    0.34053449833420724    0.43479964948350347    0.34785903866931683    
  0.19044417645068493    0.13232614791200376    0.3023786212511905    0.3478588535012759    0.42566838380767513    
  0.4068819657190496    0.28890878705942663    0.1723609006024425    0.0989944357231354    0.06076931295824762    
  0.043476035371853086    0.038612014651237786    0.04347609395283947    0.06076919500906618    0.09899458341596691    
  0.1723607841542539    0.28890877672899296    0.40688210889674975    0.42566817707693166    0.3478589655317827    
  0.3023786212511905    0.3478587456077543    0.3838662998246232    0.4339085952651925    0.3923004451532021    
  0.2733514277274851    0.16372181886993234    0.09533723837405375    0.05951417854213707    0.0431932037829805    
  0.03858274657685478    0.04319315489512309    0.05951428548733513    0.09533714745853897    0.16372187660787807    
  0.2733514684109077    0.3923002572743306    0.4339087961719767    0.3838661302853085    0.3478587456077543    
  0.42566861670171013    0.433908435530069    0.4205694349784577    0.3417248408275284    0.23120771438627613    
  0.14141342396029882    0.08601699168477474    0.056438603647763555    0.04268030558847007    0.038747947529408105    
  0.04268036428251061    0.05643851303552719    0.08601709367277159    0.1414133634454659    0.23120762578858117    
  0.3417250065117704    0.42056911985076817    0.4339086142384685    0.42566861670171013    0.40688153810355715    
  0.3923007821360029    0.3417246719077943    0.26007085961209175    0.17649911837202964    0.11365715270117327    
  0.0745864242935989    0.053060142781137784    0.04275495583924954    0.03976207562466193    0.04275489964336929    
  0.053060220012216025    0.07458632777561044    0.11365717955751714    0.17649917056116635    0.2600706468582307    
  0.3417248646198695    0.39230061152751816    0.40688153810355715    0.2889092815028438    0.2733510043042195    
  0.23120798679469506    0.1764990216959765    0.12582717348499772    0.0882795287735742    0.06440418960610785    
  0.05088777723049881    0.04428729268302552    0.04234577494350265    0.04428735003202441    0.05088770271087663    
  0.0644042766686026    0.08827949610506587    0.125827100280577    0.1764991541396005    0.23120776820319366    
  0.27335114282899037    0.2889092815028438    0.1723604354436454    0.163722213085795    0.1414131666767888    
  0.11365730061661872    0.08827949425720509    0.06940225837746719    0.05744925050403052    0.050887818665157576    
  0.047838915774597784    0.046976746595357353    0.047838864886507924    0.050887901258234544    0.05744917600064366    
  0.06940227203312958    0.08827952712893264    0.1136571493356865    0.14141331769446977    0.16372210386831562    
  0.1723604354436454    0.09899478834469551    0.0953369610600052    0.08601720427723589    0.07458632038849469    
  0.06440422406108491    0.05744926282231521    0.053983852277664036    0.05306019343903461    0.05329579308212998    
  0.05352743442357494    0.05329585270834172    0.05306009754648273    0.05398392912181648    0.05744921895060931    
  0.06440417229918416    0.07458641121078896    0.08601708140335783    0.09533702604733509    0.09899478834469551    
  0.060769076709938724    0.05951438631846211    0.05643848238514651    0.0530601996257731    0.050887797104369414    
  0.05088778570009947    0.05306023060707178    0.05643839099406485    0.05951448967473869    0.06076894943971755    
  0.05951440755887228    0.05643851418954026    0.05306014417412402    0.05088781784107472    0.050887825497021    
  0.05306012226930603    0.05643857280186646    0.05951430988744596    0.060769076709938724    0.04347619183103499    
  0.043193095565705636    0.04268036871585205    0.04275497298619658    0.044287229298721836    0.04783902961193226    
  0.05329568772179121    0.05951454197239967    0.06456890028093994    0.06654073945091712    0.06456897158880459    
  0.05951441929645731    0.05329579975133123    0.04783896725656079    0.044287223466096044    0.042755014632547605    
  0.04268029877272005    0.04319314428211491    0.04347619183103499    0.038611919264062655    0.038582804926091126    
  0.03874795692816593    0.03976200170433684    0.042345900985802896    0.04697657252574349    0.05352759308260141    
  0.06076881523596623    0.06654082239555222    0.06875780358176568    0.06654072383789317    0.06076893988192586    
  0.0535274848419737    0.046976642141153976    0.04234588727322684    0.039761968157119854    0.038748009839316644    
  0.03858276774410928    0.038611919264062655    0.043476148920762084    0.043193134535681785    0.04268031332364019    
  0.04275502282732097    0.04428717207886775    0.04783908372460285    0.0532956278124838    0.059514605572289346    
  0.06456883570150297    0.06654078929977218    0.06456893237312555    0.05951448132812827    0.05329576427161532    
  0.04783899630082982    0.04428720481259999    0.04275503709924007    0.04268027676164591    0.04319317175840086    
  0.043476148920762084    0.06076916737102824    0.059514270538108864    0.05643859582152172    0.053060079656811594    
  0.05088792422213749    0.050887656150558555    0.05306035143632537    0.05643828450420584    0.05951458991166457    
  0.06076884431327051    0.059514503283845444    0.05643843702886086    0.05306020400441996    0.050887760539412685    
  0.05088787783367218    0.05306006187334899    0.05643863550499573    0.05951423694846144    0.06076916737102824    
  0.09899460426778468    0.09533715739730553    0.08601698758134563    0.07458651782459279    0.06440400693383831    
  0.05744945439380737    0.05398365851655798    0.05306036790772111    0.05329563232263879    0.053527586272498    
  0.053295714769267866    0.05306021147187036    0.05398381273107417    0.0574493346311151    0.0644040646382974    
  0.07458651950310655    0.08601694888399745    0.09533718120124694    0.09899460426778468    0.1723607629830148    
  0.16372185462602123    0.14141350157149485    0.11365696029315658    0.0882797983101441    0.06940197652294464    
  0.057449498103650486    0.05088758320774072    0.047839121236703655    0.046976541167791264    0.047839046181864124    
  0.05088774444040165    0.05744933949925932    0.06940210157905849    0.0882797287929544    0.11365693756290629    
  0.14141356263496418    0.16372180553588278    0.1723607629830148    0.28890878341135895    0.27335149777256645    
  0.23120749023456583    0.1764994716947807    0.12582676125134917    0.08827987104005877    0.06440389942650533    
  0.05088803594970871    0.044287069569340184    0.04234598527465376    0.044287144203917585    0.05088789671858523    
  0.06440405695749067    0.08827972313851135    0.1258268237478263    0.17649946501826153    0.23120739751936514    
  0.2733515533818295    0.28890878341135895    0.4068820569688416    0.3923002165344512    0.34172522517931775    
  0.26007030684358934    0.1764995689743172    0.11365676043319457    0.07458672034136828    0.05305989213751377    
  0.04275517215796928    0.03976187374957137    0.04275509340313621    0.05306002255282879    0.0745865431801306    
  0.11365692486019859    0.17649949872155063    0.26007024874047874    0.34172531402205353    0.39230009762605217    
  0.4068820569688416    0.4256681579296434    0.43390887698825814    0.42056890219593274    0.34172527824315785    
  0.23120730792656824    0.14141375308339216    0.08601672197808567    0.05643881157751951    0.04268012775637132    
  0.03874810472049988    0.04268020230764259    0.05643868795706798    0.08601690934705872    0.1414135925526782    
  0.23120736231885727    0.34172534764436957    0.42056873747265383    0.4339089753351707    0.4256681579296434    
  0.3478589631471686    0.38386604343296205    0.4339088728728221    0.3923001867546831    0.27335166208051875    
  0.16372163428200714    0.09533739450556034    0.059514050809828266    0.04319331013122869    0.03858265775239681    
  0.04319323901009314    0.059514181740122074    0.0953372470449541    0.16372173505432594    0.2733516525453187    
  0.3923000301835304    0.4339090473487013    0.3838659286143692    0.3478589631471686    0.3023786212511905    
  0.3478588535012759    0.42566838380767513    0.4068819657190496    0.28890878705942663    0.1723609006024425    
  0.0989944357231354    0.06076931295824762    0.043476035371853086    0.038612014651237786    0.04347609395283947    
  0.06076919500906618    0.09899458341596691    0.1723607841542539    0.28890877672899296    0.40688210889674975    
  0.42566817707693166    0.3478589655317827    0.3023786212511905    0.43430668335807626    0.43479995867676996    
  0.40688189018459275    0.3227236486002412    0.2168082553917481    0.13285422635124983    0.08119065710068771    
  0.0535271950714666    0.04059456987312706    0.03687752791333308    0.04059451395743187    0.05352728732949827    
  0.0811905707566429    0.13285424367068943    0.2168083291554791    0.3227234347350068    0.4068820666034303    
  0.43479975806070337    0.43430668335807626    0.4348000232741564    0.42976861132377986    0.39230057897501447    
  0.3062429841122264    0.20568246585712854    0.1274844703215495    0.07929392559605862    0.05329597249404896    
  0.04106392228688214    0.03753874324105037    0.04106397188981657    0.053295901387021595    0.07929400995619287    
  0.12748445394642205    0.20568237765519154    0.3062431820275821    0.3923002842423027    0.4297687421044659    
  0.4348000232741564    0.4068815940288685    0.39230074253811015    0.3417246993133602    0.2600708466560182    
  0.17649915323354295    0.11365712012240688    0.0745864452651868    0.053060097833124244    0.04275500221935262    
  0.039762028245892894    0.042754950357381465    0.05306017563751864    0.07458639477254175    0.1136570933012955    
  0.17649926022158613    0.2600705594416494    0.34172495559104793    0.3923005351429989    0.4068815940288685    
  0.3227240072631881    0.30624269062224546    0.26007096399205704    0.19806518623633948    0.13978260092538322    
  0.09662747528324939    0.06934489952369237    0.0539838307800947    0.04652784900129481    0.04435164057989708    
  0.04652789168167534    0.053983760249987404    0.06934493141865009    0.09662748460314662    0.1397824544966485    
  0.19806540087512722    0.260070683288472    0.30624282501166783    0.3227240072631881    0.2168078305932974    
  0.20568282805621277    0.17649891029739667    0.1397827165082987    0.10626139561354063    0.08152670911824926    
  0.0659631553145943    0.057449346498867654    0.05352627857087306    0.052431610467937304    0.053526229558899886    
  0.05744940996808264    0.06596312874071496    0.08152666701223536    0.10626151846415449    0.13978250340044288    
  0.17649910451554007    0.2056826701109583    0.2168078305932974    0.13285463667298597    0.1274841268616485    
  0.11365737665397566    0.09662734212863318    0.08152675415493997    0.07120624665432018    0.06596335279681004    
  0.06440408624478283    0.0645533120347101    0.0648066581773284    0.06455335347313981    0.0644040210681929    
  0.06596338922350818    0.07120625167436485    0.08152664035468135    0.09662748767827936    0.11365719244886155    
  0.1274842235245348    0.13285463667298597    0.08119031368793372    0.0792942376406232    0.07458624757746232    
  0.06934501016431321    0.0659631166397462    0.06596335122619888    0.06934480424330926    0.07458640173715876    
  0.07929409708226376    0.08119042746367905    0.07929403679495438    0.07458648045328105    0.06934474694839284    
  0.06596333986908005    0.06596318749030491    0.06934488368234451    0.07458637963170445    0.07929413003609978    
  0.08119031368793372    0.05352745099432374    0.053295768282223134    0.053060253016990785    0.053983771548413405    
  0.05744935787540715    0.06440413904085068    0.07458636693383776    0.08601719465195506    0.09533687822261713    
  0.09899486775120794    0.09533697222476223    0.0860170953476156    0.0745864468960391    0.06440411334702023    
  0.057449305191060264    0.05398385954256264    0.05306015044484262    0.05329582232051976    0.05352745099432374    
  0.04059439500424119    0.04106405797862446    0.04275491380637249    0.04652787589823611    0.05352632160315074    
  0.06455322269954493    0.07929421378249037    0.09533679259170798    0.1082145289558254    0.11320874304699076    
  0.10821443817657327    0.09533691596059482    0.07929411965575367    0.0645532434244886    0.05352635889726879    