#     DFTpy    
  CRYSTAL 
    
  PRIMVEC    
  4.345586206896551    0.0    0.0    
  0.0    4.345586206896551    0.0    
  0.0    0.0    2.3941379310344826    
  PRIMCOORD    
  4    1    
  Si    0.0    0.0    0.0    
  Si    2.1727931034482757    2.1727931034482757    1.1970689655172413    
  Si    0.0    2.1727931034482757    0.5985344827586206    
  Si    2.1727931034482757    0.0    1.795603448275862    
  BEGIN_BLOCK_DATAGRID_3D    
  3d_datagrid_density    
  BEGIN_DATAGRID_3D#0    
  19    19    11    
  0.0    0.0    0.0    
  4.345586206896551    0.0    0.0    
  0.0    4.345586206896551    0.0    
  0.0    0.0    2.3941379310344826    
  0.04962144883546974    0.09769897635710333    0.2865736111083325    0.49927314794318195    0.5471976155400556    
  0.5290048092617292    0.5172949459079651    0.47844243793788666    0.40540811485720857    0.36784635665981996    
  0.4054082189961455    0.4784424161749119    0.5172948935104913    0.5290049055841622    0.5471975224027756    
  0.4992731118848815    0.2865735677470193    0.09769896968293447    0.04962144883546974    0.09769897450144949    
  0.15544374834956856    0.33444659711789454    0.4912260697278055    0.5078578224253215    0.4857058598318144    
  0.48071977811307487    0.4623997682411303    0.41494638411716217    0.3880264896542168    0.41494643043952406    
  0.4623997030707925    0.4807198179312961    0.4857059843120461    0.5078577598390209    0.49122611359813995    
  0.3344465948856933    0.15544374133382308    0.09769897450144949    0.28657365324273165    0.33444663811731734    
  0.42518470149988086    0.4500889262723159    0.4129336651754668    0.385966760571499    0.39162060226092793    
  0.40761110135741346    0.4099711735360278    0.40667858566765286    0.4099711114179639    0.40761096426154664    
  0.3916206214904423    0.38596676202362706    0.4129336123838907    0.4500890556399674    0.4251846016982415    
  0.33444662086037413    0.28657365324273165    0.4992730263344992    0.4912259941820945    0.45008901809371177    
  0.37701537794987383    0.31313405127698946    0.28601586795885353    0.2962786490196741    0.32884690047080933    
  0.3608792167760537    0.37369179504354616    0.36087923486501405    0.32884687315135147    0.29627867999269336    
  0.28601589990330484    0.3131340829354951    0.37701544159835104    0.45008892206447343    0.491226036447141    
  0.4992730263344992    0.54719759729325    0.5078579082704717    0.41293358956220877    0.3131341265289678    
  0.2459505610408453    0.2207180834560915    0.23174497301914387    0.26708919712082135    0.30578090257788665    
  0.32241052530805236    0.30578097621524436    0.2670891794002198    0.23174496160577102    0.22071811691989676    
  0.24595059317449605    0.3131341605094117    0.4129335786470496    0.5078578576878189    0.54719759729325    
  0.5290049144913791    0.48570593500547954    0.38596678277057045    0.2860159316807732    0.220718112094761    
  0.197103574342916    0.20874590353549022    0.24459336068871787    0.28413350259956766    0.30117048607657315    
  0.2841334760869521    0.24459333873021422    0.20874588861695706    0.19710358818242246    0.2207181077779061    
  0.2860159739572819    0.38596674222198085    0.48570592316074895    0.5290049144913791    0.5172948320025952    
  0.4807197376360997    0.3916205298180077    0.29627867910233635    0.23174496103035347    0.20874583343758127    
  0.22200674020148567    0.2605179288648669    0.3031101339448154    0.3216117119401813    0.30311017779315363    
  0.2605180370098261    0.22200671442237838    0.20874586223519764    0.23174493820631667    0.29627869612969115    
  0.39162051783891577    0.48071967623856193    0.5172948320025952    0.47844256492572845    0.4623997114320241    
  0.40761103477075306    0.32884693324223013    0.26708917436477375    0.24459335524897247    0.2605179858728659    
  0.30418319867357635    0.3524600905605417    0.373613373169472    0.3524600401621189    0.304183173597765    
  0.2605179638017648    0.24459339450686546    0.267089121863989    0.32884691429489477    0.407611027423576    
  0.4623997493191478    0.47844256492572845    0.40540817079930996    0.41494636344977476    0.4099711069639487    
  0.3608791960174007    0.3057809474587796    0.2841334127741826    0.3031102066322766    0.35246006910610006    
  0.40671010747605985    0.4305972484469263    0.40670995006714955    0.35246004172069323    0.3031101749530144    
  0.28413341530111946    0.30578086965997836    0.3608792739614388    0.4099711781678231    0.41494640617970613    
  0.40540817079930996    0.36784631287513214    0.3880265548416153    0.40667864970265943    0.373691841032019    
  0.32241051991608516    0.3011703969447774    0.3216116786862342    0.3736133690813759    0.4305972568463209    
  0.45579588809847754    0.43059732065007905    0.3736134229854311    0.3216116667054956    0.3011704469200511    
  0.32241043831241223    0.37369185848632724    0.40667854580087476    0.3880264757416221    0.36784631287513214    
  0.4054082106718388    0.4149464326989762    0.40997112919902357    0.36087920326773015    0.3057808634520193    
  0.28413344993466133    0.303110187008566    0.3524601139941503    0.4067098821729185    0.4305973224140358    
  0.4067099471515456    0.35246008406711116    0.3031101697953631    0.28413350318736946    0.3057808963195392    
  0.3608792624714291    0.40997106960359414    0.4149463853362616    0.4054082106718388    0.478442529798328    
  0.46239967030078716    0.4076109711024749    0.32884687150339176    0.2670891658829448    0.24459339872809996    
  0.2605180217300292    0.30418322344783655    0.3524601041993779    0.37361340956053196    0.35246003852459984    
  0.30418318688960505    0.2605180401461699    0.24459340838227692    0.26708911122760504    0.328846910517221    
  0.4076109679320789    0.462399748052299    0.478442529798328    0.5172948529518048    0.48071969275143334    
  0.39162060478241767    0.29627873787356446    0.231744902340783    0.20874581044382953    0.2220067377703219    
  0.26051799101498596    0.30311017745510094    0.32161168730081513    0.30311013711057905    0.26051797972190593    
  0.22200668634045684    0.20874589472673885    0.2317449757547453    0.29627873901933194    0.3916204674485305    
  0.4807198259155713    0.5172948529518048    0.5290049079292627    0.48570598052181735    0.38596667768731957    
  0.2860159501212923    0.22071808345664012    0.1971035534965186    0.20874589206723124    0.24459337529463873    
  0.2841334129837031    0.30117045310618684    0.2841334533745489    0.2445933519759507    0.20874585462848474    
  0.19710360536256957    0.22071808167199686    0.2860159970983742    0.3859666871438628    0.48570602797382967    
  0.5290049079292627    0.5471976445596715    0.5078579523096411    0.4129336438785662    0.31313410625006655    
  0.2459506180078536    0.22071807898369003    0.2317450512704755    0.26708916206656236    0.3057809840791562    
  0.32241056075761937    0.30578094986944504    0.2670891462953266    0.2317449902531388    0.22071807797228732    
  0.245950518725594    0.3131341469018918    0.4129336282602652    0.5078578361945291    0.5471976445596715    
  0.49927295536423516    0.491226064489564    0.450088973945504    0.37701540547652823    0.3131340553524478    
  0.28601586889344915    0.29627870343126245    0.3288468983135816    0.3608791919795998    0.37369182659023753    
  0.3608792394770583    0.32884690288835366    0.2962786950850987    0.2860158872703367    0.313134087187621    
  0.3770154289479025    0.4500888845093502    0.49122595564890964    0.49927295536423516    0.28657370121487263    
  0.33444664663852564    0.42518453103105003    0.4500890503539379    0.41293358828388005    0.3859667691410884    
  0.3916205555054906    0.40761095232334454    0.4099709934458144    0.40667862938602534    0.4099711023352135    
  0.4076110132528409    0.3916205964381306    0.3859668219141131    0.4129336339323482    0.4500890780978955    
  0.42518467199170495    0.33444659658558434    0.28657370121487263    0.09769896346193055    0.15544372808688273    
  0.3344465212355428    0.49122601764539503    0.5078579999666742    0.48570581974642074    0.4807198193142102    
  0.46239966355886464    0.41494644151569315    0.38802654660477903    0.4149464415969515    0.4623996645270103    
  0.48071979986817953    0.4857058656362105    0.5078578215185184    0.491226190475061    0.3344466128665209    
  0.15544375429325552    0.09769896346193055    0.04962144883546974    0.09769897635710333    0.2865736111083325    
  0.49927314794318195    0.5471976155400556    0.5290048092617292    0.5172949459079651    0.47844243793788666    
  0.40540811485720857    0.36784635665981996    0.4054082189961455    0.4784424161749119    0.5172948935104913    
  0.5290049055841622    0.5471975224027756    0.4992731118848815    0.2865735677470193    0.09769896968293447    
  0.04962144883546974    0.09456284888816409    0.14926981978518244    0.3152231596467811    0.4509258659567283    
  0.45171528617951634    0.4223444010420395    0.4246873472496236    0.44783162040872015    0.4659635811906701    
  0.4712702945727772    0.46596362398199953    0.4478315600212852    0.42468726202676693    0.42234440636966614    
  0.45171530389752856    0.45092590007396616    0.3152231746678223    0.14926978663775498    0.09456284888816409    
  0.1549823173986952    0.21242712011717738    0.35661353003216084    0.4444119299863542    0.42345818459416384    
  0.39117801733365565    0.3939669730013697    0.41981695788652684    0.44295500640296515    0.4510250522397929    
  0.44295499209298206    0.41981693015701044    0.39396695454249037    0.3911781193900704    0.42345813858804726    
  0.44441202296939847    0.35661355136648637    0.21242709871926652    0.1549823173986952    0.3524672146655653    
  0.3860873913279263    0.43323675937276407    0.41373019969197705    0.35512300967597205    0.3192943452790949    
  0.32238180037171915    0.3510256128666199    0.38159156972215164    0.3942387420639965    0.38159153461830747    
  0.3510254254109514    0.3223817723514572    0.31929436064233674    0.3551229351318728    0.4137302831214265    
  0.43323678674035554    0.38608743341284657    0.3524672146655653    0.5473593242336607    0.5262562472256996    
  0.45756109368891806    0.3615486475552576    0.28439615563617926    0.24871542843386032    0.25130669996003024    
  0.27891108703724304    0.31126197310764003    0.3254904373142311    0.3112619628324677    0.27891109709165934    
  0.25130674710870704    0.24871545616501742    0.2843961932279653    0.36154870623767554    0.45756098019671    
  0.5262563031941568    0.5473593242336607    0.5984752827629284    0.5508714826188802    0.43780408968195245    
  0.32047742204866136    0.24090589562359319    0.2068011772762631    0.20895153693626695    0.23484459001891606    
  0.26591974968196186    0.2796101026052137    0.2659197259780458    0.23484455970551146    0.2089514959374369    
  0.20680118940858183    0.24090592190147944    0.32047747877948085    0.4378040448864608    0.5508715271352617    
  0.5984752827629284    0.5950327750734768    0.5462583578081377    0.43176328527257307    0.3143041298648118    
  0.23521927597147899    0.2016063574033496    0.20404680188614277    0.2301347414880453    0.26135945762995727    
  0.27506602206963315    0.26135944411158296    0.23013476211648867    0.20404678448486807    0.2016063863184988    
  0.23521918964016184    0.3143042119577142    0.4317632394133014    0.5462584346494341    0.5950327750734768    
  0.556896691080602    0.52785164901071    0.44580609961613576    0.3435704420233651    0.26622552665134075    
  0.23182704552399563    0.23531209910368572    0.26398295820082635    0.29781812181733697    0.31274811104549    
  0.29781817598124277    0.2639830119609065    0.23531213813529536    0.2318271119587766    0.266225557719764    
  0.34357046673801594    0.4458060915613327    0.5278515506981994    0.556896691080602    0.4075429621092838    
  0.4254376948386492    0.4349946158798194    0.387923935635763    0.3229457146108352    0.2885220471593292    
  0.29363058090612415    0.3261852940937353    0.36319848583515174    0.3792913642888034    0.36319848062377763    
  0.32618525124439623    0.29363054073179956    0.2885220923736135    0.3229456793135642    0.38792399507858    
  0.4349946667594189    0.4254377581800663    0.4075429621092838    0.2286374841981673    0.2793362343844913    
  0.38315597312792365    0.41867043855436126    0.3792097016434007    0.34719438748954556    0.35398742775022013    
  0.3893959921643508    0.42778367373451986    0.44404712421817494    0.4277835822077297    0.38939589145154935    
  0.3539874329125785    0.3471943472330915    0.3792095943310783    0.41867057241594596    0.383156053423543    
  0.27933632885546    0.2286374841981673    0.16317006990572713    0.2186112828318341    0.3525139012802515    
  0.42736573767716357    0.40264438119053125    0.3724775878422154    0.3800226485547348    0.4162166562270502    
  0.4546825015768454    0.47079225181231144    0.45468258767777975    0.4162166618494973    0.38002267400874    
  0.3724776426469713    0.4026444124547483    0.4273658848699907    0.35251383797554287    0.21861124671554505    
  0.16317006990572713    0.22863748971222012    0.2793363033039729    0.3831560055098666    0.41867047277289454    
  0.3792096258839903    0.34719431965405345    0.3539874222113359    0.3893960207943298    0.4277835661705537    
  0.44404719215171934    0.42778354169579663    0.38939596262648213    0.35398739630499537    0.3471944335762607    
  0.37920961855966484    0.41867051460148064    0.38315595801105956    0.2793362538519272    0.22863748971222012    
  0.40754298908179337    0.42543768701610524    0.4349946297995931    0.38792384730407853    0.32294576690442256    
  0.28852211933488914    0.2936305757348796    0.32618536654312874    0.363198547992223    0.3792913554338613    
  0.3631985400166831    0.3261853046328925    0.2936306041273463    0.2885221763691146    0.32294569528985767    
  0.38792400932414695    0.4349945982804511    0.4254377356583464    0.40754298908179337    0.556896736113682    
  0.5278515247727606    0.4458061945472824    0.34357044877614307    0.2662254997698208    0.2318270322885837    
  0.23531208969867856    0.26398296609626326    0.2978181751518607    0.31274807657974263    0.29781817099000946    
  0.2639829617046808    0.23531207079268437    0.2318270872204117    0.2662255693417623    0.34357048943593926    
  0.4458060430237852    0.5278516931120659    0.556896736113682    0.5950327379221945    0.5462583723047061    
  0.4317632210483728    0.31430415039360443    0.2352192516469054    0.2016063934078679    0.2040467602884385    
  0.23013475828179766    0.2613593903977078    0.27506602994748947    0.26135942907108656    0.2301347108859256    
  0.2040467047337307    0.20160639608349495    0.2352191941309533    0.314304265629164    0.43176323493382923    
  0.5462584164879153    0.5950327379221945    0.5984752963122039    0.550871500711024    0.43780410367043915    
  0.32047741648695527    0.24090595538659032    0.20680116582362082    0.2089515487827044    0.2348445886238236    
  0.2659197760407405    0.2796101081913343    0.2659197280589587    0.23484458734369165    0.20895152511087    
  0.20680120129520446    0.24090585586728774    0.32047750824931065    0.4378040745253974    0.5508714127579255    
  0.5984752963122039    0.5473592968544471    0.5262562770403209    0.45756109433403935    0.36154865953170373    
  0.2843961871746037    0.24871539207909482    0.25130676373596955    0.278911101137111    0.31126194882049035    
  0.3254904306943929    0.3112620040014458    0.278911094255697    0.2513067037444532    0.24871542370055447    
  0.28439617884888957    0.3615487041793842    0.4575609067800617    0.526256279289444    0.5473592968544471    
  0.3524672515780134    0.38608739021334737    0.4332366750932837    0.4137302512861152    0.3551229239761466    
  0.3192943652475794    0.32238170932629195    0.351025484382545    0.3815914641110865    0.3942387845254064    
  0.3815915544833109    0.3510254849819194    0.32238172530954756    0.31929445409665574    0.3551229644708808    
  0.4137302759761223    0.43323679172009694    0.3860873929647107    0.3524672515780134    0.15498227310343277    
  0.21242709930175585    0.3566135075236047    0.44441194026855363    0.42345830744339896    0.3911779467052865    
  0.39396697709979206    0.41981697289536396    0.44295505272359165    0.45102505489124717    0.4429549553566369    
  0.4198169231418772    0.3939669121338672    0.3911779864075094    0.42345818592161166    0.44441206859699767    
  0.3566135807416906    0.21242710489273034    0.15498227310343277    0.09456284888816409    0.14926981978518244    
  0.3152231596467811    0.4509258659567283    0.45171528617951634    0.4223444010420395    0.4246873472496236    
  0.44783162040872015    0.4659635811906701    0.4712702945727772    0.46596362398199953    0.4478315600212852    
  0.42468726202676693    0.42234440636966614    0.45171530389752856    0.45092590007396616    0.3152231746678223    
  0.14926978663775498    0.09456284888816409    0.26332134900006005    0.3070431513855714    0.38736010200191573    
  0.4014975225221542    0.3586668308889924    0.33145558222865434    0.34481766818549286    0.38941082603582605    
  0.4389559596347144    0.4607595888383453    0.4389559634569608    0.38941069412586077    0.34481763460222814    
  0.33145563583478693    0.3586667859520448    0.4014975952742262    0.3873600849461143    0.307043067039123    
  0.26332134900006005    0.3215399830796529    0.35488123253575815    0.40407089544140434    0.3904038585301361    
  0.3391239220727085    0.31094159948386524    0.32302279224016855    0.3653569692974096    0.4126902294760333    
  0.43348565271376793    0.4126902711878597    0.3653569406228618    0.32302279325958433    0.31094172847441115    
  0.3391238894573858    0.39040396990929815    0.40407085992892794    0.3548812230836491    0.3215399830796529    
  0.4551426745172687    0.4546985218448687    0.42705115021852696    0.35879713727485907    0.292838275440348    
  0.2631797291561319    0.2726223088951435    0.3098441842365158    0.3521510485521838    0.3707429869970395    
  0.35215098905173536    0.3098441129177876    0.2726222857439245    0.2631797227903646    0.29283821962078754    
  0.35879721084500615    0.42705119292287363    0.45469845317590557    0.4551426745172687    0.5471723363526756    
  0.5124481073934036    0.4229778309946129    0.32097668859924233    0.24812195618123942    0.21819872204843402    
  0.22536819111556797    0.25767144188767027    0.2947938466736765    0.31105283376789394    0.29479383447500007    
  0.2576714164969502    0.22536819345726025    0.218198740645759    0.2481219924402807    0.32097674403135795    
  0.42297769187629036    0.5124482076172269    0.5471723363526756    0.5707064445778977    0.523400767949044    
  0.41359481089687283    0.3023137452951345    0.22824358405822961    0.19825977221217392    0.20396251180589325    
  0.23344076942856534    0.2674831705227339    0.28228020464713516    0.2674831867651273    0.23344075920949275    
  0.20396247288918568    0.19825981851690105    0.22824359376701334    0.3023138123337721    0.41359477093867564    
  0.5234008742835167    0.5707064445778977    0.5813450392553394    0.5371178441993107    0.43107288865168786    
  0.32005497553707946    0.2446438674025152    0.21335957046707313    0.21838063652212392    0.24737693398910698    
  0.28096340103818424    0.29564191683479063    0.2809633603750234    0.2473769134298299    0.21838061806686535    
  0.2133595451556892    0.24464378548646828    0.32005498167629387    0.43107282387331797    0.5371179024634466    
  0.5813450392553394    0.5253992512713977    0.5119984403009682    0.45836596163721377    0.37305885610264067    
  0.30069437289198186    0.26742562353319704    0.27223678284341013    0.30123763380698515    0.33326797215457693    
  0.34697962959862816    0.3332679812153883    0.30123766950457903    0.27223678593655587    0.2674257063581804    
  0.3006943653493434    0.3730588327814076    0.45836595255421547    0.5119983772297948    0.5253992512713977    
  0.3083787380338156    0.35201083966847063    0.4278494583767134    0.4347624857592458    0.3863518921870919    
  0.35303124705447436    0.35639535060118815    0.3801723299361656    0.40018338020830635    0.4068186277451205    
  0.40018329059313007    0.38017228434780004    0.3563953145684187    0.35303128615443236    0.3863518415261036    
  0.43476250285980356    0.42784947206695567    0.35201089164736776    0.3083787380338156    0.11195298562176313    
  0.1697036746032352    0.3371435852465026    0.46829649920715727    0.46805772239959065    0.4392934099889539    
  0.4385411555426562    0.4478843062620396    0.4434514929044645    0.4370841946917598    0.4434513901626995    
  0.44788420333287865    0.4385411857484023    0.4392934097684864    0.4680576656138131    0.46829657922737905    
  0.33714359927128956    0.1697037323595657    0.11195298562176313    0.05970458642895424    0.10950145656982341    
  0.29001708694696854    0.47419048703767785    0.5018082368673643    0.47682326302093125    0.4733060849367034    
  0.4730905908700143    0.45457184276998003    0.44131392788484197    0.4545718534487277    0.4730905754567842    
  0.47330600030627246    0.4768233031821703    0.5018082071219672    0.4741905610282944    0.29001701181509154    
  0.10950144751334204    0.05970458642895424    0.11195300499055004    0.16970374748307093    0.3371435983520686    
  0.468296521124315    0.46805771059512424    0.43929336518409023    0.4385411969803757    0.4478843996205037    
  0.4434513292905414    0.43708425393330835    0.44345140084409335    0.4478842211451278    0.4385411048634264    
  0.43929352907376223    0.4680576389750225    0.46829658710174515    0.33714356675063545    0.16970368804628094    
  0.11195300499055004    0.3083787101078552    0.35201084255676957    0.42784942503562984    0.4347623775904293    
  0.38635196637751545    0.3530313272676924    0.3563953852269626    0.3801723167394448    0.4001834684129066    
  0.40681863635106386    0.4001834172942426    0.38017227057384984    0.3563953687201182    0.35303127881014507    
  0.38635185535660393    0.4347625327462417    0.4278493677413399    0.3520108151934933    0.3083787101078552    
  0.5253992123930603    0.5119983189158684    0.45836603974540374    0.37305883636312454    0.3006943946732047    
  0.2674255979135533    0.2722367402833146    0.3012376939325197    0.33326798853061324    0.3469795439238083    
  0.33326798939544083    0.3012376363246923    0.27223672952516864    0.2674256705966506    0.3006944143788315    
  0.3730588661476461    0.4583659378766604    0.5119984379124507    0.5253992123930603    0.5813450259955625    
  0.537117876024973    0.4310727495852984    0.32005497958351603    0.24464374695779478    0.2133595450090133    
  0.21838059439296578    0.24737692491816726    0.2809633431462439    0.29564191446553606    0.280963394019586    
  0.24737688175731845    0.21838056121108207    0.21335959985892958    0.24464379397209934    0.32005504538897417    
  0.43107283537649915    0.5371179159275349    0.5813450259955625    0.5707063754594255    0.5234008747953567    
  0.4135948678942222    0.3023137633934018    0.22824363500104852    0.19825976211346075    0.20396252029234874    
  0.23344077736668242    0.26748319271050264    0.28228024091926684    0.2674831929922035    0.2334407561704613    
  0.2039624724473155    0.1982598107136987    0.22824351598007583    0.3023138258097357    0.4135948552102818    
  0.5234007482088554    0.5707063754594255    0.5471723574557437    0.5124481710927158    0.4229777342522627    
  0.32097665450228247    0.24812196404320194    0.2181986627809845    0.22536821005196084    0.25767144549598403    
  0.2947938356092767    0.3110528570152275    0.2947938466218542    0.2576714535631013    0.2253681786179545    
  0.21819872554944864    0.24812197684801318    0.32097672650683245    0.4229775735626087    0.5124482436547816    
  0.5471723574557437    0.4551426687032314    0.4546985062029616    0.42705115572341035    0.35879718476889194    
  0.29283820421674955    0.2631797396711607    0.27262223143148134    0.30984408695326365    0.35215093726796126    
  0.37074297958967806    0.3521509964548428    0.30984407762493865    0.2726222740949437    0.26317978703027445    
  0.2928382716974178    0.3587972320681808    0.42705115663354554    0.4546985080475658    0.4551426687032314    
  0.3215398965093759    0.3548812424123131    0.40407096041823815    0.39040383583943533    0.3391239899021861    
  0.3109416115963963    0.3230228579862483    0.36535694398497703    0.41269031609289575    0.4334856140514509    
  0.41269023111025277    0.3653569042291027    0.3230227810539548    0.3109416380013988    0.33912387700370483    
  0.39040393688569125    0.40407089968742854    0.35488125410193727    0.3215398965093759    0.26332134900006005    
  0.3070431513855714    0.38736010200191573    0.4014975225221542    0.3586668308889924    0.33145558222865434    
  0.34481766818549286    0.38941082603582605    0.4389559596347144    0.4607595888383453    0.4389559634569608    
  0.38941069412586077    0.34481763460222814    0.33145563583478693    0.3586667859520448    0.4014975952742262    
  0.3873600849461143    0.307043067039123    0.26332134900006005    0.441313758729889    0.4370843997810286    
  0.40681847762554946    0.34697976188642593    0.2956417585410478    0.28228030143072863    0.31105274054120075    
  0.3707432175932033    0.4334854512293047    0.46075979307148635    0.4334854554035942    0.3707431088351568    
  0.3110527217578318    0.2822804007663499    0.29564173923439974    0.34697981163436187    0.4068183986173814    
  0.4370842861280345    0.441313758729889    0.45457205038655946    0.44345124375925354    0.40018350109640005    
  0.3332678006742457    0.2809635114252138    0.26748297872126536    0.29479400719710447    0.35215083353208837    
  0.412690363182259    0.4389558092030841    0.4126904333999387    0.3521508395225489    0.29479401673469185    
  0.2674830855257897    0.28096347044817993    0.3332679151679655    0.40018345863464333    0.4434512559567044    
  0.45457205038655946    0.47309048979459994    0.44788445795789505    0.38017216327142217    0.30123777545945085    
  0.24737679037257887    0.2334408856331603    0.25767135249189727    0.3098443569851086    0.365356802003279    
  0.38941090861158306    0.365356784900201    0.30984423715177545    0.25767132970968365    0.233440909254168    
  0.24737674026527426    0.301237854946503    0.38017214540549144    0.44788439404156033    0.47309048979459994    
  0.4733060990857419    0.43854088162522664    0.35639557604048083    0.27223662735908927    0.21838069270057117    
  0.20396229441015107    0.22536833869897768    0.27262211973640693    0.3230229804983939    0.34481737796893996    
  0.3230229289077028    0.2726220688631228    0.22536831342283087    0.20396234952734713    0.21838073545286737    
  0.27223666583928524    0.356395463774162    0.43854094801058957    0.4733060990857419    0.47682317393724133    
  0.4392936201630028    0.35303111474215787    0.26742579817980355    0.21335940930723957    0.1982599062107006    
  0.21819864114087273    0.26317988699805617    0.31094148475919375    0.3314557570473079    0.3109414787326319    
  0.2631798807970709    0.2181985988621884    0.19825993399656336    0.21335942290425472    0.2674258844121609    
  0.35303109619123724    0.43929370008542434    0.47682317393724133    0.5018084661990956    0.46805746322743513    
  0.3863521193937304    0.3006942462854006    0.24464396354134738    0.22824347547283463    0.24812216751888888    
  0.2928381078916731    0.33912412520291607    0.3586666950422847    0.3391240716472975    0.29283812227986683    
  0.24812217726717078    0.2282434362536371    0.2446439044193185    0.3006942810226481    0.3863520886153078    
  0.46805754229360114    0.5018084661990956    0.474190359630356    0.468296691186201    0.4347622134699043    
  0.3730590264235011    0.3200547951014014    0.30231380389677176    0.3209765726343056    0.3587972821043938    
  0.39040365831748824    0.4014977080656466    0.39040368865925207    0.3587973427589814    0.32097656866976776    
  0.3023139422902063    0.3200547751877799    0.37305898866089116    0.43476219061800814    0.4682966111009749    
  0.474190359630356    0.2900172486712479    0.33714342668227554    0.4278495845006524    0.45836588377846915    
  0.4310729715966705    0.41359462991454676    0.4229779135725783    0.4270510320495759    0.4040710647579208    
  0.38735994718709316    0.4040710495536205    0.42705097263417185    0.4229778864832032    0.41359462928362917    
  0.43107297381582843    0.458365909886545    0.4278496233574615    0.3371434550863844    0.2900172486712479    
  0.10950133276806454    0.1697038047067243    0.35201064476106836    0.5119985840476186    0.5371177059749543    
  0.523400905841284    0.5124480813660489    0.4546987144412761    0.3548811017912152    0.307043335631892    
  0.354881062168763    0.45469860557566677    0.5124480772823257    0.5234008959236561    0.5371176458533848    
  0.5119986689833753    0.3520106888979207    0.1697038349821401    0.10950133276806454    0.05970466129480469    
  0.11195291450657995    0.30837888455645535    0.525399008158436    0.5813451741676099    0.5707062034452214    
  0.5471726783738136    0.45514248486536907    0.3215401650859605    0.26332122620474707    0.32154013829445754    
  0.45514240656981475    0.5471726251894212    0.5707063110956694    0.5813451675065945    0.5253991493270027    