#     DFTpy    
  CRYSTAL 
    
  PRIMVEC    
  3.045438507463003    1.2740986170480001e-05    -3.1944e-13    
  -1.5227082197131674    2.6374335598869956    -6.25e-12    
  -5.252800000000001e-13    -1.216968e-11    5.007174100921899    
  PRIMCOORD    
  4    1    
  Si    7.581267276653038e-06    1.7582931623509097    2.815903677431145    
  Si    1.5227227064789906    0.8791531385006829    0.3123165899960539    
  Si    7.5812684208049515e-06    1.758293162350184    4.694857473949251    
  Si    1.5227227064839328    0.8791531385202159    2.1912704604542093    
  BEGIN_BLOCK_DATAGRID_3D    
  3d_datagrid_density    
  BEGIN_DATAGRID_3D#0    
  13    13    23    
  0.0    0.0    0.0    
  3.045438507463003    1.2740986170480001e-05    -3.1944e-13    
  -1.5227082197131674    2.6374335598869956    -6.25e-12    
  -5.252800000000001e-13    -1.216968e-11    5.007174100921899    
  0.1753736536334296    0.20155356646927128    0.2858502903062443    0.44055310796185027    0.6487407376669436    
  0.8315682903365456    0.9031696034821809    0.8315683046297568    0.648740717556304    0.4405530811902554    
  0.2858503035034632    0.2015535567460406    0.1753736536334296    0.20155356259077628    0.20156493117625288    
  0.25660332158046195    0.37441993820859915    0.5438262496221771    0.694200708799274    0.7623983135298604    
  0.7626926107174349    0.6944912743837217    0.5435429382491315    0.37435566392367164    0.2566907857826901    
  0.20155356259077628    0.2858503109088977    0.25660331286207105    0.28593225958589524    0.3744000517721058    
  0.49889928296719827    0.5634550090026862    0.5110460183826124    0.46376335164620974    0.5105428216413596    
  0.5634848132289175    0.49922862677330765    0.3743556746219534    0.2858503109088977    0.440553136361496    
  0.3744199664090295    0.3744000439170527    0.4404295589366285    0.5438830742872308    0.5634888484497882    
  0.402952798159939    0.24735926867912444    0.247587962009697    0.4029996164791601    0.563484847395651    
  0.543542919955964    0.440553136361496    0.6487407333747035    0.5438262457957058    0.49889927193178735    
  0.5438830823689768    0.6484841201205774    0.6945396974658268    0.510671731586394    0.24757676669340553    
  0.15552194970475686    0.24758795805146727    0.5105428472543319    0.694491357536694    0.6487407333747035    
  0.8315682876642133    0.6942007535106424    0.5634550473069447    0.5634888822560005    0.6945397161932805    
  0.8314770788247376    0.7624645412915441    0.463776655746305    0.24757674935401322    0.2473592432228664    
  0.4637633364671614    0.7626925833384811    0.8315682876642133    0.9031695824797162    0.7623983034728371    
  0.5110460698469832    0.4029528489887623    0.5106717745684713    0.7624645925552173    0.9034841786092364    
  0.7624645256619634    0.5106717554439295    0.4029527836516414    0.5110460770448162    0.7623982813606339    
  0.9031695824797162    0.8315683012734926    0.7626926139834663    0.4637633606710352    0.2473592889722449    
  0.24757678897862628    0.4637766679289606    0.7624645581789614    0.8314770809159286    0.6945396565564532    
  0.5634888649515812    0.5634550366756569    0.6942007221475085    0.8315683012734926    0.6487407521534952    
  0.6944913030651917    0.5105428832970625    0.24758795874702455    0.15552200292201684    0.24757677877558473    
  0.5106717821414309    0.6945397005276391    0.6484841150715552    0.5438831064991949    0.49889925384157496    
  0.5438262939072235    0.6487407521534952    0.44055310278292215    0.5435429112065999    0.5634848340410546    
  0.40299963615145473    0.24758797009539418    0.2473592884883349    0.4029528276351439    0.5634888613421624    
  0.5438831141476165    0.4404295329890888    0.3744000703604818    0.37441994420896274    0.44055310278292215    
  0.28585031629928515    0.37435566202422266    0.49922861089117343    0.5634848109378238    0.5105428896532064    
  0.4637633586035407    0.5110460570680819    0.5634550436298209    0.4988992519565631    0.3744000646435096    
  0.2859322506150354    0.2566033363367972    0.28585031629928515    0.20155356518123968    0.25669078476933005    
  0.374355659930791    0.5435428972034276    0.6944913054210774    0.7626925465354463    0.7623983172972281    
  0.6942007221306742    0.5438262634501586    0.37441993142161156    0.25660331610047016    0.20156492902934786    
  0.20155356518123968    0.1753736536334296    0.20155356646927128    0.2858502903062443    0.44055310796185027    
  0.6487407376669436    0.8315682903365456    0.9031696034821809    0.8315683046297568    0.648740717556304    
  0.4405530811902554    0.2858503035034632    0.2015535567460406    0.1753736536334296    0.17057022984793366    
  0.1950667880079706    0.27363429253185967    0.4169470742030876    0.6082516408923163    0.7739617429520749    
  0.8382203159858904    0.7740642077006535    0.6080029258570889    0.4169675435933878    0.27372748284270837    
  0.1950528326818295    0.17057022984793366    0.19505285865623043    0.19507862333451578    0.24826444288257105    
  0.36116385865788775    0.5146810429078268    0.6282845971485075    0.6576244033374784    0.6578490194637808    
  0.6285762331231629    0.5145943686588029    0.36100213958171684    0.24833832927941107    0.19505285865623043    
  0.2737274837550293    0.24456986461215555    0.27375581033365465    0.3610422644489267    0.4741640347452725    
  0.4934189420529944    0.3864364507931611    0.3218398094039059    0.3859906790342118    0.49344964556649323    
  0.47442032797156475    0.36100215960094634    0.2737274837550293    0.41696756654526246    0.35033966593493476    
  0.350396549230424    0.4168572323371711    0.5147771158719531    0.49353605180733995    0.27934555968651337    
  0.12696247058133864    0.1271318923164601    0.2793766353182773    0.4934497064762644    0.5145943243301961    
  0.41696756654526246    0.6080029587930924    0.509440179980512    0.4672606192212715    0.5094530070025636    
  0.607915613556608    0.6285949526159237    0.38604078235942296    0.12712870257854408    0.06007491847996412    
  0.12713188126437114    0.38599066027763185    0.6285762652167066    0.6080029587930924    0.7740641975969603    
  0.6734886763417781    0.5737063974995747    0.5736584569990949    0.6737064259742145    0.7739707406806705    
  0.6576672891670756    0.3218654016388088    0.12712869932355844    0.12696247905152314    0.32183980556610176    
  0.6578489946341668    0.7740641975969603    0.8382203592911717    0.7728855642620428    0.610897953348065    
  0.5344202735397273    0.6107308068033397    0.7728808236417769    0.8385410638969452    0.6576672691443728    
  0.3860408270003969    0.2793455535311669    0.3864364448129745    0.6576243640711709    0.8382203592911717    
  0.7739617297516792    0.7731930209092898    0.6081733213717259    0.4507568436854893    0.45084015596150173    
  0.6082678085295391    0.7728807835490376    0.7739707736305413    0.6285949272682002    0.4935361023182434    
  0.49341898519673266    0.6282846747992502    0.7739617297516792    0.6082516462236853    0.6736591613734778    
  0.6105184277267637    0.4508667431830828    0.3716918698951545    0.4508401127587082    0.6107308618865206    
  0.6737063566086993    0.6079156282133261    0.5147771422311563    0.47416403914463895    0.5146810760395374    
  0.6082516462236853    0.41694708364182076    0.5090866712632636    0.5736804163803747    0.5345707702437723    
  0.4508667677561915    0.45075685210118194    0.534420235672404    0.573658469811914    0.5094529904620312    
  0.4168571969476754    0.36104229442775826    0.36116388707511676    0.41694708364182076    0.27363428364518405    
  0.3503473760421367    0.4676016417096192    0.5736804206804863    0.6105183702676988    0.6081733351978722    
  0.6108979406305318    0.5737064135595379    0.46726058975575646    0.3503965550584814    0.27375580376817804    
  0.24826445625047144    0.27363428364518405    0.1950667895109479    0.24468000716379887    0.3503473733146006    
  0.5090866131871074    0.673659199805335    0.7731929664802784    0.7728855589295752    0.6734886955648536    
  0.5094401474273129    0.35033961847458783    0.2445698727974279    0.19507861187899928    0.1950667895109479    
  0.17057022984793366    0.1950667880079706    0.27363429253185967    0.4169470742030876    0.6082516408923163    
  0.7739617429520749    0.8382203159858904    0.7740642077006535    0.6080029258570889    0.4169675435933878    
  0.27372748284270837    0.1950528326818295    0.17057022984793366    0.1584866361733471    0.17880134494887984    
  0.2434311470131459    0.3593487563876447    0.511654717083507    0.6424319105052818    0.6929934623862928    
  0.6425285444941875    0.5113675801955687    0.35938470925193067    0.24352222637769266    0.17878911220688612    
  0.1584866361733471    0.17878912332348854    0.17881163109507225    0.22512268049745857    0.32281234894812844    
  0.45452599250562015    0.5512707855755499    0.5747551007892148    0.5749274074409769    0.5515232539691453    
  0.45451320369085557    0.32266318450063386    0.2251770329365303    0.17878912332348854    0.24352224279975537    
  0.21719155295322332    0.24353500026856537    0.32268385491569457    0.42792740868540385    0.4545440682664131    
  0.3658064419185255    0.3088145033661669    0.36540757542594493    0.454596622650367    0.42808469614150474    
  0.322663192791414    0.24352224279975537    0.35938474114923985    0.29821267850329947    0.2982759683771556    
  0.35929823624707186    0.45460664233953013    0.4546780846023359    0.2760399364684169    0.13570109500310315    
  0.13588140287212114    0.27604226849247865    0.4545966173191302    0.4545132170033673    0.35938474114923985    
  0.5113676149788442    0.4207409571304175    0.38459830714119336    0.42074087946880745    0.5113613841553468    
  0.5515236718375663    0.3654303317459816    0.13587948314285156    0.07014976837383101    0.13588140630976658    
  0.3654075711244594    0.5515233344590607    0.5113676149788442    0.6425285385864578    0.5542733303556739    
  0.4809283549247804    0.4808659520170968    0.5543892982787838    0.6424559145916486    0.5748101812272225    
  0.30881782627098714    0.1358794835153834    0.13570107515257687    0.308814472216177    0.5749273992373564    
  0.6425285385864578    0.6929934565792543    0.6442365963252985    0.550092271765531    0.5080032393956377    
  0.5500538453865238    0.6442144849020514    0.6932231781222017    0.5748102008536068    0.36543037384170374    
  0.2760399473682809    0.3658064641961047    0.5747550903118644    0.6929934565792543    0.6424318931061787    
  0.6444651618407563    0.5730598216703233    0.5027482133948576    0.5027189056674839    0.573170906249934    
  0.6442144756408869    0.6424559536796959    0.5515236391785882    0.4546781226452673    0.45454409282267233    
  0.5512708080484693    0.6424318931061787    0.5116547256676071    0.5543421002502296    0.5498792014838305    
  0.5027418128906547    0.473403391522662    0.5027189069604581    0.550053886940995    0.5543892610930135    
  0.5113613958321382    0.4546066464982999    0.42792740709438426    0.4545260029286858    0.5116547256676071    
  0.35934875903432195    0.42045412741644544    0.4808820189372445    0.5081644080817943    0.5027417958027138    
  0.5027482094888321    0.5080032366866838    0.4808659350513978    0.4207408746748311    0.3592982021837034    
  0.3226838625252481    0.3228123546990736    0.35934875903432195    0.24343114879275732    0.2982341279195756    
  0.384873827745578    0.4808819653099021    0.549879194411211    0.5730597913544825    0.5500922892537189    
  0.4809283764873008    0.38459829405699514    0.29827596817816654    0.24353499092324227    0.22512269703865603    
  0.24343114879275732    0.17880133466691966    0.21728386947489584    0.2982341141159095    0.42045411940745764    
  0.554342132551351    0.6444651222206191    0.6442365999740187    0.5542733122796272    0.4207409460771156    
  0.29821265296629473    0.21719154586398906    0.1788116226142166    0.17880133466691966    0.1584866361733471    
  0.17880134494887984    0.2434311470131459    0.3593487563876447    0.511654717083507    0.6424319105052818    
  0.6929934623862928    0.6425285444941875    0.5113675801955687    0.35938470925193067    0.24352222637769266    
  0.17878911220688612    0.1584866361733471    0.14392257505309777    0.15943363772559527    0.20857014832063409    
  0.29548884560564487    0.40918641388628507    0.5093340443897473    0.5493083810075496    0.5093733974543784    
  0.4090261816058122    0.2955190547850402    0.20860803981346485    0.15942964303510135    0.14392257505309777    
  0.15942965731007647    0.15943620364292257    0.19783283058383608    0.2796232251773772    0.39616616924408976    
  0.5002766431596718    0.5469222016204695    0.5470136819105578    0.5004376976421547    0.39614884433274555    
  0.2795650446497535    0.19785403216616063    0.15942965731007647    0.20860804352670728    0.1857497510585611    
  0.20861494067325131    0.2795671811022301    0.3878042233524794    0.4664171536713807    0.45489616610405137    
  0.4275376826769494    0.4546111876561332    0.46647634162111945    0.3878601275629623    0.27956505439241    
  0.20860804352670728    0.2955190813451728    0.2405685296400781    0.24060551854155174    0.2954696109609816    
  0.3961987308362581    0.4664960881365607    0.39954940510883674    0.29169037970147405    0.2919003019969523    
  0.3995085505729038    0.4664763672220944    0.396148825812548    0.2955190813451728    0.40902618070325225    
  0.3219275126156283    0.29133067491717635    0.3219262783991964    0.40903138264658995    0.5004378809393893    
  0.45462161947136337    0.29189973469497865    0.2167941786066389    0.2919002807029115    0.45461117621448954    
  0.5004377149862961    0.40902618070325225    0.5093733633662628    0.41078360749419773    0.3505550982633396    
  0.3505197432877685    0.41084064683088634    0.5093230681769803    0.5469875248358756    0.4274952959859245    
  0.2918997245188817    0.29169035682465955    0.427537668870419    0.5470136223907617    0.5093733633662628    
  0.5493083991051915    0.47225237914068235    0.39913191882368215    0.37175770776410316    0.39911865503381416    
  0.47225636282878547    0.5493918559104822    0.5469875515738349    0.45462161714207566    0.39954938419801506    
  0.4548961672775732    0.5469221991836428    0.5493083991051915    0.5093339920890217    0.47234350754662696    
  0.41821000672324765    0.38097129175023    0.3809621258531425    0.4182506744323625    0.4722563427128301    
  0.5093231008561753    0.5004378493564998    0.46649609365224315    0.46641714070236123    0.5002766893778852    
  0.5093339920890217    0.40918641651500903    0.41080325868980133    0.3990527524024686    0.3809677097255903    
  0.3718173254249941    0.3809621136899054    0.39911867914019217    0.41084064700447065    0.4090313996945277    
  0.3961987366496838    0.38780421692480654    0.39616616015343176    0.40918641651500903    0.2954888564272379    
  0.32178076384242393    0.35053278755094563    0.371815541849632    0.38096771059751666    0.3809712883077301    
  0.3717576912667597    0.3505197596638571    0.32192626867736107    0.2954695953462975    0.27956717244406665    
  0.27962323919240434    0.2954888564272379    0.2085701433728646    0.24058447155097692    0.2914643917788402    
  0.35053278505366586    0.39905274387027667    0.41820998532004405    0.3991319257241927    0.35055509772701754    
  0.29133066538367347    0.24060551239263778    0.2086149221651459    0.1978328406085565    0.2085701433728646    
  0.15943362162680977    0.1857856057588548    0.24058448011587197    0.3217807424116767    0.41080327759583196    
  0.47234345681692397    0.47225238046239265    0.4107835805449378    0.32192749023849465    0.240568484837953    
  0.18574974975914982    0.1594361970281561    0.15943362162680977    0.14392257505309777    0.15943363772559527    
  0.20857014832063409    0.29548884560564487    0.40918641388628507    0.5093340443897473    0.5493083810075496    
  0.5093733974543784    0.4090261816058122    0.2955190547850402    0.20860803981346485    0.15942964303510135    
  0.14392257505309777    0.13152458416575186    0.1432744899445323    0.18067199152919103    0.24668548042161723    
  0.3336903486887994    0.4129249808464715    0.4455731103640692    0.41293106658016643    0.33365813818763634    
  0.24669590350178408    0.18067742251836494    0.14327501971089704    0.13152458416575186    0.14327501857224015    
  0.1432740239520141    0.17569224928833985    0.24598777144580028    0.3528287475803256    0.4668429924120355    
  0.5383305555851177    0.5383555452254545    0.46689286708168143    0.35281890837553936    0.24598248105253806    
  0.17569794500375577    0.14327501857224015    0.18067742291220773    0.16031218899260344    0.18068067661299334    
  0.2459803045113806    0.3591343685805248    0.49031248710560216    0.5762426943151342    0.5992414866756344    
  0.5761495369194314    0.49033383087508636    0.35914913414222754    0.24598247904365847    0.18067742291220773    
  0.24669593312016014    0.1958836306541217    0.1958899360085498    0.24668206128487993    0.35283430150664297    
  0.49033163745339514    0.5782133232454106    0.5868234318833029    0.5869159673952788    0.5781934701662784    
  0.4903338290548032    0.35281892637819345    0.24669593312016014    0.33365815165314117    0.2482456127456809    
  0.2207071394794415    0.24824573353592405    0.33365752850247005    0.4668937691460676    0.5761557356872831    
  0.5869151466283941    0.5665147352981439    0.5869159308477786    0.5761495621440463    0.4668929048241959    
  0.33365815165314117    0.412931076485103    0.305244417231989    0.25077768391074107    0.25077350850611735    
  0.3052607894147195    0.41291920363247275    0.5383532367822444    0.5992217745064138    0.5869151316780691    
  0.5868233984973517    0.5992414539110634    0.5383555212511689    0.412931076485103    0.4455730965738192    
  0.3442281182323745    0.2765520303791453    0.25379718561939507    0.27654468370664165    0.3442338742501197    
  0.4455949150768017    0.5383532276979939    0.576155719294027    0.5782132732852847    0.5762426733368137    
  0.5383305466932284    0.4455730965738192    0.4129249597049881    0.34424341842493167    0.2869338298960432    
  0.25585589346181725    0.2558608852256425    0.2869438663249797    0.3442338356343811    0.412919205499695    
  0.46689372323133327    0.4903316500912465    0.4903124744122703    0.4668429801750039    0.4129249597049881    
  0.3336903433794764    0.30524791482926816    0.27653382462459963    0.25585963459846345    0.2483220956603794    
  0.25586088563129056    0.27654469509999313    0.30526077273627855    0.33365754045377183    0.3528343198934372    
  0.35913434023255064    0.3528287533986207    0.3336903433794764    0.24668547606007418    0.24821022775164356    
  0.2507724288912911    0.2538032927894343    0.25585963449160326    0.25585590178273665    0.2537971844471612    
  0.2507735209280758    0.2482457223376065    0.24668203004043426    0.24598029769852764    0.24598778124608564    
  0.24668547606007418    0.18067198657971062    0.19588414999984863    0.22073704453348614    0.2507724186558513    
  0.2765338327248144    0.2869338042036496    0.27655203857072874    0.2507776860982771    0.2207071266484023    
  0.1958899338941561    0.18068066525503584    0.17569225703390243    0.18067198657971062    0.1432744761289412    
  0.16031659955772945    0.19588416334514597    0.24821023089915709    0.3052478932593596    0.3442433623024965    
  0.34422811133994713    0.3052443953907157    0.24824559629593218    0.19588359814999914    0.1603121852213082    
  0.14327399951458533    0.1432744761289412    0.13152458416575186    0.1432744899445323    0.18067199152919103    
  0.24668548042161723    0.3336903486887994    0.4129249808464715    0.4455731103640692    0.41293106658016643    
  0.33365813818763634    0.24669590350178408    0.18067742251836494    0.14327501971089704    0.13152458416575186    
  0.12470595092868085    0.13449418471178237    0.16589567214488105    0.2213967627653461    0.29492818148895505    
  0.3627010027504541    0.3908031725500957    0.3627001768141452    0.2949279260596243    0.22140399892980311    
  0.16589312535688058    0.13449632633068745    0.12470595092868085    0.13449631514142762    0.13449764473078207    
  0.163972855424565    0.22846098439313303    0.3294765928969827    0.4457975136884408    0.5275651547336194    
  0.5275963596029931    0.44581370035518103    0.32946917583664614    0.22845992218198613    0.16398232051681583    
  0.13449631514142762    0.1658931378726381    0.14662547825939906    0.1658990387735358    0.22845585642671037    
  0.34352968706434167    0.49978591295460884    0.6415957609927868    0.6990117973948301    0.6415418219639493    
  0.49980248667278804    0.3435425353553288    0.22845992634743673    0.1658931378726381    0.22140402434698503    
  0.1724934061511998    0.1724871448562621    0.2214000041910517    0.32947778458391896    0.4998020339595356    
  0.6852511757911894    0.8027107825665795    0.802757373617507    0.6852597307918041    0.49980250560673894    
  0.3294692066981803    0.22140402434698503    0.29492793825890345    0.2111096301321141    0.18480373531863475    
  0.21111170959411285    0.29492142124709303    0.4458127919573506    0.6415596653942676    0.802754339505931    
  0.862146510989539    0.8027572722184662    0.641541865898835    0.4458137029746326    0.29492793825890345    
  0.36270016029268687    0.2533308812824153    0.2017240975141402    0.2017298785911372    0.25333675159914537    
  0.3627039652756404    0.5275790034664581    0.6990110709139045    0.8027542954131537    0.8027107243307516    
  0.6990117623473829    0.5275963437255667    0.36270016029268687    0.3908031739406084    0.2814090445224547    
  0.21710025930834193    0.1960891919615285    0.21709180195269986    0.2814114582063595    0.3908220795955027    
  0.527578989913571    0.6415596716641687    0.685251117289189    0.6415957208709361    0.5275651319802275    
  0.3908031739406084    0.3627009662868404    0.2814216415220566    0.22320434346032014    0.19382334510574437    
  0.19382274793217633    0.22321930116958374    0.2814114683173797    0.3627039819562519    0.445812747613672    
  0.4998019839402724    0.4997859290643944    0.44579749182537715    0.3627009662868404    0.29492816446113657    
  0.25332973950272347    0.21708781542398328    0.19382070234114201    0.18585928949111305    0.19382276369691476    
  0.21709181735436328    0.2533367314291354    0.2949214253183422    0.32947776673831225    0.3435296657951383    
  0.3294765930327861    0.29492816446113657    0.22139675321178243    0.21110401996324094    0.20171830644822614    
  0.19610038654712575    0.19382070957432407    0.19382334063581233    0.19608919238540992    0.20172989601231112    
  0.21111169393814946    0.2213999725323895    0.22845586404288212    0.2284609617544633    0.22139675321178243    
  0.16589567879473419    0.17248288211720425    0.18481757688067982    0.20171831459123218    0.21708781250146106    
  0.22320434866451627    0.21710025677087705    0.2017240991062612    0.1848037196676959    0.17248714245558436    
  0.16589902234937537    0.16397286694639188    0.16589567879473419    0.13449417674192438    0.14663093071175468    
  0.172482890445837    0.21110399969083946    0.2533297283888264    0.28142162247988456    0.2814090199698471    
  0.2533308771190591    0.2111096123973976    0.17249337278351615    0.14662547357934286    0.1344976337435168    
  0.13449417674192438    0.12470595092868085    0.13449418471178237    0.16589567214488105    0.2213967627653461    
  0.29492818148895505    0.3627010027504541    0.3908031725500957    0.3627001768141452    0.2949279260596243    
  0.22140399892980311    0.16589312535688058    0.13449632633068745    0.12470595092868085    0.1247055321381733    
  0.13449462173398635    0.16589518904150832    0.22139731769936272    0.294927534039235    0.36270171507635907    
  0.3908024433624734    0.3627008796989011    0.2949272837939221    0.22140456888759705    0.16589264231974216    
  0.13449676697992893    0.1247055321381733    0.13449675402296926    0.13449721131227946    0.16397333529155883    
  0.22846042146711074    0.329477269376527    0.4457967156148972    0.5275660112499865    0.5275955045587436    
  0.4458144795109511    0.32946850285936274    0.22846048523382523    0.16398184249276662    0.13449675402296926    
  0.16589265348095494    0.14662593561659795    0.16589855350289046    0.2284564214554276    0.34352898684765837    
  0.49978674593137995    0.6415948320731961    0.6990127642443924    0.6415408937046113    0.49980331887900276    
  0.34354183085396345    0.22846048778055733    0.16589265348095494    0.22140458217132675    0.17249290630751776    
  0.17248763831127853    0.2213994502000133    0.3294784667277893    0.49980120167484543    0.6852521198386256    
  0.802709749626757    0.8027583680911184    0.6852587774902018    0.4998033341058977    0.32946852522250253    
  0.22140458217132675    0.2949272924428588    0.21111016941206998    0.18480322718858344    0.21111225413533966    
  0.29492077815741613    0.4458135625886078    0.641558732120493    0.8027553688983657    0.8621454173315967    
  0.8027583375780709    0.6415409062055575    0.4458144834501493    0.2949272924428588    0.3627008815197612    
  0.25333028859988566    0.20172462736385952    0.2017293429925366    0.25333734672682645    0.36270325280125215    
  0.5275798424990609    0.6990100914055473    0.8027553359725814    0.8027096937803117    0.6990127429582121    
  0.527595489284028    0.3627008815197612    0.3908024404888689    0.28140967800551187    0.21709971072304196    
  0.19608971856980745    0.21709124417454886    0.2814120802623467    0.39082134084944525    0.5275798466171636    
  0.6415587290825048    0.6852520579280896    0.6415948007336425    0.5275659989471254    0.3908024404888689    
  0.3627016885437674    0.2814210068908124    0.2232048918330409    0.19382281587496702    0.19382328305763466    
  0.22321871947744007    0.28141210277566975    0.3627032614509477    0.4458135101877168    0.4998011659819791    
  0.49978674949866475    0.44579670901412116    0.3627016885437674    0.2949275160923086    0.253330339387495    
  0.21708725655638336    0.19382123631681478    0.18585877900542638    0.19382328430983511    0.21709125405116592    
  0.25333732387144753    0.29492079146318945    0.32947844855502295    0.34352897503911656    0.32947727126865406    
  0.2949275160923086    0.22139731928164824    0.21110346859183823    0.20171884672994259    0.19609985204087943    
  0.1938212304477195    0.19382283015662316    0.1960897102694866    0.20172936642885073    0.2111122447658155    
  0.22139941340229882    0.2284564272979604    0.22846039554635716    0.22139731928164824    0.1658951844896469    
  0.17248338702876037    0.1848170593566239    0.2017188539611306    0.21708726190517974    0.2232049052036776    
  0.21709969833857273    0.2017246301139646    0.1848032101319403    0.17248763565264488    0.16589854324442815    
  0.1639733528719258    0.1658951844896469    0.13449461770885862    0.14663047003394628    0.17248338929590262    
  0.21110345790661522    0.25333032954119616    0.28142098572847707    0.28140964986243094    0.25333028737086655    
  0.2111101563563247    0.1724928739040948    0.14662593258212253    0.13449719515965294    0.13449461770885862    
  0.1247055321381733    0.13449462173398635    0.16589518904150832    0.22139731769936272    0.294927534039235    
  0.36270171507635907    0.3908024433624734    0.3627008796989011    0.2949272837939221    0.22140456888759705    
  0.16589264231974216    0.13449676697992893    0.1247055321381733    0.13152501606489203    0.14327403838397265    
  0.18067250131454007    0.24668488996157684    0.33369101972320725    0.41292422884912394    0.4455738826174953    
  0.41293032527505935    0.33365882434619387    0.246695323068193    0.1806779272813747    0.14327457105583977    
  0.13152501606489203    0.14327456395169505    0.14327447335510832    0.17569174950992178    0.24598836386683096    
  0.35282805659047506    0.4668437691214425    0.5383297075286058    0.5383564015679012    0.4668920713639219    
  0.35281961048156063    0.24598190079117785    0.1756984406695453    0.14327456395169505    0.1806779319383635    
  0.16031171024628355    0.18068118571776165    0.24597972166361767    0.35913504921232053    0.49031167079738847    
  0.5762435745793173    0.5992405903118256    0.576150417567931    0.490333022820342    0.3591498431577448    
  0.24598190727955435    0.1806779319383635    0.24669535372200896    0.19588415702734804    0.1958894159871196    
  0.24668264145500024    0.35283360192573354    0.490332444310747    0.5782124310834009    0.5868243260827151    
  0.58691506614172    0.5781943685492151    0.49033301167161386    0.35281962324139493    0.24669535372200896    
  0.33365882700295524    0.24824503458234723    0.2207076933056987    0.2482451522191201    0.33365820029320353    
  0.46689297231129423    0.5761565956422005    0.5869142439956628    0.566515614632272    0.586915034268    
  0.5761504447808025    0.4668921167301076    0.33365882700295524    0.41293033647875205    0.30524507259274736    
  0.25077709361428124    0.2507740968894933    0.3052601258855181    0.41291994723750985    0.5383523721350433    
  0.5992226666928062    0.5869142351599436    0.5868243007107871    0.5992405587522692    0.5383563720892649    
  0.41293033647875205    0.44557388820706717    0.34422742596024963    0.2765526555273412    0.2537965861138592    