#     DFTpy    
  CRYSTAL 
    
  PRIMVEC    
  7.942239279718552    6.334886687117241e-07    1.045834264275862e-06    
  6.334888192220689e-07    7.942242003287058    1.0572724638565519e-06    
  1.045834398035862e-06    1.0572724881324139e-06    7.942241452780686    
  PRIMCOORD    
  16    1    
  Si    1.171958939347654    6.770281801272658    2.799162183502025    
  Si    6.770280897548141    1.1719614608626079    5.143078130512667    
  Si    1.1719601332478358    1.1719604265346373    1.171960838988873    
  Si    2.7991662947049507    2.799167457139737    2.7991671646862093    
  Si    6.770278971631892    2.799162378826372    1.1719595251942474    
  Si    1.1719586774380848    5.1430825933870805    6.770281739332524    
  Si    2.799161330752129    1.1719617011412158    6.770282378444717    
  Si    5.14307784153113    6.770283637441837    1.1719596206189753    
  Si    5.14307744025403    2.7991679245510386    6.7702860776405975    
  Si    2.7991634017060196    5.14307561709259    1.1719557670683978    
  Si    5.1430748061664    5.143079567795356    5.143078021732509    
  Si    6.770281122499339    6.7702848644163565    6.770283382123064    
  Si    2.799166606053766    6.770288459438217    5.143078302297929    
  Si    5.143073630746828    1.1719553319663658    2.7991644691607505    
  Si    6.7702839619250215    5.1430788415647015    2.7991673529514376    
  Si    1.1719556745412414    2.799165431195263    5.143075550602944    
  BEGIN_BLOCK_DATAGRID_3D    
  3d_datagrid_density    
  BEGIN_DATAGRID_3D#0    
  37    37    37    
  0.0    0.0    0.0    
  7.942239279718552    6.334886687117241e-07    1.045834264275862e-06    
  6.334888192220689e-07    7.942242003287058    1.0572724638565519e-06    
  1.045834398035862e-06    1.0572724881324139e-06    7.942241452780686    
  0.03734255316707908    0.03846826281311353    0.041629572239815664    0.04610802757095678    0.05078374829713293    
  0.05452926816290613    0.05663603535486984    0.057223451061245316    0.05702566825804507    0.05684028945280312    
  0.05702570222551096    0.057223506641913446    0.05663618298829098    0.05452933716379373    0.05078395239413843    
  0.04610810388315841    0.041629784132244406    0.0384683363966532    0.037342789642560416    0.03846840556840415    
  0.04162994012120009    0.04610832034838937    0.05078418414004355    0.0545296240541723    0.056636427414571956    
  0.057223755548663074    0.05702588323541091    0.05684050139639577    0.05702580645290267    0.0572236680910228    
  0.056636203984220736    0.05452947695918472    0.05078389730705974    0.046108185208080445    0.04162965848832884    
  0.038468316531395326    0.03734255316707908    0.0384682661034164    0.04373435542819088    0.051574638116920285    
  0.06098367412657807    0.07019506858830522    0.07737302050847379    0.0813386199166021    0.0823942480907491    
  0.08204431054657037    0.0817329269428753    0.0820443436259971    0.08239441765464744    0.08133874563503625    
  0.0773732626766605    0.07019519708633236    0.06098395649881494    0.051574715305835905    0.04373460269777615    
  0.03846833429409063    0.03584645368682234    0.03543031514216907    0.03652145828859638    0.03827867487484465    
  0.03989017793720431    0.040865214799169915    0.04117379963551678    0.04109499998063269    0.04100230693135179    
  0.04109497594413301    0.04117370634348491    0.040865144000801656    0.03989000967564186    0.038278595691310174    
  0.036521255425602264    0.0354302511477456    0.03584624828087067    0.0384682661034164    0.04162960199251067    
  0.05146041321012857    0.06505106350762879    0.0809977017532223    0.09654790181914581    0.1086387958446127    
  0.11535075044322349    0.11726356183214176    0.11683169982141065    0.11639037702630202    0.1168318188671369    
  0.11726372517973217    0.11535108628222057    0.1086389888435778    0.09654827231962855    0.0809978686567125    
  0.06505136438707436    0.051460510960581414    0.041629822953497674    0.03552241214301981    0.03236070915273118    
  0.031206697805256315    0.03118213950622563    0.03157015991847744    0.03190404568712931    0.03203166845997508    
  0.03200220689986232    0.03196340131737355    0.03200218306975017    0.03203166882181278    0.03190394504858746    
  0.03157013672579678    0.03118202503729241    0.031206673487776462    0.03236054015557254    0.03552238214417524    
  0.04162960199251067    0.04610803141908357    0.060526757084509206    0.08029826849593877    0.10362827144808766    
  0.12660967745073784    0.14454322906769415    0.15468488243755482    0.15792746716445882    0.15763215752824228    
  0.1570967323424366    0.15763225025069388    0.15792777803203148    0.15468517163085418    0.144543727646833    
  0.12660999157230213    0.10362876473921714    0.08029843914332577    0.06052705874861257    0.0461080825632944    
  0.03687133271037491    0.031628150819591944    0.029033126918331518    0.027997515144592942    0.027743908077725185    
  0.027756714600629433    0.02777082097140998    0.02773725384386066    0.027711130099760763    0.02773724558590248    
  0.027770794364149035    0.02775673190303799    0.027743844816151497    0.02799753676752896    0.029033032392446454    
  0.0316281375049832    0.036871162017324766    0.04610803141908357    0.05078379143747744    0.06883551560304658    
  0.09379135202361263    0.12352052747925765    0.15301761875824546    0.17622002890432384    0.1897214583641419    
  0.19453902685261124    0.1945858749977273    0.19402423413442477    0.1945860379941988    0.1945393098836988    
  0.18972195955745075    0.17622041955189963    0.15301818047488286    0.1235208302564861    0.09379175995972953    
  0.0688356569844105    0.05078403708836341    0.03926860595172142    0.032684508980130055    0.029325973725617602    
  0.027857136922697055    0.027372685728654447    0.027285774670921425    0.027266035606438543    0.02722416127002535    
  0.027200813214233125    0.027224147810478206    0.027266074053153382    0.02728576378397955    0.027372722636200133    
  0.02785707297883896    0.029326006316692167    0.03268438956628359    0.03926859211640159    0.05078379143747744    
  0.0545292553595809    0.07409217983836393    0.10147432362636988    0.13431320715315478    0.16701521882526998    
  0.1930233900629414    0.2085874526351874    0.21451242207079438    0.2148907219315488    0.21434119754259034    
  0.21489083534832584    0.21451284708998974    0.2085878328885127    0.19302400828728028    0.1670156224951756    
  0.1343137776519847    0.10147454619784092    0.07409252299052656    0.05452931806037677    0.04220891703151002    
  0.03528979712439095    0.03190952684196289    0.030583104856826776    0.03026254172331617    0.030290511783002114    
  0.030323519104621964    0.03029650320725108    0.03027550494343185    0.030296539859526843    0.030323534394220735    
  0.030290591194423348    0.030262549453798825    0.030583177645380624    0.03190945656976946    0.03528980845318183    
  0.04220875510115629    0.0545292553595809    0.05663610117555793    0.07493068745450705    0.10089323057561086    
  0.1322462744777644    0.16363804349060432    0.18883263426057256    0.2039695201706108    0.20971955965000177    
  0.21009492510598154    0.2095601398131905    0.21009507336546723    0.2097198436048241    0.2039700312320694    
  0.18883304092615913    0.16363866724433704    0.1322466123236333    0.10089366260379969    0.07493083074541661    
  0.05663635665341096    0.04541324422729549    0.03949269842077638    0.03708792337324197    0.03666333877392544    
  0.037041674286494686    0.037477865279246736    0.037652681377968115    0.03762160282285208    0.037583432070887796    
  0.037621616862295246    0.03765277819351361    0.03747791760954333    0.03704179143149638    0.036663318124950633    
  0.03708800640465951    0.03949257661352273    0.0454132459373525    0.05663610117555793    0.05722341433486993    
  0.07161884153462415    0.09262472019973347    0.11831529568105774    0.14432127904105038    0.16531093061161636    
  0.17772885838090038    0.18220088542176857    0.18229853111328814    0.18177112885289587    0.1822986136840802    
  0.18220121465747982    0.17772912102959668    0.1653114007655538    0.14432155933498592    0.11831576881714809    
  0.09262488830084566    0.071619178281429    0.05722349498328737    0.04906694311135938    0.04575880846678273    
  0.04568857541021858    0.047279496739950876    0.04918255735398976    0.05049079283566494    0.05093384798403428    
  0.05085398072489634    0.050753543861324225    0.05085404066667984    0.05093391390247769    0.05049097510652257    
  0.04918260968097164    0.04727962740318157    0.04568852948972113    0.04575884854221489    0.04906677589141943    
  0.05722341433486993    0.057025737506176254    0.06576981990374169    0.07984803579587792    0.09768242714852915    
  0.11606421462403012    0.13103184525643954    0.13979156269833826    0.14274957737563737    0.14258295439754165    
  0.14210745174016567    0.14258303998670094    0.1427497187388328    0.13979187804510768    0.13103204380385775    
  0.11606460958404342    0.09768263395247666    0.07984835526510771    0.06576994892587838    0.05702602260370464    
  0.053624029786984294    0.054669363358386784    0.058704718270979325    0.0639422907428716    0.06863753507277864    
  0.07151861571996389    0.07243520647562293    0.0722621563544821    0.0720507574432221    0.07226221396974235    
  0.07243541485368145    0.07151871064116706    0.06863773830850714    0.06394229179302174    0.05870478809514232    
  0.05466917349120047    0.05362397901823904    0.057025737506176254    0.05684022678292466    0.05932251174428326    
  0.0663456871470039    0.076479947412187    0.0874197118832935    0.0965391173725137    0.1019185058679893    
  0.1036386634940931    0.10339356276621599    0.10303443098492142    0.10339359109467529    0.10363883354585542    
  0.10191858283923086    0.09653937716422477    0.08741985149939227    0.07648026388334778    0.06634582387326783    
  0.05932282499104229    0.05684036499765235    0.05932285893225262    0.0663459149255155    0.07648029427484526    
  0.0874198613071324    0.09653921558900486    0.10191841519367016    0.10363850613669288    0.10339333246417959    
  0.10303416526361005    0.1033934285871212    0.10363861901025392    0.10191861321360315    0.09653922476692718    
  0.08741992199012494    0.07648006789532248    0.06634580532798703    0.059322565995258605    0.05684022678292466    
  0.05702583600336003    0.05362395011100408    0.05466919899454193    0.0587046773481128    0.06394228524389434    
  0.06863760796186011    0.07151879510396025    0.072435406406849    0.0722624517786107    0.07205087980399022    
  0.07226249923441479    0.07243543672019756    0.07151893749321059    0.06863766846018626    0.06394252482330093    
  0.05870478341688193    0.054669502256348056    0.053624111772596794    0.057026250293445574    0.06577016296688497    
  0.07984873890838473    0.09768292489676329    0.11606492562432187    0.1310322187655236    0.13979195826695806    
  0.14274959760208014    0.14258294551715475    0.1421073738328529    0.14258294739136596    0.14274969690689193    
  0.13979186299530522    0.1310321675602285    0.1160645914223393    0.09768267897706062    0.07984827381106079    
  0.06576992239073486    0.05702583600336003    0.05722344497171691    0.04906691819297542    0.045758777191495056    
  0.04568858764420367    0.04727952328419226    0.04918272855928073    0.05049091010030147    0.050934100479063986    
  0.05085407368069526    0.05075381526612684    0.050854069594757315    0.05093417975510747    0.050490918093209256    
  0.049182853521224784    0.04727957947615604    0.04568883842522494    0.04575890283650429    0.04906728938143582    
  0.057223765935896426    0.07161975936000349    0.09262550019607989    0.11831666662963178    0.14432229976428973    
  0.16531224915799966    0.17772960191026563    0.18220167013669678    0.18229879999088733    0.18177147271017308    
  0.18229876840162876    0.182201465197467    0.17772933193798884    0.16531162261832869    0.14432174256824004    
  0.11831588031664247    0.09262495931904163    0.07161915885303224    0.05722344497171691    0.05663639180633544    
  0.045413221784105104    0.03949274871084434    0.03708791200727466    0.036663452204336824    0.03704169188047801    
  0.03747807561067026    0.037652717378208876    0.037621852022314634    0.037583424609532574    0.03762187056658635    
  0.0376527331968019    0.03747815580462812    0.0370417149956533    0.0366636174370578    0.03708801525609663    
  0.039493031790678416    0.045413474197426536    0.056636972124358594    0.07493143853922611    0.10089485848598541    
  0.13224771560224508    0.1636402293462305    0.18883430001576035    0.20397145161993585    0.20972072065168723    
  0.2100960902045848    0.20956072615298338    0.21009584186234487    0.20972028547837487    0.20397059612315718    
  0.18883339138002586    0.16363903443262084    0.13224676827379225    0.10089382155308375    0.07493085173953634    
  0.05663639180633544    0.0545292827609235    0.04220900406228063    0.0352897352532356    0.03190962212902157    
  0.030583045732065314    0.030262690160119652    0.030290486270346372    0.03032369227651067    0.030296465299873922    
  0.03027572874189243    0.030296466553726698    0.030323776388218773    0.03029050288874561    0.030262809383869355    
  0.030583135351676755    0.031909836093669    0.035289902465958485    0.042209461257043515    0.0545297697432105    
  0.07409361742161798    0.10147569581144723    0.1343156722200473    0.16701737745458714    0.19302626347794852    
  0.20858948457852855    0.21451473065972632    0.21489203898347678    0.21434266405465444    0.21489163151722152    
  0.2145138697413043    0.20858838808045632    0.19302473689211283    0.16701600832259797    0.13431418472115347    
  0.10147467205705835    0.07409268280942297    0.0545292827609235    0.05078416440390564    0.03926852941190121    
  0.03268459658566212    0.02932588140960067    0.027857230485001924    0.027372583292116164    0.02728591340094297    
  0.02726594177123843    0.02722435800595228    0.02720071841998953    0.027224380591487473    0.027265983049254736    
  0.027286041420593293    0.02737266284002568    0.027857438656756297    0.029326018736858868    0.032684911564458026    
  0.039268862797693774    0.05078484281340222    0.06883642876901047    0.09379344249784861    0.12352244021832312    
  0.15302066672709758    0.17622244063627684    0.18972447945744078    0.19454096492669487    0.19458802219127422    
  0.19402548291322186    0.1945875131290046    0.19454009310083195    0.18972300853108054    0.17622091222295802    
  0.15301887971663491    0.12352106410508992    0.09379209112877117    0.06883564858065365    0.05078416440390564    
  0.04610801687756197    0.03687143747390352    0.03162802766137874    0.02903321002224669    0.02799736645716282    
  0.02774399935411961    0.02775655228132585    0.027770969399747984    0.027737098890121718    0.02771135874200846    
  0.027737154471309748    0.027771114318079305    0.027756683756689444    0.02774423126019576    0.027997541643730858    
  0.029033528029511712    0.03162827148238719    0.036871930247095994    0.04610850495641691    0.06052817156120281    
  0.08029952823760958    0.10363072782132832    0.1266117485709647    0.14454618099382177    0.1546869756231649    
  0.15792998096843686    0.15763359990664044    0.15709847252410977    0.15763314668825726    0.1579289976631231    
  0.15468572787736826    0.14454456567343077    0.12661027582891413    0.10362924751676356    0.08029848560035031    
  0.06052726152211235    0.04610801687756197    0.041629942632800274    0.035522266800182556    0.03236076249529425    
  0.031206510448846408    0.031182194496517306    0.03156993658174728    0.03190410970265356    0.0320314581813868    
  0.0320024030074816    0.03196326877644554    0.032002515576866286    0.032031637430336074    0.03190442520828518    
  0.03157019776518098    0.03118258739768268    0.03120680366509294    0.03236120594350654    0.03552263873427981    
  0.041630588477060124    0.05146107517024512    0.06505269769908124    0.08099899750490384    0.09655021034746317    
  0.10864047016378307    0.11535305543924824    0.11726494433233281    0.11683343116691906    0.11639125262387191    
  0.11683299464506161    0.11726424288306014    0.11535194098493022    0.10863930261947569    0.09654885033042093    
  0.08099796344432611    0.06505167795768242    0.05146044967525922    0.041629942632800274    0.03846818705310158    
  0.03584650809546441    0.03543008629663454    0.03652145033258933    0.0382783539281521    0.0398901637205058    
  0.04086488140660836    0.04117391248942183    0.04109478552060161    0.04100263007293447    0.0410949455238802    
  0.04117429158230893    0.040865312446713556    0.03989076797698343    0.03827885145169895    0.036522045353126135    
  0.03543049647456925    0.03584708301972971    0.038468624280392154    0.043735437364034825    0.05157532061689302    
  0.060985186832624536    0.07019610346582547    0.0773747697740672    0.08133969090574442    0.08239573096690635    
  0.0820450380030646    0.08173400234078128    0.08204476854560154    0.08239517493279794    0.08133898042734898    
  0.07737382259919524    0.07019528731614269    0.06098428552884546    0.05157466416884856    0.04373474544626716    
  0.03846818705310158    0.0373428610144046    0.03846817056696395    0.04162989796653045    0.04610792449905151    
  0.050784078523511966    0.054529121909470214    0.05663636106629201    0.057223332154175424    0.05702609838399644    
  0.056840389270115886    0.057026448031895834    0.0572239374629845    0.05663723959269875    0.05452997714152702    
  0.05078505045679925    0.04610864501927341    0.041630649789413096    0.038468673435127    0.037343455156935414    
  0.038468640166700103    0.04163059332466736    0.04610856016424833    0.05078490700680557    0.054529894421487195    
  0.056637158066487774    0.057223966089369    0.05702651297429978    0.05684058631382079    0.05702632522938682    
  0.057223652437130054    0.05663663048577445    0.05452938717912382    0.05078426409869352    0.04610805927145518    
  0.04162996652502347    0.038468206040763064    0.0373428610144046    0.03846820303090654    0.04373471498530207    
  0.051574588359075114    0.06098409282489437    0.07019498434151784    0.07737341445426914    0.08133848376727512    
  0.08239467667733047    0.08204433537783104    0.0817336963532764    0.08204483451590021    0.08239574921540724    
  0.08133976301720787    0.07737492580687168    0.07019630512242511    0.060985364093236294    0.05157543478230429    
  0.04373551651859825    0.03846866625422847    0.03584706490501786    0.03543049823661429    0.03652197977202632    
  0.03827880360546377    0.03989068720098813    0.040865318360940345    0.04117427165688874    0.041095039407290285    
  0.04100269367768292    0.04109494044191384    0.04117403590635638    0.04086506022401385    0.039890286099408215    
  0.038278482086571274    0.03652151803918885    0.035430152430347736    0.0358465372685206    0.03846820303090654    
  0.0416299439375406    0.0514604299875722    0.06505153756896563    0.08099771596691883    0.0965483884425122    
  0.10863868335253206    0.11535117781454085    0.11726344176614176    0.1168323505576029    0.11639074138110816    
  0.11683315978018875    0.1172649330945012    0.11535322649624333    0.10864074703105041    0.096550521298882    
  0.08099927678233325    0.06505285542137104    0.05146122051225911    0.041630631223303724    0.03552268004665753    
  0.03236119253800738    0.03120681189384496    0.0311825294370886    0.03157021741531972    0.03190438761342407    
  0.03203167879791065    0.032002506271587836    0.03196336947221864    0.032002435969951    0.03203157809576434    
  0.031904165119324056    0.031570035783755945    0.03118223363259111    0.03120658853286353    0.0323607863272044    
  0.035522330035761406    0.0416299439375406    0.04610806657136536    0.06052722451165556    0.08029841148499131    
  0.10362887351446264    0.12660975301219987    0.14454369230440123    0.1546847168679373    0.15792788997498336    
  0.15763219260839376    0.1570977434718898    0.1576332200496966    0.1579299397440752    0.15468723540099447    
  0.14454660389413546    0.1266122406186841    0.1036311193318449    0.08029980410896367    0.06052834774523973    
  0.0461086297767196    0.036871941514129175    0.031628314329110147    0.029033491383035508    0.027997554592900285    
  0.027744184190109152    0.02775671342523145    0.02777106740562704    0.027737219464456637    0.02771133297970111    
  0.027737176636025904    0.027770967633932168    0.02775663971999625    0.027744003238126504    0.02799744788769795    
  0.029033219803227567    0.03162809357722514    0.03687144940777759    0.04610806657136536    0.050784173649901    
  0.06883570079306219    0.09379196079595901    0.12352077753605284    0.1530181900487954    0.176219967877819    
  0.1897217495354803    0.19453880531988    0.1945863379202316    0.19402462892099528    0.1945875488792296    
  0.19454097788305824    0.18972472218082093    0.17622297901707118    0.15302120959551824    0.12352293704412715    
  0.0937937313674362    0.06883668960454846    0.05078493751114421    0.039268945102903643    0.032684932218736716    
  0.029326066880307332    0.02785737789726631    0.027372714825867252    0.027285998213469113    0.027266015539353754    
  0.027224339966933145    0.02720077143365432    0.027224289704613207    0.02726599542716876    0.027285887412896035    
  0.02737263839069321    0.027857210180636815    0.029325944362860495    0.0326845971965116    0.03926861389572392    
  0.050784173649901    0.054529405780724405    0.07409268503378466    0.1014746549978989    0.13431383784598494    
  0.16701540679163304    0.19302375185397447    0.2085871945386627    0.2145124311776515    0.21489046548698548    
  0.21434172119951467    0.21489157235511433    0.2145146603433875    0.20858981701520518    0.19302678299842926    
  0.1670180464420706    0.13431617878064994    0.10147610063475286    0.07409383178478    0.0545299469600886    
  0.04220947702634137    0.0352900073480679    0.031909816721425704    0.030583178678809147    0.030262764151739226    
  0.030290550367178034    0.030323702940746464    0.03029651951022477    0.030275656467945757    0.03029649285435079    
  0.03032362362389293    0.0302905113881834    0.030262633162501305    0.030583101969999728    0.0319095950177727    
  0.03528981241268543    0.042209025202114954    0.054529405780724405    0.05663643262019012    0.07493098220252153    
  0.10089376395061576    0.13224660413992523    0.1636384539426887    0.1888326081837939    0.20396945302964375    
  0.20971909524708923    0.2100946996527892    0.2095599416264886    0.21009564228365804    0.20972074541426236    
  0.20397175302551637    0.1888348830747543    0.16364083785391598    0.13224829413347702    0.1008951822090322    
  0.07493173797503186    0.05663708233564622    0.04541359052809719    0.03949305558732922    0.037088079880933586    
  0.036663566707132084    0.03704177020589818    0.037478069968280396    0.03765275454419737    0.03762177008390931    
  0.03758343830294213    0.03762171361022115    0.03765272409697822    0.03747796704918084    0.03704171745808618    
  0.0366633773751802    0.037087973785452845    0.03949271412146881    0.04541333696478555    0.05663643262019012    
  0.057223598610053855    0.07161917495742481    0.09262505213515553    0.11831569079642655    0.1443214705230242    
  0.16531093400037786    0.17772853844634465    0.1822004635303757    0.18229793550161003    0.18177078766140503    
  0.18229850753230634    0.18220163976552556    0.1777299466691443    0.1653126580921976    0.14432285923751692    
  0.11831703025793253    0.09262585703850153    0.07161994546238551    0.05722397146624284    0.049067337268308815    
  0.045759050108477174    0.04568880974867191    0.04727965641810745    0.04918278416864341    0.05049095672756171    
  0.05093404204115928    0.05085409614603956    0.05075365083442373    0.05085404565381573    0.05093392616566953    
  0.05049089832563426    0.04918257009154811    0.047279546902375624    0.0456885235767215    0.04575887084581547    
  0.04906692521121677    0.057223598610053855    0.05702588634996213    0.06577006156250487    0.07984829214813065    
  0.09768271269552277    0.11606434208607454    0.13103181199027905    0.13979125269167683    0.1427491326235778    
  0.14258235829074892    0.14210699150815573    0.1425826649184269    0.1427496693302712    0.13979212291367338    
  0.13103261348899636    0.11606526144945707    0.09768330917452292    0.07984894143483892    0.06577042003038784    
  0.05702635717519287    0.05362429682592732    0.0546695644463875    0.05870493247925692    0.06394248462474628    
  0.06863778848995875    0.07151883085791141    0.07243545416729102    0.072262308184768    0.07205086508745721    
  0.07226220732257074    0.07243535859373085    0.07151857452436979    0.06863759834991515    0.06394214421147291    
  0.05870473530049537    0.05466915358464424    0.05362406611786877    0.05702588634996213    0.05684036770634279    
  0.05932259328940367    0.06634592501357961    0.07648003183427635    0.0874198832113066    0.09653896473251633    
  0.10191837199341944    0.1036382217750849    0.10339317197100942    0.10303390263765332    0.10339327037508227    
  0.10363849568832278    0.10191860361607931    0.09653943049984434    0.08742017232674736    0.07648048691164538    
  0.06634614570563972    0.05932300414654346    0.05684057902638111    0.05932293848684673    0.06634608582166925    
  0.07648036280827869    0.08742007363338045    0.09653938964498807    0.10191873917299746    0.1036386654530531    
  0.1033935828675773    0.1030341508157013    0.10339344954841735    0.10363838854007627    0.10191843419870365    
  0.09653890064053015    0.08741975554290447    0.07647983800379811    0.0663457827011457    0.059322522454008056    
  0.05684036770634279    0.057025761596425514    0.05362411449526583    0.05466921224768856    0.058704864194461984    
  0.06394222193651443    0.06863767595222216    0.07151852979323571    0.07243524426574448    0.07226201857498171    
  0.07205065468104341    0.07226207644276353    0.0724352814525587    0.0715186594175226    0.06863770588906114    
  0.06394242699942962    0.05870492766910367    0.054669459923091406    0.05362425890417028    0.0570261720101513    
  0.06577023545820397    0.07984859890745352    0.09768302419791748    0.11606479954514475    0.13103243684755497    
  0.13979191127783475    0.14274982305388376    0.14258283656460363    0.1421074467709063    0.14258262555569834    
  0.14274951172142536    0.13979129895906178    0.1310318552386941    0.11606405490160189    0.09768252439821111    
  0.07984799815529722    0.06576995299617976    0.057025761596425514    0.05722354234151301    0.049066802412833545    
  0.04575894777321592    0.0456885224154333    0.04727966106115314    0.049182557641142675    0.050490927805226724    
  0.05093379966128038    0.0508540089069662    0.050753458439492936    0.050853968988527364    0.05093383524251842    
  0.05049087099242745    0.04918260863965479    0.04727961043230442    0.045688653551001844    0.0457589627632351    
  0.0490670960388572    0.05722377936967405    0.07161941768625572    0.0926254018052711    0.11831615753259846    
  0.14432217351354154    0.16531176541585862    0.17772962203860374    0.18220124656363346    0.1822988107359549    
  0.181770924573513    0.18229857529270785    0.18220070468910132    0.17772894795794214    0.16531080030758902    
  0.14432140335000634    0.1183152868401116    0.09262488377678463    0.07161889394414044    0.05722354234151301    
  0.05663615634511243    0.04541334611868467    0.039492618480967974    0.03708806266605349    0.03666330288142811    
  0.03704180653543821    0.03747788323234589    0.03765277153036512    0.037621583264803596    0.03758342307987168    
  0.037621580296229855    0.03765271500720294    0.03747788512186702    0.03704173860911562    0.03666337535234485    
  0.03708803930887436    0.03949278411559643    0.04541344810254597    0.05663657301950581    0.07493126156094301    
  0.10089415043471303    0.13224732904199685    0.16363924677796057    0.18883389597537525    0.2039704948408741    
  0.2097203865407969    0.2100951951129105    0.20956040697227388    0.2100948542556017    0.20971985578539298    
  0.20396950112995774    0.18883295394885294    0.16363811326972913    0.13224655355187195    0.10089327937616337    
  0.07493088011611357    0.05663615634511243    0.054529391728640096    0.04220878445797576    0.035289885748695    
  0.03190946722633492    0.030583190718937926    0.030262521160379422    0.03029059501079003    0.030323492487125573    
  0.030296531266153923    0.030275484451524837    0.03029650299502839    0.030323506955504582    0.03029052193735042    
  0.030262551433630616    0.030583151629618655    0.0319095657674389    0.035289903644677684    0.04220906570655625    
  0.054529638219855674    0.0740928961150585    0.10147525378110939    0.13431447662305435    0.1670166265256784    
  0.19302477830605339    0.208588746280425    0.2145133161497447    0.2148914630591042    0.21434142416046909    
  0.21489109235294881    0.21451261206546163    0.2085879007932838    0.1930236145183865    0.1670156629992608    
  0.13431341770511532    0.10147460210335085    0.0740922838568369    0.054529391728640096    0.05078386236209457    
  0.03926866194942747    0.03268440802235222    0.02932602104203203    0.027857064338401433    0.02737272298307834    