#     DFTpy    
  CRYSTAL 
    
  PRIMVEC    
  12.01001049472937    2.234237194482759e-09    -7.254486786206896e-10    
  2.234237194482759e-09    12.010010497433989    -2.0928672027586204e-09    
  -7.254486786206896e-10    -2.0928672027586204e-09    12.010010498186958    
  PRIMCOORD    
  63    1    
  Si    3.0025026802491306    2.6308545970481883e-08    3.002502562871166    
  Si    9.007507927613817    2.7425664567723256e-08    3.002502562508441    
  Si    3.0025026813662494    6.005005275025539    3.0025025618247323    
  Si    9.007507928730933    6.005005276142656    3.0025025614620073    
  Si    3.0025026798864074    2.5262112369102568e-08    9.007507811964643    
  Si    9.00750792725109    2.6379230966343945e-08    9.007507811601918    
  Si    3.0025026810035254    6.005005273979106    9.007507810918213    
  Si    9.00750792836821    6.005005275096224    9.007507810555488    
  Si    1.5012513110995322    1.5012512343587952    1.5012512540845906    
  Si    7.506256558464217    1.5012512354759135    1.5012512537218663    
  Si    1.5012513122166506    7.506256483075788    1.501251253038157    
  Si    7.506256559581336    7.506256484192907    1.5012512526754327    
  Si    1.5012513107368082    1.5012512333123613    7.50625650317807    
  Si    7.506256558101493    1.5012512344294797    7.506256502815345    
  Si    1.5012513118539264    7.506256482029354    7.506256502131636    
  Si    7.5062565592186115    7.506256483146472    7.506256501768912    
  Si    3.0025026966078396    3.0025026026069925    3.798161647053785e-08    
  Si    9.007507943972524    3.0025026037241114    3.7618892131227505e-08    
  Si    3.0025026977249585    9.007507851323986    3.693518286915854e-08    
  Si    9.00750794508964    9.007507852441107    3.657245852984819e-08    
  Si    3.0025026962451156    3.002502601560559    6.005005287075096    
  Si    9.007507943609797    3.0025026026776773    6.00500528671237    
  Si    3.002502697362234    9.007507850277552    6.005005286028662    
  Si    9.007507944726916    9.00750785139467    6.005005285665938    
  Si    1.5012513151229425    4.50375399166492    4.503753998496752    
  Si    7.506256562487627    4.5037539927820385    4.5037539981340275    
  Si    1.5012513162400614    10.508759240381911    4.5037539974503185    
  Si    7.506256563604746    10.508759241499034    4.503753997087594    
  Si    1.5012513147602187    4.5037539906184865    10.50875924759023    
  Si    7.5062565621249036    4.503753991735605    10.508759247227507    
  Si    1.501251315877337    10.508759239335477    10.508759246543798    
  Si    7.5062565632420215    10.508759240452598    10.508759246181073    
  Si    6.005005193932806    3.018483168804245e-08    5.7582988155341504e-08    
  Si    12.010010442414611    6.005005280018945    5.617383021465185e-08    
  Si    6.005005195049924    6.005005278901825    5.6536554553962197e-08    
  Si    12.010010440934765    3.025551668390452e-08    6.005005306313742    
  Si    6.005005193570082    2.913839808666314e-08    6.005005306676467    
  Si    12.010010442051886    6.005005278972511    6.005005305267309    
  Si    6.0050051946872    6.005005277855392    6.005005305630034    
  Si    4.503753939062842    1.5012512751010796    4.503753991581542    
  Si    10.508759186427527    1.501251276218198    4.50375399121882    
  Si    4.503753940179961    7.506256523818073    4.50375399053511    
  Si    10.508759187544642    7.506256524935192    4.5037539901723855    
  Si    4.503753938700118    1.5012512740546462    10.508759240675023    
  Si    10.508759186064802    1.5012512751717646    10.508759240312298    
  Si    4.503753939817237    7.506256522771639    10.508759239628588    
  Si    10.508759187181917    7.506256523888758    10.508759239265864    
  Si    12.010010420833765    3.0025025923934625    3.002502587582297    
  Si    6.005005173469081    3.0025025912763432    3.0025025879450205    
  Si    12.01001042195088    9.007507841110456    3.002502586535863    
  Si    6.0050051745861985    9.007507839993337    3.0025025868985873    
  Si    12.010010420471039    3.0025025913470285    9.007507836675776    
  Si    6.005005173106356    3.0025025902299096    9.0075078370385    
  Si    12.01001042158816    9.00750784006402    9.007507835629342    
  Si    6.0050051742234745    9.007507838946903    9.007507835992065    
  Si    4.503753929542429    4.503753997095766    1.5012512517838403    
  Si    10.508759176907112    4.503753998212884    1.501251251421116    
  Si    4.503753930659549    10.508759245812756    1.5012512507374067    
  Si    10.508759178024235    10.508759246929875    1.5012512503746822    
  Si    4.503753929179705    4.503753996049332    7.50625650087732    
  Si    10.50875917654439    4.5037539971664495    7.506256500514596    
  Si    4.503753930296824    10.508759244766324    7.506256499830885    
  Si    10.508759177661508    10.508759245883445    7.5062564994681615    
  BEGIN_BLOCK_DATAGRID_3D    
  3d_datagrid_density    
  BEGIN_DATAGRID_3D#0    
  53    53    53    
  0.0    0.0    0.0    
  12.01001049472937    2.234237194482759e-09    -7.254486786206896e-10    
  2.234237194482759e-09    12.010010497433989    -2.0928672027586204e-09    
  -7.254486786206896e-10    -2.0928672027586204e-09    12.010010498186958    
  0.020732479100866164    0.021178417293252115    0.02247841314062651    0.024445567680757316    0.026689967934869985    
  0.02875405384052086    0.030231426947833123    0.030815525988453576    0.030465153074572877    0.0294641342193542    
  0.028194911126028312    0.027064753498826474    0.026408949007299915    0.026391402702984335    0.0271554847724722    
  0.02896211663789    0.032399527592996344    0.038709013196400945    0.05058038159823322    0.07378537617128975    
  0.11916386172309676    0.2034465824619159    0.3294597863592399    0.4038989763429274    0.2827062307754086    
  0.11797215286848148    0.06804132549553553    0.11797222941731782    0.28270639584008905    0.40389891942048944    
  0.32945974259550675    0.2034465353663107    0.11916381867404344    0.07378535449860933    0.05058035099292909    
  0.03870901298822706    0.032399514506793    0.028962114646299116    0.027155476390287772    0.026391382136348177    
  0.026408951735865917    0.027064762072562493    0.02819494291459944    0.02946409893723812    0.03046515747141323    
  0.030815531547423197    0.030231435484817874    0.028754047978757448    0.026689984155909032    0.024445573287288105    
  0.0224784009737247    0.02117841301076569    0.020732479100866164    0.0211784064105993    0.021686386316853875    
  0.02314247162819616    0.025339285927750498    0.0278700703333912    0.03021888686250297    0.031855690651018176    
  0.032436893740782874    0.031926931874307216    0.030662401788723034    0.029111505712152548    0.027745106709632848    
  0.026926737388699145    0.02684826906809951    0.027654041321644732    0.029590724422400363    0.033199879649082234    
  0.0396741560284546    0.05155151290556263    0.07423814914494634    0.1177604023563087    0.19749825769421994    
  0.318329900158412    0.4074066960853779    0.32832153976691314    0.17481222542925412    0.11805031688187693    
  0.17481228123744053    0.3283216398624969    0.40740669050045614    0.3183298349254471    0.19749818326467664    
  0.11776036939041828    0.07423813303787169    0.051551503231825266    0.039674159126185105    0.033199892846851056    
  0.029590709589402863    0.027654033511926975    0.026848290754771468    0.02692673093472376    0.02774513348249111    
  0.029111495884784847    0.03066238870643965    0.031926942283602266    0.03243689809247786    0.03185569807261681    
  0.030218880794587212    0.027870073869766535    0.02533929428807524    0.023142463795675337    0.02168638504755917    
  0.0211784064105993    0.02247840182708746    0.02314246729427199    0.02506291800631161    0.027977109791878067    
  0.031396550737715766    0.0345875872834843    0.03673505692799753    0.03734914433991459    0.03640143437107667    
  0.0343572842452868    0.031969277858281596    0.029909036423752786    0.02863665675971979    0.028388218048416177    
  0.02931238590100237    0.03161071934072034    0.035724300261632    0.04268461796290904    0.05457228347107694    
  0.07572634968092613    0.11405061068145113    0.18126274504142892    0.2844201916008212    0.39005636253791554    
  0.40621480997151604    0.32871151059126985    0.28320388845547306    0.3287115167207648    0.4062148429679506    
  0.390056317460659    0.2844201096594657    0.18126271326812735    0.11405061361206865    0.0757263339984326    
  0.05457228537325989    0.042684639112570096    0.03572431177680669    0.03161072065485715    0.029312405507573008    
  0.028388215912341704    0.028636659028367577    0.029909036870608537    0.03196926708871195    0.03435729061721265    
  0.036401449733806754    0.03734913220876277    0.036735068998314656    0.034587553457870505    0.031396549900403796    
  0.027977147632665858    0.025062907701207195    0.023142459011322235    0.02247840182708746    0.02444556618832598    
  0.025339303040615643    0.02797713110890481    0.03208634078197558    0.03698296077945982    0.04159174555169008    
  0.04466080543365441    0.04542778045893856    0.04387127879650521    0.04069960876938758    0.03707834893378907    
  0.03399688082962489    0.03208494645769774    0.03161267191175266    0.032694678046935224    0.035495349705211475    
  0.04032704267333878    0.04791378248281736    0.05963128791782272    0.07831415585591134    0.10913830754037054    
  0.15909676555043548    0.23346605604945442    0.32293254200846855    0.3904943796594357    0.40831067817140243    
  0.4049866925659512    0.4083107223835941    0.3904943909996256    0.32293252272381207    0.23346606336108347    
  0.15909674617729772    0.10913833573850994    0.07831411843247241    0.059631251686383904    0.04791377749593265    
  0.040327073387622724    0.03549534274304374    0.03269470002073885    0.03161266110248493    0.03208492862511243    
  0.03399688565257674    0.037078344259896395    0.040699612062812425    0.04387127453417946    0.045427766051908    
  0.044660796293560776    0.04159173405837716    0.03698295147540459    0.032086363869555476    0.027977127612320296    
  0.025339285107764484    0.02444556618832598    0.026689968637116073    0.02787008290734244    0.031396552355728025    
  0.03698294721375155    0.04376898824237808    0.050277758932806865    0.05474825281726888    0.05601687152515621    
  0.05405961527268499    0.04989464324607989    0.045097845158920576    0.04100237950042985    0.038449497099739834    
  0.03776080628211246    0.0390031948509039    0.04228902218506329    0.04774836789691329    0.055669566683351476    
  0.06661636053813472    0.08187218774240101    0.1039994449167916    0.13608228205283732    0.1801569121886024    
  0.23362425653471403    0.28493439242871804    0.3192387120444014    0.3305425009353978    0.31923869778600933    
  0.2849344121164331    0.23362422827642954    0.1801568666923135    0.13608223373214398    0.10399942924318911    
  0.08187216276428891    0.06661632598157745    0.0556695683784336    0.04774839179652526    0.04228901492012243    
  0.03900319454509827    0.03776080479453419    0.03844951181419283    0.04100238222920216    0.04509785635946252    
  0.04989462055392277    0.054059625831676054    0.0560168592228293    0.05474824502166331    0.05027774207654418    
  0.04376898605177868    0.0369829583993441    0.0313965570354547    0.02787005881126762    0.026689968637116073    
  0.028754045353925072    0.030218875326393998    0.03458756426048618    0.04159172165591363    0.050277749239759355    
  0.0588672851408985    0.06521741870017335    0.06780389681881907    0.06645548665973333    0.06235161816815442    
  0.05733898338683265    0.052980749355515416    0.05025225827449175    0.049522535867960654    0.050790754213070013    
  0.05410623939129843    0.05942081435278851    0.06658379357579981    0.07546916368464829    0.08610391644578659    
  0.0991529574084159    0.11566581816738708    0.1360570604396484    0.15917362361424722    0.18156134317735842    
  0.19803270364662348    0.20408434161110883    0.19803269825600642    0.18156137582237492    0.15917360090232405    
  0.13605702898999741    0.11566580227163828    0.09915297005471271    0.08610391092133653    0.07546913423617016    
  0.06658379676833193    0.05942081253272884    0.054106221759304685    0.050790746742281026    0.049522531463439115    
  0.05025224917211132    0.05298075340858697    0.057338988938004515    0.06235162205816263    0.06645548486479809    
  0.06780390662021543    0.06521742163189741    0.05886729645454398    0.05027773822436192    0.04159173899692758    
  0.03458757126444755    0.030218862947399717    0.028754045353925072    0.03023143607986116    0.03185568735087672    
  0.03673506928596183    0.04466079668765793    0.05474823308577869    0.06521743265643079    0.07388387774134282    
  0.07907890608918303    0.08045723592975688    0.07905526102487906    0.07653179848738358    0.07424272765450132    
  0.07290236449849742    0.07269836409452811    0.07350192872454836    0.07533099385903277    0.07821452948603562    
  0.08194814155088162    0.08619646454429314    0.09052492202437766    0.09469048669290686    0.09901450950714001    
  0.10382615110985557    0.10902508959296178    0.11406828131563786    0.11790917232409405    0.11936796239999509    
  0.11790918360832367    0.11406827253790199    0.10902509498421452    0.10382611537705491    0.0990144853131591    
  0.09469048720264442    0.09052489272546922    0.08619642294231598    0.08194813326207016    0.0782145453551011    
  0.07533097354298972    0.07350193524387226    0.07269839400017919    0.07290237609295487    0.07424274365555777    
  0.07653181353895616    0.0790552402741761    0.08045726179000147    0.07907887868055936    0.07388384730838606    
  0.06521742337645757    0.054748246387157445    0.04466079866820055    0.03673507542958744    0.03185566404888    
  0.03023143607986116    0.03081552843273978    0.032436901436485775    0.03734914707809021    0.04542777521315089    
  0.056016872645943516    0.06780390354278505    0.0790788921032859    0.08857313850164551    0.09610530554239329    
  0.1022725525113603    0.10773088413354394    0.11263151732124194    0.11641821022841854    0.11815045866177266    
  0.11718475188416876    0.11389269613039811    0.10930936466553377    0.10430141279936167    0.09942185008462055    
  0.09483125495401673    0.0903315072993462    0.08581282759071143    0.0815772952231128    0.07808766229386369    
  0.07560571093353498    0.0742087306111675    0.07379170874850673    0.07420875289722677    0.07560570239284016    
  0.07808761464928266    0.08157729572102884    0.085812820084155    0.09033152157450672    0.09483126311654844    
  0.0994218196920998    0.10430141162344408    0.10930937855771782    0.11389263711266963    0.11718475858382892    
  0.11815050244357361    0.11641824023652238    0.11263154009177578    0.10773088282173907    0.10227256905837383    
  0.09610534070836181    0.08857314011999987    0.07907887842614698    0.06780390279554625    0.05601687410714647    
  0.04542778608898973    0.03734915254900714    0.032436887130425716    0.03081552843273978    0.03046515698954792    
  0.03192693510967563    0.036401434972686574    0.0438712571763685    0.054059605861864576    0.06645547519742437    
  0.0804572186600388    0.09610531217710404    0.11408754075688791    0.1349073637363126    0.15782090249816383    
  0.17983059676317548    0.1962335786658887    0.2026698025504039    0.19727920490781617    0.1815521686661641    
  0.1596636407929869    0.13664779255039228    0.11608414611474738    0.0992324530150515    0.08587901326264623    
  0.07512315488473442    0.06631235464323208    0.059416904981504225    0.05445796448327428    0.05151318288914523    
  0.05056979079055058    0.05151319641409472    0.05445796251452126    0.05941688918289688    0.06631236352347908    
  0.07512313902655068    0.08587900978636498    0.09923241977016102    0.11608411585267751    0.13664779157047305    
  0.15966361049748898    0.1815520733604874    0.19727916113882885    0.2026697954022617    0.19623362277552722    
  0.1798306379134938    0.15782095451732173    0.13490736113605925    0.11408758496004127    0.09610530147431902    
  0.08045724457050601    0.06645546049644444    0.05405958056303757    0.04387126762930734    0.03640143877586967    
  0.031926924794044444    0.03046515698954792    0.029464102497926116    0.03066239443253619    0.03435727574138369    
  0.040699605792424404    0.0498946247923895    0.062351643451121604    0.07905523158537787    0.10227255402339591    
  0.13490735643743254    0.1789319707419165    0.23194134160353774    0.2828230615368048    0.3171488367879263    
  0.32895001693436793    0.31855660715717976    0.2852098782301177    0.23437035565030537    0.18087383494280956    
  0.13649796493817898    0.10402317234589657    0.08164071953730419    0.06632068264878346    0.05549337986632301    
  0.047844164826327376    0.04271318009136607    0.03976969334339916    0.03882823883236669    0.039769694380972914    
  0.042713197845935504    0.04784416762589222    0.055493387449471174    0.06632067633601949    0.08164067742009318    
  0.10402315108857897    0.13649790669940048    0.18087380426289054    0.23437033729916637    0.28520979508397704    
  0.31855649889293264    0.3289500162605603    0.3171488121050436    0.2828231272760493    0.23194136508613414    
  0.17893206873683273    0.1349073790175885    0.10227255583826689    0.07905524582186695    0.062351639708255635    
  0.04989461213981234    0.04069961596424018    0.034357297324819375    0.03066237381288402    0.029464102497926116    
  0.028194928876070096    0.029111496629508186    0.03196927669285435    0.03707833604395844    0.04509784172077852    
  0.057338990485397916    0.07653179700047431    0.10773087429638174    0.15782090471330334    0.23194128511326959    
  0.3209716953946343    0.3883201400132012    0.40632872353536126    0.4036256838300461    0.4079683166685825    
  0.3911198949718757    0.3239398508586568    0.234296221289081    0.1594900355013644    0.10912332814236494    
  0.07809476575226043    0.05939217608429557    0.04782304347533712    0.04050423084025817    0.03598708731790103    
  0.0335192356159745    0.032738716777254075    0.03351924627504607    0.035987097516464284    0.04050422578022854    
  0.04782303934299927    0.059392162578158894    0.07809474623375996    0.10912330072091303    0.15948996310754926    
  0.23429612116494594    0.32393984756364075    0.39111983300097897    0.40796829579317695    0.40362566477827055    
  0.4063287517598723    0.3883200801680084    0.3209717823859445    0.23194138400554953    0.15782096870573    
  0.10773087902449316    0.07653182733412274    0.05733897496948942    0.045097853878261825    0.03707834366661122    
  0.03196929320297036    0.029111480556180718    0.028194928876070096    0.027064737792065845    0.027745136325802663    
  0.02990903554113695    0.03399685864540888    0.04100239494492057    0.052980750626529995    0.07424271760722685    
  0.11263146463362804    0.179830591597491    0.28282298543218026    0.3883200581254664    0.4045934698851287    
  0.3275431404243083    0.28261062709439044    0.3287626823046852    0.4069937546040956    0.39119840021159574    
  0.2852778081623473    0.1816148098554688    0.11401491882492872    0.07552861605937673    0.054386800744883626    
  0.0426635744192104    0.03596368111075089    0.032159275373130236    0.030192837912213732    0.029583082320466456    
  0.030192846860414197    0.03215928324645577    0.03596365257968085    0.04266356940137182    0.05438679380023391    
  0.07552859185798784    0.11401491978086602    0.18161476541586125    0.28527775453423393    0.39119836583383644    
  0.4069937816508519    0.32876277008848853    0.2826106499612254    0.32754307418041145    0.40459343252116126    
  0.3883200947697775    0.28282308156088437    0.179830628167263    0.11263149148475463    0.07424273361476905    
  0.052980739952545784    0.04100238174788201    0.033996884333687964    0.0299090579083382    0.027745111132730167    
  0.027064737792065845    0.02640893984597748    0.026926735588252544    0.028636676374665656    0.03208491013576054    
  0.038449498378198894    0.05025224922316464    0.07290233417868751    0.11641820358796379    0.19623357036145814    
  0.3171488421169695    0.4063287148051242    0.3275431689886974    0.17445917667000496    0.11794648009114966    
  0.17494271895520516    0.328953066630916    0.408418949277719    0.3190819573660976    0.1977989653514237    
  0.11771471459861066    0.07406147259796012    0.051408923768754757    0.03970164935647753    0.033480697565463145    
  0.030176801442593718    0.02857398724699899    0.028095264310126076    0.02857398649565748    0.030176819540664954    
  0.03348068668019412    0.03970164307755166    0.0514089056962259    0.07406146494463606    0.11771469447395681    
  0.19779888575605212    0.31908191159582616    0.4084190661067511    0.32895313464704895    0.1749427966611489    
  0.11794647937663069    0.17445911946097734    0.3275430951652454    0.4063287467059731    0.31714889789158873    
  0.19623366925999433    0.11641822632113426    0.07290238644466612    0.05025224840055902    0.03844950651699345    
  0.03208495231205798    0.02863666549665708    0.026926710527516762    0.02640893984597748    0.02639137350061027    
  0.026848296450574093    0.028388215675284    0.0316126512127392    0.03776078908877644    0.049522515356045266    
  0.07269835660875991    0.11815045163225371    0.2026697594515259    0.3289499446521582    0.4036255218236038    
  0.2826106598927539    0.1179465174335238    0.06804026941742074    0.11805963189971028    0.2831102785081648    
  0.4045987938277688    0.33003013358002325    0.2036923117050068    0.11910798513797859    0.07362453057478811    
  0.05046406738330998    0.03876211737997438    0.03269863337492228    0.029560685724889946    0.02808555069805166    
  0.02765244584455052    0.028085556786948383    0.02956069022806191    0.03269860754940022    0.03876211410496058    
  0.05046406306715488    0.07362450276104938    0.1191079704029157    0.2036922036824618    0.3300300590343663    
  0.4045987385623876    0.28311030385597463    0.11805966981271272    0.06804029133973749    0.11794644482030982    
  0.2826106279718505    0.4036255590377175    0.3289499858893583    0.20266983313013928    0.11815049005513487    
  0.07269836688597671    0.049522526536249084    0.037760805455379035    0.031612686026844264    0.028388229010394707    
  0.026848288738753064    0.02639137350061027    0.027155478190884555    0.027654036390872192    0.029312399764661372    
  0.03269466863233534    0.03900318191818067    0.0507907487383327    0.07350190102364777    0.11718470351818631    
  0.19727909804671429    0.3185564464757302    0.4079681751657466    0.3287628375837436    0.17494279652852487    
  0.11805962414528358    0.17483184709523336    0.3284932767837973    0.40779005953504677    0.31872896535599693    
  0.19768249419727874    0.11769519351772473    0.07408526536758504    0.051443142810142485    0.039729090960216845    
  0.03349358392205644    0.03017475529079471    0.028560731167003674    0.028078142722470716    0.028560745610223606    
  0.030174776661031674    0.03349356785060319    0.03972911113733715    0.05144312270377932    0.07408523760895394    
  0.11769515827776136    0.19768240070102217    0.3187289669332624    0.407790155857517    0.3284933633536132    
  0.17483190349265373    0.11805965727011165    0.17494274266416368    0.32876268003088965    0.40796826398756475    
  0.318556538022363    0.19727916009580904    0.11718474443325196    0.07350190675406236    0.05079073572231146    
  0.03900317940776545    0.032694693483727    0.029312399359804252    0.02765401122279836    0.027155478190884555    
  0.02896211348146681    0.029590707063574657    0.03161070883322433    0.03549533213506534    0.042289002712149776    
  0.05410622984286992    0.07533098211374448    0.11389263171335774    0.18155208593155117    0.2852097650239619    
  0.39111979218534015    0.4069937873937219    0.3289531069340613    0.2831103143615779    0.32849332724178026    
  0.4061004422347355    0.3902173164754806    0.2846783699112639    0.18139309680989985    0.11398312221033174    
  0.0755748189084127    0.054454674098399186    0.04271830017623399    0.03599007507538229    0.03215531701567666    
  0.03016697890174915    0.029548962748242934    0.030166978005401607    0.03215530795476217    0.03599006980803869    
  0.04271831016822165    0.05445469109810019    0.0755748156723772    0.11398311356120455    0.1813930399639825    
  0.28467829305268594    0.39021733362692684    0.40610048788426306    0.3284934220211137    0.28311032851451245    
  0.32895310336690325    0.4069938053874533    0.3911198507791949    0.2852099346550501    0.18155218183676863    
  0.11389265816403935    0.07533099982038345    0.054106229901309776    0.04228900433419411    0.03549534862005942    
  0.0316107234667659    0.02959070206409199    0.02896211348146681    0.03239951438335729    0.033199888390551054    
  0.03572429340143996    0.04032707043370861    0.04774840441077085    0.05942082615734602    0.07821455410730478    
  0.10930935723313356    0.1596636244833996    0.2343703530675117    0.3239398491199651    0.39119837855545714    
  0.4084190134573052    0.40459877031462715    0.4077901462809072    0.39021742769250484    0.322972070137564    
  0.2336295285656144    0.15919971358472507    0.10908171399720193    0.07816200136678204    0.059491366936747704    
  0.04790568132766133    0.040544561842048805    0.035981785578424394    0.03348017184023787    0.03268754999007712    
  0.033480179914710424    0.035981791140479724    0.04054456765225008    0.04790569753490095    0.05949135259916055    
  0.07816200823268168    0.10908168634065235    0.15919966699302052    0.233629451475058    0.32297204766887844    
  0.3902173633883274    0.4077901525863971    0.40459874325351236    0.40841902635094635    0.3911984617940796    
  0.32393994061084935    0.23437042746689024    0.15966366166179688    0.10930937700446154    0.07821455269772408    
  0.05942081375796116    0.04774839018292622    0.04032708644332177    0.0357243038717707    0.03319987898681943    
  0.03239951438335729    0.03870901202930395    0.03967416447126035    0.04268461585439172    0.04791376624917126    
  0.055669552976837657    0.06658379966220006    0.08194811586288844    0.10430137555105329    0.13664776681281215    
  0.18087377053147646    0.2342961258923011    0.28527775958749    0.3190818335150907    0.33003009927567534    
  0.31872900770978774    0.2846783816289472    0.23362944639698605    0.18028422044222464    0.13618703966953719    
  0.10396863939914411    0.08172358922282195    0.06644803092563466    0.0556033206950361    0.047899585394904236    
  0.04270585500122562    0.039715941519415855    0.03875728104761842    0.03971594173714676    0.042705865904927295    
  0.047899572735276764    0.05560330383464883    0.06644800924064112    0.08172355609808772    0.10396862180997823    
  0.13618698001043605    0.180284228707395    0.23362945331762516    0.2846782497813291    0.3187289505753038    
  0.330030026742732    0.31908186296518876    0.28527781707422295    0.23429611263197253    0.18087384346177418    
  0.1366477917211129    0.10430139713075225    0.08194812685247717    0.066583794263511    0.055669562477552996    
  0.04791376930725587    0.042684622473142496    0.0396741373200879    0.03870901202930395    0.05058034515032901    
  0.05155147315512954    0.05457225993616896    0.05963126080305088    0.06661634333666679    0.07546913474227343    
  0.08619645642546364    0.09942181208823271    0.11608412481790828    0.13649791243281845    0.1594899347746035    
  0.18161479137305525    0.1977988858015478    0.20369226754562533    0.19768247710636017    0.1813930743387511    
  0.159199665396576    0.13618699442909746    0.11579002450962239    0.09915952812216008    0.08596898747733309    
  0.07527338015239901    0.06644941074739319    0.05948836497133985    0.05444789041348521    0.051438576421536986    
  0.05047164814901862    0.05143857253024082    0.054447898214973145    0.059488353800756025    0.06644943624931805    
  0.07527337668774772    0.08596899588015156    0.0991595290120785    0.11579000506628642    0.13618700220208652    
  0.15919965065881536    0.18139300225544905    0.19768245160844528    0.20369226372903465    0.1977988921180656    
  0.1816148576800623    0.15948999589521817    0.13649792139899017    0.11608416372402679    0.09942182607527447    
  0.08619645872793742    0.07546914563187394    0.06661632988849833    0.05963126557635665    0.05457227439211708    
  0.05155147900242843    0.05058034515032901    0.07378536907732193    0.07423814204917814    0.07572634140856822    
  0.07831414942479639    0.0818721520196319    0.08610392068766654    0.09052492571224541    0.09483129043843544    
  0.09923242584595846    0.1040231547392751    0.10912329163276073    0.11401493985003765    0.11771469843311329    
  0.11910796408218977    0.11769519542669928    0.11398312124462366    0.10908168894524221    0.10396863741046862    
  0.09915956617458771    0.0947392440163877    0.09041519116323489    0.08598141976518864    0.08174095174355527    
  0.07817863698195102    0.07558944456840902    0.07410139391264976    0.07364841379961914    0.07410139734825835    
  0.07558944546229478    0.0781785937690851    0.08174094712023097    0.08598140578480803    0.09041517015334713    
  0.09473926708040369    0.0991595410050348    0.10396863506759021    0.1090817012664139    0.11398310062644107    