#     DFTpy    
  CRYSTAL 
    
  PRIMVEC    
  4.555655172413793    0.0    0.0    
  0.0    4.555655172413793    0.0    
  0.0    0.0    4.555655172413793    
  PRIMCOORD    
  4    1    
  Si    0.0    0.0    0.0    
  Si    0.0    2.2778275862068966    2.2778275862068966    
  Si    2.2778275862068966    0.0    2.2778275862068966    
  Si    2.2778275862068966    2.2778275862068966    0.0    
  BEGIN_BLOCK_DATAGRID_3D    
  3d_datagrid_density    
  BEGIN_DATAGRID_3D#0    
  21    21    21    
  0.0    0.0    0.0    
  4.555655172413793    0.0    0.0    
  0.0    4.555655172413793    0.0    
  0.0    0.0    4.555655172413793    
  0.06932821811173773    0.11811797124680179    0.27896318835316924    0.40253987917882506    0.33420060305954746    
  0.21025614220905978    0.12726657042963796    0.08393265923681807    0.0633890251357321    0.05465236475740065    
  0.052261384728318226    0.054652308831272256    0.06338903560794051    0.08393265702757458    0.1272665632882578    
  0.21025610782287    0.3342005442624018    0.40253999831203513    0.2789632062590661    0.11811797967731176    
  0.06932821811173773    0.11811801238609435    0.17302625607995276    0.3221585873623687    0.4032486095788071    
  0.31939773975791874    0.20138071040616837    0.12429568559739265    0.0839919775526117    0.06489070081457679    
  0.056838337220552176    0.0546523383630387    0.05683831903018454    0.06489071110975574    0.08399194502985391    
  0.12429576297977626    0.20138071508656796    0.3193977608492197    0.4032486149909241    0.3221586522165283    
  0.1730261850787969    0.11811801238609435    0.2789631110700586    0.3221585592762687    0.39557214108245886    
  0.37951694669040564    0.27708231575006653    0.1785636438764286    0.11735640896852673    0.08549819873621599    
  0.07074520436905728    0.06489073582284845    0.0633890392190558    0.0648907254152296    0.07074518180424971    
  0.08549817070114842    0.11735641964335826    0.17856379264104869    0.2770822081355015    0.37951702255172415    
  0.3955721679981737    0.3221586950698864    0.2789631110700586    0.40254003051934284    0.40324868379070095    
  0.37951694191450297    0.3078246392403836    0.21955393127774153    0.15182596233365436    0.11203497221787052    
  0.09268595943535261    0.08549817873984575    0.08399196108814924    0.08393269095038854    0.08399192106982138    
  0.08549818849201467    0.09268589584767965    0.11203501826795487    0.15182596105344653    0.21955389436717918    
  0.3078245991774537    0.37951698631532627    0.40324864525723586    0.40254003051934284    0.33420054614824873    
  0.31939783858423887    0.27708227466038415    0.21955388362413672    0.1669677712264879    0.1318411968953045    
  0.11498217668893251    0.11203501643693883    0.11735636119099198    0.12429574701068576    0.12726651866320954    
  0.12429570459879392    0.11735634531860684    0.11203497441661764    0.11498216745891779    0.13184127511690508    
  0.16696768996127773    0.21955386274490785    0.2770823020943724    0.31939777562164956    0.33420054614824873    
  0.21025620669868478    0.20138067995376158    0.17856374206390144    0.1518259798123306    0.13184120454215892    
  0.12465762386963251    0.13184126793731235    0.15182597272425702    0.1785637534190413    0.2013806599211112    
  0.2102562372562583    0.20138057239640914    0.17856375707950284    0.1518259278911124    0.13184127647139135    
  0.12465762928039312    0.1318412383364546    0.15182592504166478    0.1785637828589878    0.20138065324848614    
  0.21025620669868478    0.12726644930319242    0.12429574444921726    0.11735638460841584    0.11203496597076103    
  0.11498218879793067    0.13184120840745478    0.16696777730186305    0.21955390000123529    0.27708229495247155    
  0.31939784327121495    0.3342005543060651    0.31939783361365937    0.27708217140855135    0.21955388998050243    
  0.16696772592358844    0.13184123741865555    0.11498213830657344    0.11203497608184051    0.11735634298946981    
  0.1242957519587041    0.12726644930319242    0.08393269122017043    0.08399192588031973    0.0854981971268986    
  0.09268595444842916    0.11203502417747298    0.1518259414439831    0.21955392335375032    0.30782455353101973    
  0.37951703652571106    0.40324858336518504    0.40254007531291985    0.4032485568669353    0.3795171013080003    
  0.30782457599255614    0.21955397373118146    0.15182594619832032    0.11203500022932764    0.09268591677476477    
  0.08549820198195723    0.08399195850057554    0.08393269122017043    0.06338902181586424    0.06489074564022976    
  0.0707451880989476    0.08549819355202339    0.11735642915722137    0.1785637628348031    0.277082305203508    
  0.3795169916803954    0.39557212490988364    0.3221586756968206    0.2789631560781616    0.3221586083108039    
  0.3955720529931087    0.37951696438249977    0.2770822679162538    0.17856379088550503    0.11735635592648619    
  0.08549815250278812    0.07074518366921101    0.06489076004586578    0.06338902181586424    0.05465234807099249    
  0.05683831172552471    0.06489073458977736    0.0839919131042864    0.12429573067322898    0.20138066537320956    
  0.31939775731502246    0.40324868208339343    0.3221586179557893    0.17302619104534323    0.11811808278701327    
  0.17302615628100845    0.32215860312097216    0.40324861583379706    0.31939783973367303    0.20138066262589863    
  0.12429574105810669    0.0839919412219767    0.06489074168904908    0.05683831045413021    0.05465234807099249    
  0.052261356522755674    0.05465234632469854    0.0633890273753908    0.08393265125781879    0.12726655326240724    
  0.21025612951418848    0.3342005403540477    0.40253994664969533    0.27896315669467897    0.11811804660933099    
  0.0693281642411351    0.11811796995518377    0.2789630904442951    0.40253995707472284    0.3342004457619994    
  0.21025616920463347    0.12726649015109698    0.08393271212555152    0.06338898431345631    0.054652379466954115    
  0.052261356522755674    0.05465235750138601    0.056838300865946885    0.06489073350861627    0.08399194534603456    
  0.1242957177327691    0.20138073307364204    0.31939775813108895    0.40324863186271037    0.3221585821528691    
  0.17302624349660786    0.1181180398562479    0.17302618147714108    0.32215867810254056    0.40324864577966496    
  0.3193978099078913    0.20138067387257813    0.12429574890955766    0.08399193859000895    0.06489075889151392    
  0.05683831964538174    0.05465235750138601    0.0633890068264001    0.06489068232876975    0.07074523973448615    
  0.08549813188918061    0.11735646068921826    0.17856368338632997    0.2770823294198204    0.3795169271740158    
  0.39557215893881487    0.322158614333286    0.27896327064173676    0.3221585320507877    0.39557210263292436    
  0.37951693668779235    0.2770823459153681    0.1785637306569576    0.11735638857901312    0.0854981866306607    
  0.07074521439607404    0.06489073988998967    0.0633890068264001    0.08393267773272156    0.08399195935047997    
  0.08549814473988196    0.09268598781637748    0.11203496604782516    0.15182600800203475    0.2195538387482423    
  0.30782472100887953    0.37951686037654153    0.40324870824826053    0.40253992485592605    0.4032486169774963    
  0.3795168996173503    0.30782457807950225    0.21955388983430743    0.15182600534888543    0.11203498224747455    
  0.092685941737434    0.08549816954976437    0.08399195139911618    0.08393267773272156    0.12726657699235822    
  0.12429564941099457    0.11735645122655294    0.11203489506783622    0.11498224710905545    0.13184115736788865    
  0.1669678515840606    0.21955377657440026    0.2770823649451756    0.3193977164309034    0.33420058005848846    
  0.3193976764475559    0.2770823251334375    0.21955384833197353    0.16696779955932103    0.13184117915821333    
  0.11498218751102898    0.1120349240338108    0.11735642641140356    0.12429566778240154    0.12726657699235822    
  0.21025613412283953    0.2013807643098887    0.17856369910455033    0.15182601085575154    0.13184115699284102    
  0.1246576942881448    0.13184116456914446    0.15182602710499854    0.1785636702377832    0.20138077788954636    
  0.21025610554142332    0.20138065356703944    0.17856368616044752    0.15182601187258926    0.1318412167075533    
  0.12465765763038439    0.13184114488978735    0.15182602996960973    0.1785636755956484    0.20138071349325457    
  0.21025613412283953    0.33420067179121304    0.3193976139236413    0.27708239568810156    0.21955373395548525    
  0.16696785385592014    0.13184110016892187    0.11498226060257621    0.11203497640513807    0.11735643450646531    
  0.1242956744200649    0.1272666008045828    0.12429569187009147    0.11735639873222137    0.11203495181612141    
  0.11498223602994691    0.1318412134911835    0.16696774957618873    0.2195537711775512    0.27708237443894945    
  0.3193976754002714    0.33420067179121304    0.4025398752402325    0.40324873437863523    0.37951689900972174    
  0.30782475672572235    0.21955380318387488    0.15182604164087232    0.11203493358332363    0.09268600132578324    
  0.08549812238477165    0.08399202606618883    0.0839326605447675    0.08399199600208458    0.08549817981148702    
  0.09268598460257872    0.11203496186400475    0.151826013105143    0.21955388820409827    0.3078246572757004    
  0.3795169485399268    0.4032488620757328    0.4025398752402325    0.278963331483607    0.3221585209957835    
  0.39557220753717476    0.37951697760768793    0.27708241560271685    0.17856368458915664    0.11735645987129796    
  0.08549812964457733    0.07074522632032472    0.06489071355647251    0.06338906979023583    0.06489069305048943    
  0.07074522429680388    0.08549813838173245    0.11735640757075119    0.17856373629444716    0.27708230150331997    
  0.3795168717929604    0.39557217425152197    0.3221586040010073    0.278963331483607    0.11811797684649362    
  0.17302628086506192    0.32215862081175206    0.4032486975354016    0.31939768069291613    0.2013807800734099    
  0.12429565496985548    0.08399198572408721    0.06489069148157463    0.05683834043456022    0.05465234742080979    
  0.05683831743751871    0.06489069014556088    0.08399194297976488    0.12429573473374818    0.2013807422796532    
  0.3193976947663044    0.40324865822531947    0.32215855625370304    0.17302623391124988    0.11811797684649362    
  0.06932821811173773    0.11811797124680179    0.27896318835316924    0.40253987917882506    0.33420060305954746    
  0.21025614220905978    0.12726657042963796    0.08393265923681807    0.0633890251357321    0.05465236475740065    
  0.052261384728318226    0.054652308831272256    0.06338903560794051    0.08393265702757458    0.1272665632882578    
  0.21025610782287    0.3342005442624018    0.40253999831203513    0.2789632062590661    0.11811797967731176    
  0.06932821811173773    0.11811800977445867    0.17302624251087945    0.3221585647218805    0.40324872200740186    
  0.31939769284887526    0.20138074974158313    0.12429569908337672    0.08399201145666449    0.06489069893886763    
  0.05683836388556002    0.05465236596992526    0.056838293546302376    0.06489071056623957    0.0839919724844152    
  0.12429574111759376    0.2013807030381335    0.31939769837421883    0.4032487361855911    0.32215861346452906    
  0.17302625771637048    0.11811800977445867    0.17302625558166224    0.22833858296328585    0.35610564527531746    
  0.39864690350638304    0.3044419630231526    0.19273302277521462    0.12124735491775485    0.08387626005206478    
  0.06620219741441259    0.05882536167564455    0.056838342942547464    0.05882531776695194    0.06620221797696677    
  0.08387628488977046    0.1212473239671154    0.19273306019389552    0.3044420046705395    0.39864708851716163    
  0.3561056458949234    0.2283386376717237    0.17302625558166224    0.3221586084052327    0.3561056594989831    
  0.40273289235570164    0.3656926461233976    0.26293195947670994    0.17079146473837342    0.11420993887983984    
  0.08487704677915599    0.07143076656129833    0.06620222966895056    0.06489077061568432    0.06620222566650427    
  0.07143077915275736    0.08487704754335038    0.11420999507822024    0.17079150343858382    0.2629320135452042    
  0.36569261226610744    0.4027329206947595    0.35610570602553043    0.3221586084052327    0.40324871526704337    
  0.39864707477316813    0.36569261575296363    0.2919386370080917    0.20821721009129096    0.14537054339792635    
  0.10869265018728952    0.09110663930959437    0.08487705146647849    0.08387629326965705    0.08399197505821684    
  0.08387625612161645    0.08487704788645724    0.09110665448163632    0.10869261623786654    0.14537058638735345    
  0.20821713278800844    0.29193868183810706    0.3656926499821055    0.39864714999915596    0.40324871526704337    
  0.3193977700654021    0.3044419867624994    0.26293201610804195    0.20821712086007266    0.15902196588244538    
  0.12639516575460819    0.11097712580009131    0.10869264427502405    0.1142099666329862    0.12124731724875447    
  0.12429576235269317    0.1212472262187295    0.11420998246230916    0.10869260670161501    0.11097713814895827    
  0.12639511744100612    0.1590219625830287    0.2082171095381817    0.2629320817625056    0.3044419700182469    
  0.3193977700654021    0.20138067901925125    0.1927330276686399    0.17079147082860532    0.14537055696167378    
  0.126395159109186    0.11955270360611993    0.12639517053575633    0.14537056806094445    0.17079146239436613    
  0.1927331247073433    0.20138070639153757    0.19273299712396472    0.17079143459557883    0.1453705980417872    
  0.12639514779819247    0.11955271972893089    0.12639513294864738    0.14537056905071793    0.1707914659954315    
  0.19273307941938342    0.20138067901925125    0.12429575674472822    0.12124729966730874    0.11421000720169823    
  0.10869261045295435    0.11097714260405239    0.12639511849692295    0.15902194823476412    0.20821708938859718    
  0.2629320077135642    0.30444193680171105    0.31939785459812    0.30444190793741455    0.26293205567869077    
  0.20821705269254578    0.1590220067019419    0.12639511659730346    0.11097718205953523    0.10869260509833603    
  0.11421000429654377    0.12124732549705611    0.12429575674472822    0.08399192351182293    0.08387629092365179    
  0.08487704628987579    0.09110665793328113    0.10869263172282317    0.14537054364141266    0.2082171251747235    
  0.2919385852478642    0.3656925652424997    0.39864720851197005    0.4032486881631372    0.39864705701662007    
  0.36569253747557745    0.29193871241846164    0.20821710420561884    0.14537062555467928    0.10869258784706805    
  0.09110668523919828    0.08487696725290442    0.08387636063795856    0.08399192351182293    0.06489075417040777    
  0.06620218472761849    0.07143076548473652    0.08487703519288449    0.11421002337310922    0.1707914352880965    
  0.26293204818886345    0.36569258685669115    0.4027328812223871    0.35610567394006326    0.3221586902298475    
  0.35610555845355096    0.4027329053825822    0.36569249886158894    0.26293207511995365    0.17079146775240242    
  0.11421001710148004    0.08487701315450571    0.07143077870745604    0.0662022048072503    0.06489075417040777    
  0.05683833461840468    0.05882535431329553    0.06620219755108517    0.0838762624680782    0.1212473487368336    
  0.19273301662807346    0.30444190813112015    0.3986470803859151    0.35610568604277004    0.22833865877286555    
  0.17302622355303435    0.22833865190934374    0.35610562144552416    0.3986470957902788    0.30444197512370397    
  0.1927330578369655    0.12124729166813426    0.08387629892165338    0.06620218604088964    0.058825382619475154    
  0.05683833461840468    0.05465236259351864    0.05683831583025556    0.06489072640750784    0.08399194878212649    
  0.1242957371885598    0.20138070268207375    0.31939773843005625    0.4032486934465662    0.32215865679064193    
  0.17302623157556823    0.11811803400812855    0.1730261543780045    0.3221585916006127    0.4032486760963521    
  0.3193977673994254    0.2013806700112977    0.12429571940400667    0.0839919513855927    0.06489071406039855    
  0.05683834235844176    0.05465236259351864    0.0568383177946853    0.058825356730607105    0.06620226753736264    
  0.08387621876011195    0.1212473863142582    0.19273296889391536    0.30444193192944824    0.39864699482250543    
  0.3561056762912991    0.22833862395545265    0.17302622872008847    0.22833859174577237    0.356105666788731    
  0.3986470991634059    0.30444192590251345    0.19273306705469403    0.12124730989064429    0.0838762980000792    
  0.06620219322579246    0.05882535799387538    0.0568383177946853    0.06489072342693476    0.06620221802315632    
  0.07143074787355326    0.08487704309154846    0.11420998896331647    0.17079152489472776    0.26293195622086174    
  0.3656926159407145    0.4027328038095084    0.3561056719560168    0.3221586871241013    0.3561056262609753    
  0.4027329049052378    0.3656926381219989    0.2629319990934984    0.17079149008439382    0.11420995565215682    
  0.08487705839770664    0.07143073597062084    0.06620226540587865    0.06489072342693476    0.0839919779354291    
  0.08387626711870524    0.08487707409827974    0.091106638599551    0.10869271645393054    0.14537048237468814    
  0.2082172023507548    0.29193861046031727    0.36569273812186914    0.39864702495381005    0.40324873803936023    
  0.3986470065198847    0.36569269303579216    0.2919385430882822    0.20821717023059375    0.14537057692125208    
  0.10869268613795398    0.09110661501331167    0.0848770773465608    0.08387625801037095    0.0839919779354291    
  0.12429573531107126    0.12124735629164934    0.11420993716899662    0.10869266787339706    0.11097704810937506    
  0.1263951950953005    0.15902197535630272    0.20821714973052144    0.2629319435206908    0.3044420462367667    
  0.319397693854819    0.3044419447046884    0.2629319766557277    0.2082171889971209    0.15902197922899217    
  0.126395142610165    0.11097709309633243    0.10869262961950686    0.11420994655670952    0.12124731623175036    
  0.12429573531107126    0.20138073932502956    0.19273294967792579    0.17079156480551264    0.14537048849780254    
  0.1263951779381151    0.1195526311010347    0.12639521931112993    0.14537054912987243    0.17079156589520672    
  0.19273298750099305    0.20138078683604213    0.19273291305330348    0.17079146288792862    0.1453704956020116    
  0.12639518384039253    0.11955267877407423    0.12639519950025463    0.14537050262536486    0.1707915031960111    
  0.19273301813387253    0.20138073932502956    0.31939767998200946    0.30444196842179255    0.26293190037902514    
  0.20821716615829902    0.15902189191522353    0.1263952230527573    0.11097703755968193    0.10869271947696504    
  0.11420993257189868    0.12124735249673849    0.12429570910927028    0.12124733998259919    0.1142098967069453    
  0.10869267928387813    0.11097708534227986    0.12639516549510024    0.15902194400753392    0.20821713301852804    
  0.26293200960846086    0.3044420193230156    0.31939767998200946    0.4032487273606165    0.39864695564220143    
  0.3656927298265268    0.29193857015334973    0.20821719405144026    0.14537047327399347    0.10869268876298398    
  0.09110655993079629    0.08487707949297299    0.08387626919836322    0.08399204935002903    0.08387624069465971    
  0.08487708511281528    0.09110663942016566    0.10869268370339376    0.14537050706994914    0.20821724770296368    
  0.2919386097830166    0.3656926996084378    0.3986470749193405    0.4032487273606165    0.3221585885940254    
  0.35610576903370905    0.40273281307255043    0.3656927161649777    0.262931965676367    0.17079153177906906    
  0.11420993082492627    0.08487708735232219    0.0714307150799255    0.06620226654545912    0.06489070485512002    
  0.06620219591163887    0.07143070400884124    0.0848770782050579    0.11420997153260017    0.1707915547521372    
  0.26293199145469165    0.3656926871598407    0.4027328450580608    0.3561057469115661    0.3221585885940254    
  0.17302624155490215    0.22833855321298552    0.35610573674044754    0.3986469828381702    0.3044420155371487    
  0.19273298078260998    0.12124736498486224    0.08387627018520864    0.06620223675030966    0.05882534883078508    
  0.056838352408523196    0.05882532217842429    0.06620222553565658    0.0838762722876468    0.12124737489156535    
  0.1927330064140186    0.30444194993384    0.3986469581300969    0.3561056625688035    0.22833851900798202    
  0.17302624155490215    0.11811800977445867    0.17302624251087945    0.3221585647218805    0.40324872200740186    
  0.31939769284887526    0.20138074974158313    0.12429569908337672    0.08399201145666449    0.06489069893886763    
  0.05683836388556002    0.05465236596992526    0.056838293546302376    0.06489071056623957    0.0839919724844152    
  0.12429574111759376    0.2013807030381335    0.31939769837421883    0.4032487361855911    0.32215861346452906    
  0.17302625771637048    0.11811800977445867    0.2789632340109965    0.322158539412391    0.39557219673787003    
  0.37951690663020987    0.2770823837803715    0.1785637033432933    0.1173564406607857    0.08549817997521351    
  0.07074521350557574    0.06489074883634977    0.06338904388997973    0.06489069619010554    0.07074524448373883    
  0.0854981490340833    0.11735643703121855    0.17856373069235185    0.27708231907351083    0.3795169131747053    
  0.39557215908984683    0.3221585698288331    0.2789632340109965    0.3221585944842835    0.3561056162629829    
  0.4027328445819474    0.3656925894849687    0.26293191596975113    0.17079153725413843    0.11420991788581647    
  0.08487708026124417    0.0714307141709221    0.06620224334889543    0.06489073151594504    0.06620218560612519    
  0.07143075371249187    0.08487702028692246    0.114209957561227    0.17079151427288516    0.26293199969035025    
  0.3656926556613238    0.4027328911446986    0.35610564199554956    0.3221585944842835    0.3955721670378995    
  0.402732878598363    0.38960953004111304    0.31963577146384675    0.2256383527802632    0.15144118444988028    
  0.106976149290043    0.08440973893562516    0.07470379971375397    0.07143076662584079    0.0707452638015727    
  0.07143077310868504    0.07470378006261892    0.08440973404761647    0.10697613022130176    0.1514412704872556    
  0.22563826165574305    0.319635771484657    0.3896096100323538    0.4027328925045609    0.3955721670378995    
  0.3795170499265005    0.36569255630401293    0.31963574602597444    0.24876782724693566    0.17929717148993723    
  0.12938789106190587    0.10082985553994105    0.087944571557337    0.08440971766128208    0.08487706610578316    
  0.08549821005981793    0.08487699012504887    0.08440974974522791    0.08794452335899461    0.10082989635382036    
  0.12938790896585645    0.1792971584567205    0.2487678370992498    0.3196358092062751    0.36569266225343366    
  0.3795170499265005    0.2770823050223746    0.26293206343915715    0.22563835675476998    0.17929714176289882    
  0.13910373063371234    0.11296974115057044    0.10129305498067677    0.10082986555267555    0.10697609279774861    
  0.11420996835560182    0.11735642562853492    0.11420995405618348    0.10697606682673551    0.10082987491090789    
  0.10129302447979566    0.11296979222187584    0.1391036795579571    0.17929715498291146    0.22563830771783086    
  0.262932087802062    0.2770823050223746    0.1785637493582202    0.17079146995004607    0.15144124041453666    
  0.12938787624423417    0.11296976746414573    0.10702983078436513    0.11296979316869314    0.12938791291254567    
  0.15144126139426742    0.17079148566790145    0.1785638485475106    0.17079140401327186    0.15144128240891797    
  0.12938785601093333    0.11296984408800553    0.10702978420959913    0.11296980587811883    0.129387892932283    
  0.15144131242109748    0.17079148072196496    0.1785637493582202    0.11735638599681036    0.11420995330689715    
  0.1069761023990197    0.10082983736631171    0.10129306233466605    0.11296975932331121    0.139103671326188    
  0.1792971529406209    0.2256382651656271    0.2629319934459469    0.2770822934186435    0.2629320518655531    
  0.22563816215594215    0.17929715459517043    0.13910367451376113    0.11296981410919439    0.10129302016363963    
  0.10082985500839567    0.10697607288382724    0.11421001089743692    0.11735638599681036    0.08549821025265945    
  0.0848770307203066    0.08440971437646919    0.0879445573546292    0.10082985693165981    0.12938788187176897    
  0.17929713547688492    0.24876781324526198    0.31963577255041065    0.36569260742510595    0.37951713558407385    
  0.36569248847698077    0.31963587981911296    0.2487678051861254    0.1792972048977613    0.12938787881832764    
  0.10082987507584781    0.08794454060147078    0.08440973008624363    0.08487705843124942    0.08549821025265945    
  0.07074522197312902    0.07143077378178742    0.07470373344491398    0.08440974504755173    0.10697614364595232    
  0.15144123528468628    0.2256382541803953    0.31963579773457323    0.3896094924693673    0.40273305412634747    
  0.3955721007682157    0.40273294664566806    0.3896094691871754    0.3196358261751473    0.22563828285431248    
  0.15144135551752919    0.10697608171183735    0.08440974851007223    0.07470373712220542    0.07143079732900641    
  0.07074522197312902    0.06489075186573955    0.06620223394578668    0.07143078549029026    0.08487702672032534    
  0.11420997573581894    0.1707914656210127    0.26293199071247003    0.3656925860521578    0.4027328954963589    
  0.3561057001004293    0.32215871666993795    0.35610563566368836    0.4027328997432985    0.36569255869347705    
  0.2629320627081282    0.17079152044742094    0.11420998681889474    0.0848770330829218    0.07143077229127197    
  0.06620220631581455    0.06489075186573955    0.06338902781330903    0.06489074184120139    0.07074522128883917    
  0.08549819041921865    0.11735644469098581    0.17856373040896018    0.277082347708965    0.3795169591096871    
  0.3955721589071253    0.3221586103619911    0.2789631180141648    0.32215858211211956    0.395572075279397    
  0.37951695887980563    0.27708229308217514    0.17856375530823917    0.11735636218036809    0.08549823486689628    
  0.07074521559146504    0.06489076593976356    0.06338902781330903    0.06489073526577455    0.06620219964572233    
  0.07143075582864843    0.0848770447052374    0.11420993937040404    0.1707915085464983    0.26293200589810123    
  0.3656925682800851    0.4027328141803693    0.3561056856174631    0.32215870953393155    0.3561056721605713    
  0.4027328810001658    0.36569257988763176    0.2629320026881394    0.17079152140143658    0.11420997756206026    
  0.08487703274981352    0.07143077310971725    0.06620220052108468    0.06489073526577455    0.07074522519575137    
  0.0714307142166332    0.07470377816539864    0.08440969554083777    0.10697614741218443    0.15144118969791096    
  0.22563837828170896    0.3196357359074867    0.3896096050619711    0.40273292122072396    0.3955722121891133    
  0.4027328063409686    0.38960962900158536    0.3196357667329926    0.22563833080779486    0.15144121821328152    
  0.10697606747530498    0.08440970613635405    0.07470375041858643    0.07143079268603582    0.07074522519575137    
  0.08549817680607782    0.08487709592785249    0.08440971461182067    0.08794463914514436    0.10082980405366179    
  0.12938795045379672    0.17929708860078958    0.2487679372531385    0.31963577714592617    0.365692712499319    
  0.3795169770246225    0.36569259814356525    0.31963569979290934    0.2487678100255219    0.1792971466008735    
  0.12938792821545933    0.1008298422660296    0.08794456063840922    0.0844097384916586    0.08487707269933155    
  0.08549817680607782    0.11735645682075489    0.11420992766866965    0.10697616556384897    0.1008297788594131    
  0.10129311498607206    0.11296971730134027    0.1391037921221065    0.17929710325450804    0.22563831937710388    
  0.2629319472849047    0.27708238318787193    0.2629319054148327    0.22563833488773077    0.17929708792935625    
  0.13910371904761457    0.11296972726544585    0.10129310424450957    0.10082977831878255    0.1069761229178811    
  0.11420991076766222    0.11735645682075489    0.1785637455711271    0.17079156983079888    0.15144115144777257    
  0.1293879422577639    0.11296969804019116    0.10702991404348923    0.1129697326149512    0.12938797382046482    
  0.15144121947868375    0.1707915631083504    0.17856378193908726    0.17079146958550143    0.15144118967796977    
  0.1293879687303273    0.11296972886024861    0.10702986018945876    0.11296973460205315    0.12938797181844008    
  0.1514411766192588    0.17079159316795767    0.1785637455711271    0.2770823826529255    0.2629319391889571    
  0.2256384021506821    0.17929700013334127    0.13910380492348404    0.11296967533676469    0.10129310051463676    
  0.10082980951603787    0.10697618549354611    0.11420990960329461    0.11735645623580578    0.11420993170462247    
  0.10697608826872443    0.1008298205649351    0.10129311781388607    0.11296972864718939    0.13910377310415156    
  0.1792970484413521    0.2256384177102852    0.262931894591349    0.2770823826529255    0.37951694661196134    
  0.3656927406034984    0.3196356689302121    0.24876794495049565    0.17929707445374576    0.1293879641976291    
  0.1008298025525691    0.08794461699186287    0.08440970138448406    0.08487711349064837    0.08549818310255736    
  0.08487706984950415    0.08440971323844902    0.08794461402410084    0.10082982476174236    0.12938798285503286    