#     DFTpy    
  CRYSTAL 
    
  PRIMVEC    
  1.0938059434966876    -1.8945274677570758    0.0    
  1.0938059434966876    1.8945274677570758    0.0    
  0.0    0.0    3.6982485733103454    
  PRIMCOORD    
  2    1    
  Si    1.0938059434966876    0.6315091559190251    0.9245621433275863    
  Si    1.0938059434966878    -0.6315091559190251    2.7736864299827584    
  BEGIN_BLOCK_DATAGRID_3D    
  3d_datagrid_density    
  BEGIN_DATAGRID_3D#0    
  11    11    17    
  0.0    0.0    0.0    
  1.0938059434966876    -1.8945274677570758    0.0    
  1.0938059434966876    1.8945274677570758    0.0    
  0.0    0.0    3.6982485733103454    
  0.372791914837257    0.39197857764109456    0.44474985967696606    0.5148849445684361    0.5736760564270594    
  0.5958223219311672    0.5736760695297898    0.5148849377805567    0.44474988857090875    0.3919785906150378    
  0.372791914837257    0.3919786123590087    0.39198211023854457    0.4278494231634703    0.48896170967796193    
  0.5525291996007595    0.5911750682018232    0.5911815520578216    0.5525358395054246    0.48896055183824166    
  0.42784688420085254    0.3919786123590087    0.44474989478922267    0.42784938839251396    0.44474716648303275    
  0.4889572412518021    0.5427627966751944    0.5831721845382898    0.5970303320839914    0.583166372596593    
  0.5427619754124229    0.4889605183687769    0.44474989478922267    0.5148849074335539    0.4889617019758482    
  0.48895723370813954    0.514885947747743    0.5525358347230503    0.5831681720609467    0.5967394309854148    
  0.5967330020885843    0.5831664118633779    0.5525358563291444    0.5148849074335539    0.5736760582674858    
  0.552529185866392    0.5427628044675842    0.5525358168023086    0.5736751753458862    0.5911822157647537    
  0.5970199382250596    0.5967394450891709    0.597030354960676    0.5911815665819906    0.5736760582674858    
  0.5958223578328562    0.5911750767857898    0.5831721555287156    0.5831681561427815    0.5911822319596998    
  0.5958140625402484    0.5911822369397003    0.5831682163589768    0.5831721669458325    0.5911751099281501    
  0.5958223578328562    0.5736760849801523    0.5911815377107175    0.5970303398263608    0.5967394198387652    
  0.5970199081488113    0.5911822400169979    0.5736751940564938    0.5525358006915221    0.5427628544477693    
  0.552529189376374    0.5736760849801523    0.5148849461576432    0.5525358857850642    0.5831664320192272    
  0.5967329891773109    0.596739424385851    0.5831681582364683    0.5525357797563544    0.514885964267437    
  0.4889572117782668    0.4889617401662504    0.5148849461576432    0.4447498686593666    0.48896052583779304    
  0.54276194427041    0.5831664094338741    0.5970303245868634    0.5831721280323742    0.5427628336980274    
  0.48895722163467437    0.4447471622832437    0.42784938797725236    0.4447498686593666    0.3919785795043866    
  0.42784690196025144    0.48896053788884214    0.5525358169160229    0.5911815590066449    0.5911751291483778    
  0.5525291782473345    0.48896173860089076    0.4278494126185669    0.391982141996977    0.3919785795043866    
  0.372791914837257    0.39197857764109456    0.44474985967696606    0.5148849445684361    0.5736760564270594    
  0.5958223219311672    0.5736760695297898    0.5148849377805567    0.44474988857090875    0.3919785906150378    
  0.372791914837257    0.39994163389621895    0.4191608806758807    0.4696422865072786    0.5317377822581294    
  0.5793790581281222    0.5961112285077541    0.579367755748487    0.5317351012425326    0.46964956151183046    
  0.4191585149409301    0.39994163389621895    0.4191585287190813    0.41916283184360675    0.4507991824951505    
  0.5027342843778814    0.5557381553530273    0.5880578931221776    0.5880701803556313    0.555749399375191    
  0.5027326289808197    0.45079130349755975    0.4191585287190813    0.46964952794361164    0.45658624391002905    
  0.469639202021257    0.5027268669413478    0.542610898797747    0.5736654990431833    0.5848114384647309    
  0.573661768370185    0.5426041707145414    0.5027326012343875    0.46964952794361164    0.531735056163714    
  0.5131723355516432    0.513179500006395    0.5317375812623482    0.5557459753306181    0.573668115291064    
  0.5812828510648663    0.5812752926491851    0.5736617903053154    0.5557493693428976    0.531735056163714    
  0.5793677543010991    0.5597661404672791    0.5486626365999756    0.5597724641952176    0.579371587032641    
  0.5880664826112283    0.5847953194761207    0.5812828352836173    0.5848114004469488    0.5880702319686436    
  0.5793677543010991    0.5961112605970187    0.5799735705650665    0.5552326819439982    0.5552286118740372    
  0.5799636658846145    0.5961172229268381    0.5880664657250592    0.5736681613289445    0.5736655444684632    
  0.5880579490789701    0.5961112605970187    0.5793790945830025    0.5799718366059786    0.5511652592744636    
  0.5325276658757301    0.5511724614867536    0.5799636258907598    0.5793715834777806    0.5557459462375304    
  0.5426108744368542    0.5557381530695681    0.5793790945830025    0.5317377759300641    0.5597657699736501    
  0.5552285217480072    0.5325306580535374    0.5325277094047091    0.5552286160380379    0.5597724723839524    
  0.5317375962903781    0.5027268515688618    0.5027342938917755    0.5317377759300641    0.4696423003648838    
  0.5131815179455    0.5486643725421818    0.5552285318820189    0.5511652268773588    0.5552326643520863    
  0.5486626366713667    0.5131794834541792    0.46963918421536466    0.45079916176833035    0.4696423003648838    
  0.419160890909783    0.4565790990213666    0.5131815274998968    0.5597657339271195    0.5799718215181037    
  0.5799735707315918    0.5597661499047012    0.513172314474219    0.45658623718367913    0.41916285811796056    
  0.419160890909783    0.39994163389621895    0.4191608806758807    0.4696422865072786    0.5317377822581294    
  0.5793790581281222    0.5961112285077541    0.579367755748487    0.5317351012425326    0.46964956151183046    
  0.4191585149409301    0.39994163389621895    0.4735132649210302    0.490991840110403    0.5306602322349225    
  0.5640687547155014    0.5739740451260144    0.5726841596639285    0.5739431718037761    0.5640639934629075    
  0.5306810532210339    0.49098535353428874    0.4735132649210302    0.49098535029237755    0.49099406367130666    
  0.5168013005963499    0.5531666319607799    0.5832038078974023    0.5977754775792116    0.5977897064500091    
  0.5832293131497082    0.553167280547597    0.516782817160152    0.49098535029237755    0.5306810825070036    
  0.5202796136325096    0.5306529020166508    0.5531592026029011    0.5740168398429704    0.5860971174209948    
  0.5894215603929189    0.5861004525088049    0.5739901259469568    0.5531672329765353    0.5306810825070036    
  0.564063973970587    0.5420952171994311    0.5421243184441485    0.5640703148277689    0.5832113792641381    
  0.586105609148246    0.581039098223863    0.5810222032182718    0.5861004463745644    0.583229320089094    
  0.564063973970587    0.5739431818652538    0.5220464944849136    0.4942879994604276    0.5220522425654909    
  0.573959780688562    0.5977895251785298    0.5893969362994146    0.5810391190584123    0.5894215741733535    
  0.5977897307936046    0.5739431818652538    0.5726841904547534    0.4859979265562123    0.4057169242179292    
  0.40570416873511755    0.4859690693529309    0.5726956228503779    0.5977895491639412    0.586105643338714    
  0.5860971163379043    0.5977755154855435    0.5726841904547534    0.5739740745533768    0.48598216471744815    
  0.36307009299071985    0.3098428286324326    0.3631009825568515    0.4859690819855136    0.5739597838671052    
  0.5832113607158822    0.5740168961518617    0.5832037962416656    0.5739740745533768    0.564068763543529    
  0.522041025857698    0.4057146544855596    0.3098553780098611    0.30984284075918866    0.40570418711757855    
  0.5220522107887958    0.564070343581123    0.5531592090998559    0.5531666657419674    0.564068763543529    
  0.5306602494704274    0.5421266093865221    0.4942821033898626    0.4057146564958483    0.3630700611186606    
  0.40571691495929474    0.4942880123231123    0.5421242891645693    0.5306528785905524    0.5168012473774299    
  0.5306602494704274    0.49099182943654107    0.5202629570242266    0.5421266087523104    0.5220409774903458    
  0.48598219896608585    0.4859979429967163    0.5220465116959744    0.5420952407640746    0.5202796154711267    
  0.49099408991768206    0.49099182943654107    0.4735132649210302    0.490991840110403    0.5306602322349225    
  0.5640687547155014    0.5739740451260144    0.5726841596639285    0.5739431718037761    0.5640639934629075    
  0.5306810532210339    0.49098535353428874    0.4735132649210302    0.5601669994604936    0.572775335664147    
  0.5925894492782097    0.5825269603729152    0.5404574373099081    0.5159982734114091    0.5404365814708775    
  0.5825137030927641    0.5926156240384255    0.5727675484888922    0.5601669994604936    0.572767555319855    
  0.5727804202253604    0.5904497878136279    0.6088075417993617    0.6123606902340537    0.6052564147545587    
  0.6052749531649436    0.6123763927640338    0.6088124154915286    0.5904328119795863    0.572767555319855    
  0.5926155964195984    0.5834379657094814    0.5925843628436862    0.6088034242350094    0.6156688400264267    
  0.6114422333443492    0.6073802811103018    0.6114460290881838    0.6156499000625016    0.6088124036302863    
  0.5926155964195984    0.5825136740248422    0.5465232757012927    0.5465542152906062    0.5825260425803283    
  0.6123680411939986    0.6114450706805058    0.598207824535466    0.5981823408895757    0.6114460356336991    
  0.6123763599352045    0.5825136740248422    0.5404365620046957    0.4392160135113941    0.39203042166449314    
  0.4392224566933953    0.5404382070957464    0.605290565771732    0.6073453345340888    0.5982077979405697    
  0.6073802816597251    0.6052749687868946    0.5404365620046957    0.5159982855499946    0.3472876903410776    
  0.2312272137819434    0.23121235442726623    0.347282955540524    0.515985692620038    0.605290551466385    
  0.6114451310347693    0.6114422654707562    0.6052564745608057    0.5159982855499946    0.5404574668439571    
  0.34728440947412953    0.17398054377718933    0.1193597643658746    0.17398913565872023    0.34728292842673536    
  0.5404381735394375    0.6123680186024478    0.6156688474779348    0.6123606878382406    0.5404574668439571    
  0.5825269451363034    0.4392083243899517    0.23122937647945435    0.11935219001322062    0.11935977541487194    
  0.23121235315618252    0.4392224831738014    0.5825260268283678    0.6088034247483235    0.6088075710759764    
  0.5825269451363034    0.59258946123868    0.5465571936797948    0.3920244453986694    0.23122938987060437    
  0.17398052141450596    0.23122719935324018    0.39203041581314896    0.546554196610569    0.5925843682128388    
  0.5904497922399071    0.59258946123868    0.572775343537255    0.5834236885286634    0.5465571955920903    
  0.4392083153583312    0.3472844211490679    0.3472876762154169    0.4392160390371493    0.5465232641780065    
  0.5834380113889193    0.5727804195171896    0.572775343537255    0.5601669994604936    0.572775335664147    
  0.5925894492782097    0.5825269603729152    0.5404574373099081    0.5159982734114091    0.5404365814708775    
  0.5825137030927641    0.5926156240384255    0.5727675484888922    0.5601669994604936    0.6005288496988584    
  0.6099905435199104    0.6184310405183305    0.585656627999295    0.5187152964207316    0.48403256504010483    
  0.5187266661557195    0.5856359722398954    0.6184427537183504    0.6099865467922257    0.6005288496988584    
  0.6099865796230964    0.6100112116022475    0.6230769466500868    0.6325763180283995    0.623463097691297    
  0.605848794340137    0.6058687622218001    0.6234502527583538    0.6325820444583106    0.6230849383995561    
  0.6099865796230964    0.6184427305587246    0.6096682482399592    0.6184300811264497    0.6325759925945399    
  0.634330330846791    0.6234929641738688    0.6162307817760853    0.6234929303451104    0.6343419811522718    
  0.6325820019628107    0.6184427305587246    0.5856359581873567    0.5418004629762431    0.5418050133711202    
  0.5856503650867608    0.6234725738460133    0.6234802265289963    0.6076923937121732    0.6076571286949829    
  0.6234929412805758    0.6234502544973144    0.5856359581873567    0.5187266297628712    0.39655867437416586    
  0.34292628509391765    0.3965740345350598    0.5186924008618247    0.605905838122933    0.616186686914117    
  0.6076924144946348    0.6162307980043993    0.6058687787386154    0.5187266297628712    0.48403261984319657    
  0.28697967663119395    0.1680558164682666    0.16804138055870776    0.2870103617739798    0.48398639321893694    
  0.6059058658806578    0.6234802817875924    0.6234929425287532    0.6058488448881966    0.48403261984319657    
  0.5187153217351083    0.2869935745103868    0.11383879912247633    0.06784216034285534    0.11382000231360215    
  0.2870103656125545    0.5186924167437283    0.6234725598709798    0.6343303924959957    0.6234630920856915    
  0.5187153217351083    0.5856566598849381    0.39656046802157574    0.16805990457709463    0.06781693478203994    
  0.06784217333045642    0.168041383579389    0.3965740052325782    0.5856504157016272    0.632575961068992    
  0.6325763569956971    0.5856566598849381    0.6184310550008163    0.5418060051091291    0.34292788249326084    
  0.16805991277541615    0.11383878097088546    0.16805581310172932    0.3429263083316097    0.5418049920401483    
  0.6184300875340052    0.6230768848668554    0.6184310550008163    0.6099905604551685    0.6096753838837481    
  0.5418060228798751    0.39656042813060505    0.28699358147354853    0.28697970778067755    0.396558689958224    
  0.5418004919908294    0.6096682618315907    0.6100112382879678    0.6099905604551685    0.6005288496988584    
  0.6099905435199104    0.6184310405183305    0.585656627999295    0.5187152964207316    0.48403256504010483    
  0.5187266661557195    0.5856359722398954    0.6184427537183504    0.6099865467922257    0.6005288496988584    
  0.5601669921108109    0.5727753621829348    0.5925894347837652    0.5825269603824547    0.5404574169778299    
  0.5159982560671167    0.5404365682473694    0.5825137218814199    0.5926156166977166    0.572767562905459    
  0.5601669921108109    0.5727675777291217    0.5727803875796079    0.5904498031086522    0.6088075282905142    
  0.6123606800797469    0.6052564174649301    0.6052749458856072    0.6123763851101935    0.6088124245853974    
  0.5904327845402373    0.5727675777291217    0.5926155889512537    0.5834380110720974    0.5925843507196018    
  0.6088034415890136    0.6156688272661845    0.6114422123927303    0.6073802835040805    0.6114460273636347    
  0.6156498963490761    0.608812424752644    0.5926155889512537    0.5825136535282336    0.5465232505089263    
  0.5465542161726045    0.5825260269754028    0.6123680437087723    0.6114450543095962    0.5982078439621668    
  0.5981823225272467    0.6114460520389375    0.6123763362736757    0.5825136535282336    0.5404365403989928    
  0.4392160399041029    0.3920303914825321    0.4392224633048246    0.540438166476496    0.6052905655612218    
  0.6073453080382323    0.5982078000549856    0.6073802455843108    0.6052749671235323    0.5404365403989928    
  0.5159982984728494    0.3472876765798816    0.2312272042711371    0.23121235226437123    0.34728296186658725    
  0.5159856661675147    0.605290567143391    0.6114451324196402    0.6114422698393047    0.6052564780413355    
  0.5159982984728494    0.5404574424249474    0.34728441702892215    0.17398053070310532    0.11935977239304403    
  0.17398912096239455    0.34728292521618276    0.5404381809280367    0.6123680207075576    0.6156688185600491    
  0.6123606857632745    0.5404574424249474    0.5825269866684281    0.4392082947848843    0.23122938910393961    
  0.1193521752327882    0.11935979331123397    0.23121235468379708    0.4392224744599856    0.5825260392019285    
  0.6088034579827664    0.6088075285331113    0.5825269866684281    0.5925894536994379    0.54655721073002    
  0.3920244358137452    0.23122939751878555    0.17398051657552516    0.23122718670525383    0.3920304120510312    
  0.5465542145591537    0.5925843500233677    0.5904497955884832    0.5925894536994379    0.5727753749106947    
  0.5834236460085298    0.5465572058244393    0.43920829615330437    0.3472844133406715    0.3472876991832746    
  0.43921605160905947    0.546523258879484    0.5834380117818321    0.5727804285381002    0.5727753749106947    
  0.5601669921108109    0.5727753621829348    0.5925894347837652    0.5825269603824547    0.5404574169778299    
  0.5159982560671167    0.5404365682473694    0.5825137218814199    0.5926156166977166    0.572767562905459    
  0.5601669921108109    0.4735133071490487    0.4909918064535778    0.5306602329796937    0.5640687310398808    
  0.5739740770645924    0.5726841331993898    0.5739431885262917    0.5640639880577115    0.5306810898723205    
  0.49098532816487767    0.4735133071490487    0.49098531713078136    0.49099407887651464    0.5168012816160159    
  0.553166639073463    0.5832037648535119    0.5977755053079511    0.5977896891161897    0.5832293536373101    
  0.5531672595846425    0.5167828380107887    0.49098531713078136    0.5306810941446419    0.5202796031391427    
  0.5306529096042011    0.553159183524418    0.5740168796358651    0.5860971052532936    0.5894215725454635    
  0.5861004016651756    0.5739901250330013    0.5531672212741517    0.5306810941446419    0.5640639529547011    
  0.5420952341144201    0.5421242915249538    0.5640703346474932    0.5832113641267184    0.5861056242455311    
  0.5810390957815561    0.5810222354201154    0.5861004246480414    0.583229321697085    0.5640639529547011    
  0.5739431898537717    0.5220464741116414    0.4942880122033282    0.522052238126893    0.5739597768085279    
  0.5977894957177977    0.5893969562708908    0.5810390941870902    0.5894216010334548    0.5977897022190943    
  0.5739431898537717    0.5726841680377092    0.4859979441457207    0.40571690541974204    0.40570417201097175    
  0.4859690565672051    0.5726956390785825    0.5977894960606929    0.5861056666500469    0.5860970932683104    
  0.5977755465064549    0.5726841680377092    0.5739740977940442    0.4859821471600587    0.36307011379709175    
  0.30984281395030855    0.36310101726721683    0.4859690556407056    0.5739597919056098    0.5832113496384718    
  0.5740169133163175    0.5832037945358548    0.5739740977940442    0.5640687407611336    0.5220410502774048    
  0.4057146490540348    0.3098553852459026    0.30984283136824475    0.405704197988706    0.5220522000744411    
  0.5640703724124276    0.5531592035389178    0.553166679667558    0.5640687407611336    0.5306602699821743    
  0.5421265618450045    0.4942821044964959    0.40571464127459916    0.36307007718546674    0.4057169064337989    
  0.49428803822736733    0.5421242767501788    0.5306528961522538    0.5168012419560264    0.5306602699821743    
  0.4909918082118203    0.5202629804227045    0.5421265836577925    0.5220409959115172    0.48598216647801434    
  0.48599794015109593    0.5220465196564141    0.5420952782876648    0.5202796138084731    0.4909941031372333    
  0.4909918082118203    0.4735133071490487    0.4909918064535778    0.5306602329796937    0.5640687310398808    
  0.5739740770645924    0.5726841331993898    0.5739431885262917    0.5640639880577115    0.5306810898723205    
  0.49098532816487767    0.4735133071490487    0.3999416187429618    0.4191609004141978    0.46964225310233576    
  0.5317378143962971    0.5793790530716014    0.5961112535330432    0.5793677581861465    0.531735122063476    
  0.4696495431258957    0.41915852893867583    0.3999416187429618    0.4191585456239054    0.41916281004624295    
  0.4507991899634932    0.5027342606261522    0.5557381718640919    0.5880578707062973    0.5880702401644022    
  0.5557493608340379    0.5027326389786717    0.4507912956691489    0.4191585456239054    0.4696495289160376    
  0.45658623365538137    0.46963917265940447    0.5027268816947523    0.542610876207851    0.5736655305740415    
  0.5848113959382741    0.5736618007302599    0.542604170750948    0.5027326206324617    0.4696495289160376    
  0.5317350937282964    0.5131723105819215    0.5131795117409431    0.5317375667838798    0.555745971888703    
  0.5736680873704448    0.5812828719284715    0.5812752887844056    0.5736618067604706    0.5557493351991045    
  0.5317350937282964    0.579367738410518    0.5597661545855018    0.5486626257304354    0.559772463473218    
  0.5793715840464786    0.588066505518066    0.5847953092601004    0.5812828461395824    0.58481139808097    
  0.5880702634789555    0.579367738410518    0.5961112944683088    0.5799735501189681    0.5552327206837417    
  0.5552285772109544    0.5799637049064971    0.5961172116436604    0.5880665074137517    0.5736681292279262    
  0.5736655652648874    0.5880579002269615    0.5961112944683088    0.5793791000239019    0.5799718572993517    
  0.5511652433356073    0.5325276994263465    0.55117245418529    0.5799636768789391    0.5793715391515295    
  0.5557459747420707    0.5426108840181618    0.5557381664820958    0.5793791000239019    0.5317377945796044    
  0.5597657408556352    0.5552285388542393    0.5325306635775425    0.5325277052870645    0.5552285821744627    
  0.5597724761708825    0.5317375679864774    0.5027268717162001    0.5027342801358174    0.5317377945796044    
  0.46964227103886264    0.5131815454389417    0.548664351353938    0.5552285571181668    0.5511652129095292    
  0.555232703863914    0.5486626334932236    0.5131795107600009    0.46963917537825683    0.4507991797164293    
  0.46964227103886264    0.4191608933677838    0.45657908790877116    0.5131815461338333    0.559765727570256    
  0.5799718766569835    0.5799735488208574    0.5597661469028962    0.5131722913313468    0.4565862579281649    
  0.4191628426472713    0.4191608933677838    0.3999416187429618    0.4191609004141978    0.46964225310233576    
  0.5317378143962971    0.5793790530716014    0.5961112535330432    0.5793677581861465    0.531735122063476    
  0.4696495431258957    0.41915852893867583    0.3999416187429618    0.37279193355409507    0.39197855062644704    
  0.444749877660019    0.5148849218215351    0.5736760826852163    0.5958223027892426    0.5736761067476625    
  0.5148849136300248    0.44474990478031884    0.39197856923700125    0.37279193355409507    0.39197858889790915    
  0.39198213303547463    0.4278494012873467    0.4889617341942589    0.5525291762905543    0.5911750938718753    
  0.5911815273461665    0.5525358627813934    0.4889605300128323    0.4278469010949773    0.39197858889790915    
  0.44474992555487175    0.42784936412856417    0.44474719050528805    0.4889572169127359    0.5427628198323599    
  0.5831721631904159    0.5970303661691638    0.5831663490411642    0.5427619981327962    0.4889604901618126    
  0.44474992555487175    0.5148848799633404    0.48896171905911207    0.48895721534075565    0.5148859784804699    
  0.5525358111049826    0.5831681998474416    0.596739414706596    0.5967330306689507    0.583166386921739    
  0.55253587326309    0.5148848799633404    0.5736760803160318    0.5525291660067684    0.5427628344373894    
  0.5525357861978593    0.5736752051193461    0.5911821921707865    0.5970199694858183    0.5967394226186628    
  0.5970303752988483    0.5911815494313384    0.5736760803160318    0.5958223341144658    0.5911750966811383    
  0.5831721278799049    0.5831681908439899    0.5911822069965778    0.5958140946230638    0.5911822106884    
  0.5831682469308723    0.583172143093998    0.5911751269068108    0.5958223341144658    0.5736761099798023    
  0.5911815129594582    0.5970303730923932    0.596739394448636    0.5970199342900327    0.5911822155142903    
  0.5736752137920529    0.5525357752161661    0.5427628767193851    0.5525291645150081    0.5736761099798023    
  0.5148849202059995    0.5525359121679349    0.5831663990756323    0.5967330221477601    0.5967394071497367    
  0.5831681834864294    0.5525357541060414    0.5148859880897348    0.4889571931310828    0.4889617577049904    
  0.5148849202059995    0.4447498865865054    0.4889605054232043    0.5427619656849626    0.5831663921316493    
  0.5970303606727541    0.5831721040463878    0.5427628552081849    0.48895720426464023    0.444747178692308    
  0.4278493693848152    0.4447498865865054    0.3919785518797451    0.42784692254084017    0.48896050881674186    
  0.5525358429919762    0.5911815391586815    0.5911751439953961    0.5525291539480401    0.48896175926559865    
  0.427849389465292    0.39198215967879557    0.3919785518797451    0.37279193355409507    0.39197855062644704    
  0.444749877660019    0.5148849218215351    0.5736760826852163    0.5958223027892426    0.5736761067476625    
  0.5148849136300248    0.44474990478031884    0.39197856923700125    0.37279193355409507    0.39994162750572587    
  0.41915849902324137    0.4696495212432792    0.531735093681894    0.579367744763997    0.5961112319171111    
  0.5793790785441291    0.5317378043287296    0.4696423035415817    0.4191609113397574    0.39994162750572587    
  0.4191609267259852    0.41916283188811093    0.4565862476128056    0.5131723077717746    0.5597661348685435    
  0.5799735478958474    0.5799718176560388    0.5597657901803242    0.5131815825722733    0.4565790869877825    
  0.4191609267259852    0.4696422907312113    0.4507991778278664    0.46963919674656684    0.5131794967492505    
  0.5486626539281583    0.555232693485096    0.5511652430352558    0.5552285372137308    0.5486643265503074    
  0.5131815531144522    0.4696422907312113    0.5317377523416977    0.5027343161989934    0.5027268824080366    
  0.531737583561792    0.559772493963988    0.5552286016196214    0.5325277215548504    0.5325306335709178    
  0.5552285450330726    0.5597657681037747    0.5317377523416977    0.5793790681239944    0.5557381814732776    
  0.5426108595731468    0.5557459876598893    0.5793715769862949    0.5799637088369722    0.5511724436638703    
  0.5325277025893407    0.5511652075780037    0.5799718523439755    0.5793790681239944    0.5961112700341518    
  0.5880579015624146    0.5736655052216271    0.5736681196959319    0.5880664696836216    0.5961172145959401    
  0.5799636818199905    0.5552286467350671    0.5552327232544423    0.5799736093289796    0.5961112700341518    
  0.5793677696626403    0.5880702290651371    0.5848114329924657    0.5812828167621606    0.584795325698646    
  0.5880664263196049    0.5793715768248562    0.5597724530705264    0.5486626412669104    0.5597661207398218    
  0.5793677696626403    0.5317350926667778    0.5557493580735285    0.5736617840720636    0.5812753046584435    
  0.5812828741163866    0.5736681230625865    0.555745972031049    0.5317375889148532    0.5131794766194376    
  0.5131723035075907    0.5317350926667778    0.46964953206147775    0.5027325831993956    0.5426042008969427    
  0.5736617962868308    0.5848114081623578    0.5736654872072435    0.5426108617704472    0.5027268568151176    
  0.46963917290278545    0.4565862306108416    0.46964953206147775    0.4191585117025627    0.4507912875315281    
  0.502732588963354    0.5557493285516034    0.588070212925958    0.5880579024268315    0.5557381788715947    
  0.5027342906950867    0.45079918113542666    0.4191628418357212    0.4191585117025627    0.39994162750572587    
  0.41915849902324137    0.4696495212432792    0.531735093681894    0.579367744763997    0.5961112319171111    
  0.5793790785441291    0.5317378043287296    0.4696423035415817    0.4191609113397574    0.39994162750572587    
  0.4735132624232434    0.4909853372725849    0.530681024453778    0.5640640262425592    0.5739431404633978    
  0.5726841632182946    0.5739740616098825    0.5640687469550622    0.5306602557135945    0.4909918665402693    
  0.4735132624232434    0.4909918718351938    0.49099406240361343    0.5202796712318407    0.5420952043896369    
  0.5220465238809232    0.48599791717666097    0.4859821865374371    0.522040996728072    0.5421266351186277    
  0.5202629467467057    0.4909918718351938    0.5306602842365421    0.5168012590066575    0.5306528954050566    
  0.5421243160679633    0.49428800489811575    0.4057169415845629    0.36307008427079485    0.4057146532161479    
  0.4942820821025526    0.5421266047177541    0.5306602842365421    0.564068733965111    0.5531666379921286    
  0.5531592264077397    0.5640703212455256    0.522052227597517    0.4057041825245673    0.30984282805880164    
  0.3098553794819405    0.40571465341999674    0.5220409963932824    0.564068733965111    0.573974066866293    
  0.5832037880184882    0.5740168351723774    0.5832113956790899    0.5739597838200075    0.48596908911002623    
  0.363101005052106    0.30984283961945674    0.36307006935089436    0.48598221259357544    0.573974066866293    
  0.5726841967663239    0.5977754907785727    0.586097092917541    0.5861056145881592    0.5977895032910471    
  0.5726956216569679    0.4859691099282523    0.4057041919133684    0.405716945626082    0.48599792999698177    
  0.5726841967663239    0.5739431718860294    0.597789692506937    0.5894215840175081    0.5810391096956145    
  0.5893968894944159    0.5977895273182849    0.5739597689754133    0.5220522102301495    0.4942880307764457    
  0.5220465138568218    0.5739431718860294    0.5640640173783205    0.5832293478617107    0.5861004507693753    
  0.5810221905602801    0.581039135956084    0.5861056276708178    0.583211374034161    0.5640703276989754    