#     DFTpy    
  CRYSTAL 
    
  PRIMVEC    
  4.069335936696254    1.7024593589865515e-05    -4.2683793103448274e-13    
  -2.034653224616732    3.5241569119179674    -8.351293103448276e-12    
  -7.018827586206896e-13    -1.6261210344827584e-11    6.69062056588702    
  PRIMCOORD    
  4    1    
  Si    1.0130141619665696e-05    2.349443449693026    3.762629913808857    
  Si    2.0346725819331337    1.1747304867897053    0.41731958146024445    
  Si    1.0130143148489374e-05    2.3494434496920555    6.273300935018395    
  Si    2.0346725819397373    1.1747304868158055    2.9279907014689863    
  BEGIN_BLOCK_DATAGRID_3D    
  3d_datagrid_density    
  BEGIN_DATAGRID_3D#0    
  19    19    29    
  0.0    0.0    0.0    
  4.069335936696254    1.7024593589865515e-05    -4.2683793103448274e-13    
  -2.034653224616732    3.5241569119179674    -8.351293103448276e-12    
  -7.018827586206896e-13    -1.6261210344827584e-11    6.69062056588702    
  0.03767599796258119    0.04002471351281757    0.0478926360090332    0.06423951754849545    0.09448918014818287    
  0.14514513213716237    0.21970760584689136    0.30976564965624054    0.38820810693878066    0.41997826683843564    
  0.38820819364352877    0.30976567936480887    0.2197075949200201    0.14514511681617148    0.09448917616296561    
  0.06423950402552776    0.0478926430672573    0.04002472961422482    0.03767599796258119    0.04002471254282105    
  0.040025008866048185    0.045143949872333236    0.05734758231728336    0.08102308554093514    0.12269905206199883    
  0.18854164491176276    0.2769205424128132    0.36828947359965486    0.42799949568250845    0.4279826008233223    
  0.3683017418095771    0.2769427328368655    0.1885229931387384    0.12269634429626301    0.0810298723879462    
  0.0573466276555461    0.04514452091721205    0.04002471254282105    0.04789263817154462    0.04514392822421041    
  0.04789256940964116    0.0573458313544429    0.07716958363000267    0.11358297532713321    0.17422936428893    
  0.2616063258753437    0.3603107518628172    0.43705260244925576    0.4651298110185372    0.4370572354949796    
  0.36027724040972836    0.2616129536912668    0.17425315199044897    0.11357998489933514    0.07716584223844664    
  0.05734663091037548    0.04789263817154462    0.06423950760497113    0.057347571639250056    0.05734582021301574    
  0.0642414292899389    0.08102250369705226    0.11358037550813299    0.1703951036820605    0.2559278472819361    
  0.35370561457399036    0.4241869426714596    0.4497163749533367    0.4497371676532174    0.4242063692285566    
  0.3537151836631594    0.2559173234988382    0.17038834864283306    0.11358001565796386    0.08102989681842843    
  0.06423950760497113    0.09448918216632539    0.08102309326612188    0.07716959007195238    0.08102251501360168    
  0.09449584622055729    0.12269602123564059    0.1742398565163172    0.25592124686795537    0.3503127432492354    
  0.4013670768844313    0.3858517365648236    0.36605672084865576    0.3858059527799103    0.40137783367305624    
  0.3503152026485103    0.25591728931107544    0.17425319472105472    0.1226963687643137    0.09448918216632539    
  0.14514511271498498    0.1226990735119838    0.11358296037808524    0.11358038568603267    0.1226959902770828    
  0.14514130739064257    0.1885455139678914    0.2616026941261549    0.3537135656835991    0.4013895818232663    
  0.35072784888599196    0.2788577364216752    0.27889171270868424    0.350722972074989    0.40137778093494386    
  0.3537150866741092    0.2616128872131324    0.18852299558273977    0.14514511271498498    0.21970760327601752    
  0.1885416307577682    0.17422931344368456    0.17039510527056873    0.17423978538000917    0.1885454841981197    
  0.21969262911754428    0.2769534878971085    0.360290835707752    0.42420918604156216    0.3858081948841634    
  0.27889203712464494    0.22868942429769043    0.27889174768134056    0.38580598572754876    0.42420634550356756    
  0.3602771976419415    0.27694277123100497    0.21970760327601752    0.30976569889063704    0.2769205262307875    
  0.26160635298178186    0.2559279152598881    0.25592128302433426    0.26160266363408413    0.2769535509033609    
  0.309760260551358    0.36830756886400456    0.4370633330704357    0.44973170461799095    0.3660575719995014    
  0.27889199724421143    0.2788577666681915    0.36605675740763083    0.4497371526175297    0.4370571655502265    
  0.3683017117821886    0.30976569889063704    0.38820816682362086    0.36828947493787645    0.36031071752698973    
  0.3537055688935502    0.35031273180085226    0.3537136099586903    0.36029079247854046    0.3683076217522176    
  0.3882300583881002    0.4279894846445957    0.4651534898362916    0.44973172324198923    0.3858081524473389    
  0.35072789610945926    0.38585167864537623    0.44971631382378163    0.4651298226210205    0.42798267429547054    
  0.38820816682362086    0.41997832851687394    0.4279994606722822    0.43705259893478327    0.42418690967646666    
  0.4013671397396975    0.4013896252015965    0.4242091613960144    0.437063387554409    0.42798941475717284    
  0.4200071920182821    0.4279894043407325    0.43706334589477447    0.42420927437206973    0.4013896168381771    
  0.40136711940570863    0.4241869610925359    0.4370526221011283    0.4279995070166138    0.41997832851687394    
  0.38820813464886217    0.42798262361302875    0.4651298409255651    0.44971630702757726    0.3858517359811737    
  0.35072790288438765    0.38580812047000845    0.4497316380282631    0.4651533883922462    0.42798943515799887    
  0.38823005478892236    0.36830763152292745    0.3602908437678747    0.35371359455995716    0.3503126953018168    
  0.35370563986132997    0.3603107383173057    0.3682895242620465    0.38820813464886217    0.30976562833030263    
  0.36830175770281876    0.4370572983534057    0.44973716190921154    0.366056775076512    0.2788577811013357    
  0.27889202331860774    0.36605754413440966    0.44973162793790017    0.4370633749228441    0.3683075595335022    
  0.3097602632662944    0.27695354278380535    0.2616026823224706    0.2559212223987368    0.2559278946052953    
  0.26160633477982875    0.2769205450215314    0.30976562833030263    0.21970757456347265    0.27694271412477967    
  0.3602771173405119    0.4242062947785763    0.38580597933447286    0.2788917529657035    0.2286895303642036    
  0.27889198190683934    0.38580821938108256    0.4242091751651789    0.3602908472308026    0.2769535459964419    
  0.2196926448931982    0.18854553927710202    0.17423984539021753    0.1703950948815175    0.1742293356009409    
  0.18854165182457291    0.21970757456347265    0.14514509914472246    0.18852299161397718    0.2616128698684171    
  0.3537151174670614    0.4013777899572605    0.3507230045909788    0.2788917726509761    0.2788577668838352    
  0.35072792170864575    0.4013896217590514    0.3537135528941244    0.2616026950385944    0.18854548211999128    
  0.14514130983988094    0.12269598561283102    0.11358037262110893    0.11358297680584938    0.1226990958002706    
  0.14514509914472246    0.09448918596081521    0.1226963599498587    0.17425319442730217    0.2559173197900714    
  0.35031522580168795    0.4013778194569772    0.3858059480740767    0.36605683041825854    0.38585176663024773    
  0.40136713978286553    0.35031270377067847    0.2559212494701817    0.17423984350455055    0.12269599147377877    
  0.09449582327785505    0.08102250635553718    0.07716958185177654    0.08102310586344545    0.09448918596081521    
  0.06423950934453095    0.0810298666088842    0.11357999445949252    0.17038835434659125    0.2559173204793716    
  0.353715185216492    0.4242062546760326    0.44973705669790415    0.4497164264481804    0.4241869055252763    
  0.35370562803824823    0.2559279156439757    0.17039509180288265    0.11358039107053186    0.08102250951987865    
  0.06424142300693926    0.0573458286997104    0.057347565724477884    0.06423950934453095    0.047892639069001805    
  0.05734663457788213    0.07716584927410561    0.11358000503072932    0.17425317273929972    0.261612930791856    
  0.3602771754922026    0.43705720436735557    0.4651298074711824    0.4370526463957647    0.3603107520207677    
  0.261606338399998    0.17422935818277402    0.11358299981031902    0.07716957703419725    0.05734583019704263    
  0.04789256510266305    0.04514393954102386    0.047892639069001805    0.04002471195696527    0.04514451733496149    
  0.057346634651593384    0.08102988776505718    0.1226963539405642    0.18852303294103454    0.27694272975952194    
  0.3683016952608661    0.4279826481016516    0.4279995568151689    0.3682894477462494    0.27692053610506084    
  0.18854163928064507    0.12269907455122797    0.08102308285058164    0.057347560909386135    0.04514394901727513    
  0.040025021250223315    0.04002471195696527    0.03767599796258119    0.04002471351281757    0.0478926360090332    
  0.06423951754849545    0.09448918014818287    0.14514513213716237    0.21970760584689136    0.30976564965624054    
  0.38820810693878066    0.41997826683843564    0.38820819364352877    0.30976567936480887    0.2197075949200201    
  0.14514511681617148    0.09448917616296561    0.06423950402552776    0.0478926430672573    0.04002472961422482    
  0.03767599796258119    0.037268548551923825    0.03952914406753935    0.047069585834056814    0.06260668106083978    
  0.09113084621295393    0.13865582630527581    0.20814843391524723    0.29128029330640437    0.3631566984852959    
  0.39221043612388856    0.36318251716043165    0.29128726658740667    0.20812801488695518    0.1386559360272424    
  0.09114277720119404    0.06260394903495047    0.047069930345287586    0.03952918927147955    0.037268548551923825    
  0.03952916889218042    0.03952951345422709    0.04480693011099343    0.05740226080902241    0.08176765337800318    
  0.12456491624679082    0.19193576840901586    0.28133157939399817    0.37197007084417466    0.430010980298911    
  0.4299834423321948    0.37196049675079185    0.281364829150711    0.1919335550107436    0.12455297370007447    
  0.08177333845557794    0.057402697558294    0.04480745888860185    0.03952916889218042    0.04706991566360329    
  0.044076092964269696    0.04706925540041288    0.05740279835184567    0.07913409907730229    0.11921802415562324    
  0.18591756453962086    0.27996465080125876    0.37996932615225715    0.4496858639265147    0.4724769063611997    
  0.4497022068398798    0.37994064313725123    0.2799646567496709    0.18594419641233273    0.11921253958570403    
  0.07913488212836994    0.05740269693405561    0.04706991566360329    0.06260395724529513    0.054762669903247595    
  0.05475899799119386    0.06260769295758134    0.08176675372885293    0.11921619606106415    0.18473225784983752    
  0.2804780704566522    0.376239258853736    0.41885757329161205    0.4129546776513523    0.4129724730989208    
  0.4188760213006819    0.37625425864243406    0.2804460713345485    0.18474640744460308    0.11921256342426151    
  0.0817733695973392    0.06260395724529513    0.0911427756711682    0.07526497503738595    0.07072349798536007    
  0.07526493457659207    0.09114346102076516    0.12455340135831984    0.18593919449490556    0.28045837141932134    
  0.371585868331541    0.3731719458980887    0.2940844921054781    0.2510882019451988    0.2940487485272845    
  0.37315642251110337    0.3716268898659815    0.28044599660311065    0.18594420188766442    0.1245530129772372    
  0.0911427756711682    0.1386559158477766    0.1110331873362288    0.09970606543993389    0.09970313522231118    
  0.11103559368300452    0.13865223700786028    0.19194323455465365    0.2799542988698459    0.3762560655236584    
  0.3731896088694439    0.2407072926556548    0.1389265480144475    0.13893359617708004    0.24072747089206611    
  0.3731563997834542    0.3762541665192112    0.2799646206095408    0.19193353424509849    0.1386559158477766    
  0.20812795867903755    0.167020764187165    0.14741610571720154    0.14192153249066247    0.1474187638606462    
  0.16702284470559292    0.20812641164942242    0.28137076396704847    0.379946349699777    0.4188799749267411    
  0.2940490337823803    0.13893371457290032    0.08872143719280368    0.13893359909679487    0.2940488155730773    
  0.4188759661154585    0.37994060988215467    0.28136485244258624    0.20812795867903755    0.2912872234092547    
  0.24165822213761598    0.21632279268859408    0.20623873921577934    0.2062422372962415    0.21631998662910215    
  0.2416741274424475    0.29128412255001623    0.3719769385589419    0.4497050838980278    0.41294194549663343    
  0.2511111906169809    0.13893372949967855    0.13892657182327742    0.2510882122781742    0.4129724152092495    
  0.44970219113425247    0.3719604405717795    0.2912872234092547    0.36318256615334094    0.31881101866152844    
  0.2966505870994567    0.2865388380352613    0.2836721279170638    0.28654227761516954    0.2966507892912365    
  0.31881965772636167    0.36319678520135984    0.42997848611868805    0.4725335383202508    0.4129419476881779    
  0.29404904363856366    0.24070732390240154    0.29408443857527816    0.4129546729439269    0.47247699397120047    
  0.42998348335479797    0.36318256615334094    0.3922105537736404    0.36960770807614374    0.3633326069868386    
  0.36022771767487655    0.35606889326078983    0.35608336455931283    0.36022850483221514    0.36334986726134855    
  0.36960627015432956    0.3922438227416017    0.4299785260589778    0.44970514049627697    0.41888001327163765    
  0.37318972099791864    0.37317191757354445    0.41885759840871334    0.44968583586649336    0.4300110717641895    
  0.3922105537736404    0.3631567291382698    0.36960635155857935    0.38936169960175565    0.4020756878945069    
  0.3962621351871362    0.3893445212710731    0.3962537207128725    0.4020837447984423    0.38937356707810417    
  0.36960627659931977    0.36319678954521145    0.37197688384586325    0.37994631230107545    0.37625614115673267    
  0.3715858266304308    0.37623915615905945    0.37996932954737506    0.3719700716729806    0.3631567291382698    
  0.2912802502772467    0.3188329200085201    0.3633352467452428    0.4020792257808046    0.4059630333981456    
  0.3877341285635073    0.3877464426596534    0.40596535922755217    0.40208376426476344    0.36334990076288426    
  0.3188196534266542    0.2912841053550547    0.2813707997662881    0.2799542989111152    0.280458372167646    
  0.28047807660050617    0.2799646488471331    0.2813315385096076    0.2912802502772467    0.20814841167737455    
  0.24166807372355553    0.296624458564633    0.36023087434837253    0.39625062419089224    0.3877455756228951    
  0.37456857704225555    0.3877463820544037    0.3962537127200956    0.36022842581343645    0.2966507696502992    
  0.24167416415749762    0.2081263514597724    0.1919432555586646    0.18593916216703463    0.1847322404282794    
  0.18591755662808862    0.19193578453644114    0.20814841167737455    0.13865580951643666    0.1669954284563127    
  0.2163224746889209    0.286558471107963    0.35607572833439094    0.3893398118365936    0.387745614139142    
  0.38773409054276764    0.38934448523912135    0.3560832920983117    0.28654221481718134    0.21631995267234894    
  0.16702281459850102    0.13865226656620178    0.12455335503148655    0.11921618804586409    0.11921800709347964    
  0.12456493298308624    0.13865580951643666    0.09113084104279283    0.11103379906914046    0.14743993292904034    
  0.2062398062980244    0.2836537700753427    0.35607578202866236    0.3962505952519728    0.4059630291350182    
  0.39626218638011074    0.35606890174984057    0.28367208326670845    0.20624224380153916    0.14741880658407916    
  0.11103556107001131    0.09114343423841198    0.08176676100882228    0.07913409735813644    0.08176765615747444    
  0.09113084104279283    0.06260666978275364    0.07527542880932991    0.09970454446296498    0.14190169648541362    
  0.2062397713907357    0.2865585137069372    0.36023079255985835    0.4020791295033957    0.40207574268960633    
  0.3602277219627028    0.28653879317081565    0.20623872854080288    0.14192151013659657    0.0997031491095275    
  0.07526494243347263    0.06260768296015562    0.05740279559298896    0.057402259562943404    0.06260666978275364    
  0.04706959850128466    0.054760381098977885    0.07071413432530028    0.0997045740109802    0.14743990998154452    
  0.2163224935118467    0.29662455565773616    0.363335168462222    0.3893616859243504    0.3633326015223767    
  0.29665058848792136    0.21632283238909036    0.1474161031943738    0.0997060733949479    0.07072348222168888    
  0.054759000469842764    0.04706925324783074    0.04480692379629589    0.04706959850128466    0.039529147378453255    
  0.04407630806692934    0.05476038136933552    0.07527544615341362    0.11103378935238807    0.16699547341805615    
  0.24166808264747164    0.31883290783125523    0.36960638084171465    0.3696077039222382    0.31881098973003724    
  0.2416582260306688    0.16702076640944977    0.11103320158768112    0.07526498586813    0.05476265612164115    
  0.0440761021215564    0.039529531546289014    0.039529147378453255    0.037268548551923825    0.03952914406753935    
  0.047069585834056814    0.06260668106083978    0.09113084621295393    0.13865582630527581    0.20814843391524723    
  0.29128029330640437    0.3631566984852959    0.39221043612388856    0.36318251716043165    0.29128726658740667    
  0.20812801488695518    0.1386559360272424    0.09114277720119404    0.06260394903495047    0.047069930345287586    
  0.03952918927147955    0.037268548551923825    0.036228454060152    0.0382054915296238    0.044781387260830884    
  0.05815923306845601    0.0822586236966613    0.12168254773777386    0.17825264372909788    0.2445681636738561    
  0.3010347723808854    0.32372366676637343    0.30106428927319456    0.2445759872810648    0.1782318326161753    
  0.12168278233538955    0.08227268116373346    0.05815669649380629    0.0447818167670285    0.03820536358870981    
  0.036228454060152    0.03820534869562391    0.038205827612621944    0.04310342676825637    0.054790677465211816    
  0.0771976488043202    0.11604962954867327    0.176261541152854    0.2545927157113394    0.33232101369073713    
  0.38120387789460225    0.3811776146789212    0.3323051333448158    0.254625149439944    0.17626544141711448    
  0.11603551659605678    0.07720344463320994    0.05479097510644475    0.043104363807323465    0.03820534869562391    
  0.044781813593707614    0.04188595999629157    0.04478090169056295    0.05479122129145166    0.07584677617387682    
  0.11457238356471589    0.17842712059689048    0.26677874251249406    0.35755633490621974    0.4172676805864694    
  0.43551768246279793    0.41728719952231463    0.35753721735269844    0.2667724805673589    0.1784555760882704    
  0.11456648753688728    0.07584902886383552    0.054790975542878984    0.044781813593707614    0.058156703368266637    
  0.05038396295921859    0.050380193032976736    0.05816075370022975    0.07719706877178344    0.11457031609549517    
  0.17986775474765668    0.2739480534673045    0.36356575219158016    0.3947889438674485    0.37975971286870025    
  0.3797728238968054    0.39480020379953146    0.36358595818626416    0.2739129906610129    0.1798857935617573    
  0.11456650673271943    0.07720346897720078    0.058156703368266637    0.0822726752875215    0.0663595263539933    
  0.061820015062527836    0.06635939910450717    0.08227133617542894    0.11603723080564246    0.1784500509729775    
  0.273928348115697    0.36156940691594686    0.35071035946929047    0.26087926703429554    0.21567302216964768    
  0.2608565711723067    0.3506833358656458    0.3616215726821311    0.2739130174940157    0.17845557507035167    
  0.11603552649232368    0.0822726752875215    0.12168276139138205    0.09366052146189202    0.08223076262259023    
  0.08222891330030951    0.09366311325059228    0.1216794573279741    0.17626969310689383    0.2667653879794435    
  0.3635833876993798    0.3507246717851314    0.20840171322720819    0.10920959739720523    0.10920308890871709    
  0.20843328979090173    0.3506832815043137    0.36358586533590576    0.26677244162512015    0.1762654382193639    
  0.12168276139138205    0.17823180686206402    0.1354981116013901    0.11511777414652742    0.10934886361304047    
  0.11511828541651839    0.13549963993489292    0.17823325262515355    0.254627102614799    0.3575403667084587    
  0.3948014940484646    0.26085685483544707    0.10920322141554226    0.0643866366484061    0.1092030896145876    
  0.26085659116529564    0.39480012082124516    0.35753721462321625    0.2546251671695492    0.17823180686206402    
  0.2445760012075442    0.19008280076568324    0.16175948978214796    0.1502690242163695    0.150272702630755    
  0.1617576147065584    0.19009012712457818    0.2445758354863392    0.332318397713182    0.41729332961252247    
  0.37973272446338246    0.21570471068578997    0.10920322284839964    0.10920959974769594    0.21567307113393272    
  0.3797727177058201    0.41728722933944656    0.33230514785185133    0.2445760012075442    0.3010643488012778    
  0.2455285681059263    0.2157609596838552    0.20233974793115245    0.19882654408209888    0.20234127694635415    
  0.21576630286420126    0.24553149490826193    0.30107619450722506    0.38116500067499737    0.43558074623683146    
  0.3797327609579083    0.2608568313984591    0.20840174806307007    0.26087928508004293    0.3797597288309105    
  0.4355177288519541    0.38117765543670357    0.3010643488012778    0.32372374189941655    0.28180313719919303    
  0.26108018870434246    0.25351052874640684    0.25178274720997273    0.2517934705288804    0.2535045988299852    
  0.26109607765749593    0.2818000163895072    0.3237565965098181    0.38116501306173517    0.4172933053084197    
  0.3948015010405485    0.3507247319962894    0.35071042206400904    0.39478894744426424    0.4172676750101596    
  0.38120394906170924    0.32372374189941655    0.3010347906667207    0.28180561861007175    0.27910247856392556    
  0.28574377592876926    0.2925274179520405    0.29506848783870887    0.2925303678337594    0.28574619418969116    
  0.27911303672484533    0.28180007037543514    0.3010762132325786    0.3323183908652759    0.3575403771404747    
  0.36358347413016884    0.3615693738242763    0.36356576435522175    0.3575563365148825    0.3323209815873467    
  0.3010347906667207    0.24456819056821494    0.24554844365364928    0.2610823030942721    0.28574292511578797    
  0.30746327640339    0.3180783278094226    0.3180785035945246    0.30746796696463513    0.28574619430148473    
  0.261096057207105    0.24553147306922657    0.2445758081510106    0.2546271392902547    0.2667654205911132    
  0.27392832004947454    0.2739480092662483    0.2667787525473898    0.2545927342564532    0.24456819056821494    
  0.17825262212685442    0.19008778887293296    0.21574027432689466    0.253508174670489    0.292527539631647    
  0.31807786255111425    0.32582633207341194    0.31807845519713784    0.29253041004689756    0.2535045802099772    
  0.21576632276622013    0.19009011423162953    0.17823327200680827    0.17626970721834298    0.17844998719550098    
  0.17986769386672954    0.17842710955960314    0.17626154782884584    0.17825262212685442    0.12168253066174883    
  0.13547598853163387    0.16175746337448868    0.2023589827374626    0.2517861415469639    0.29506722933074897    
  0.3180778793684539    0.31807831826841987    0.2950684799292684    0.25179344316833135    0.20234126045163414    
  0.16175759531687467    0.1354996223394351    0.12167946812465197    0.11603718392742679    0.11457031275630689    
  0.11457237905375404    0.11604963383057439    0.12168253066174883    0.08225862490664408    0.09366073848089734    
  0.11513659656575143    0.1502698315878258    0.19880849495532543    0.25178619835305144    0.29252758290711617    
  0.30746325596392715    0.2925274349816557    0.2517827497579457    0.19882649244285183    0.1502726919278969    
  0.11511831777404938    0.09366310421479394    0.08227132801746982    0.0771970684176517    0.07584677139906949    
  0.07719765713749283    0.08225862490664408    0.058159218180376226    0.06637015726897322    0.08222938167686349    
  0.10933186187650482    0.15026984185530137    0.20235903833445051    0.2535081147746099    0.285742889334737    
  0.28574380280458744    0.25351047695365686    0.20233975002051074    0.15026900458994705    0.10934886779430351    
  0.08222890052227029    0.06635939080139236    0.05816074406918208    0.05479122054650728    0.05479068291818998    
  0.058159218180376226    0.044781392878757    0.05038162575435058    0.06180973470089136    0.08222940649969084    
  0.11513656295839143    0.1617574527099526    0.21574031283019549    0.2610822706758952    0.2791024366843277    
  0.26108022523540114    0.21576094188611    0.16175949555853944    0.11511783020785753    0.08223077641482554    
  0.06182001240084314    0.050380195091229554    0.04478089219046976    0.04310341893390272    0.044781392878757    
  0.03820548529514934    0.04188558066945243    0.050381629462493346    0.06637015678483332    0.0936607260515258    
  0.1354760226302638    0.19008777781826294    0.24554839391796096    0.2818056413937184    0.28180314481946517    
  0.24552853756530815    0.19008281258089393    0.13549810519241687    0.09366052368056134    0.06635953038701407    
  0.050383959492578456    0.04188597210518864    0.03820583807304764    0.03820548529514934    0.036228454060152    
  0.0382054915296238    0.044781387260830884    0.05815923306845601    0.0822586236966613    0.12168254773777386    
  0.17825264372909788    0.2445681636738561    0.3010347723808854    0.32372366676637343    0.30106428927319456    
  0.2445759872810648    0.1782318326161753    0.12168278233538955    0.08227268116373346    0.05815669649380629    
  0.0447818167670285    0.03820536358870981    0.036228454060152    0.03479134911079869    0.036359356500675    
  0.04158786023410732    0.05213854098434098    0.07070118730738346    0.1001540447965931    0.1412346448081037    
  0.1883131634665653    0.227756274505306    0.2434491817517884    0.22777537662342337    0.18831760700259081    
  0.14121660549749873    0.10015909202455081    0.07070932116634475    0.05213775820592258    0.04158816498880811    
  0.036359183774843234    0.03479134911079869    0.03635917742265148    0.03635960831932447    0.04051022833524192    
  0.050353618624201346    0.06896125500360191    0.10055164841344459    0.14837265800941338    0.20951282442690622    
  0.2697145557046444    0.307513950817468    0.3074930793898831    0.26971139740001543    0.20953985934700903    
  0.14837216878595677    0.1005436134734286    0.0689656907193573    0.05035348699057254    0.04051159994469968    
  0.03635917742265148    0.04158815232577684    0.03903005340560441    0.04158779231763184    0.05035313128774614    
  0.06859491505291432    0.10176028464232531    0.15584864193786674    0.23063121999838854    0.3096439008399127    
  0.3651899674888299    0.3835564883382665    0.3651993015568739    0.30962007762382243    0.23063835993313925    
  0.15586511361286579    0.10175865073050763    0.06859647362737904    0.05035349747889689    0.04158815232577684    
  0.0521377645303469    0.04520389909748483    0.04520149298073628    0.05214007077368154    0.0689612868127045    
  0.10176054615020103    0.15895223216036672    0.24306698584252742    0.33186134949043755    0.381709436745476    
  0.3875595333792243    0.38758361785787226    0.3817327573109468    0.3318657925442156    0.2430477181464391    
  0.15896435403383227    0.10175865802474254    0.06896571717943004    0.0521377645303469    0.07070933190781167    
  0.056625866555469376    0.05258039503807465    0.05662504215267974    0.07070916810353614    0.1005426268007679    
  0.15586349402658206    0.24305084589757775    0.3371554360229394    0.3676367208142201    0.3221636957596864    
  0.29037943788731835    0.3221149667701528    0.36764103486516325    0.33718238618312973    0.24304766470716238    
  0.15586513197541602    0.10054362877600288    0.07070933190781167    0.10015909286480543    0.07557998448948527    
  0.06555593559879389    0.06555341573112776    0.0755835724763569    0.10015439342882365    0.1483771270801006    
  0.23062925843814905    0.331869348864212    0.36766023203919074    0.2843518152442536    0.19692400738776047    
  0.1969501484629722    0.2843604834000225    0.36764099175523873    0.33186573774907696    0.23063831149643593    
  0.1483721416029751    0.10015909286480543    0.14121661419988793    0.10376412159924892    0.08597635953437714    
  0.08090835535537459    0.08597615911368911    0.10376465735077012    0.1412176373507052    0.20954078029402312    
  0.3096214780567884    0.3817330513594157    0.32211604482180833    0.19695007508331366    0.1461603894992882    
  0.19695017478517893    0.3221149640076437    0.3817326607666248    0.3096200417813951    0.20953987412486308    
  0.14121661419988793    0.18831763132633356    0.13949414104131244    0.11418401839267821    0.1038098004093781    
  0.10381386289647862    0.11418136234557037    0.139501108392294    0.1883140753064441    0.26972413676277046    
  0.36519713847607804    0.3875639505098533    0.2903863685794669    0.19695010125017887    0.19692399907411445    
  0.2903795016768057    0.3875835755455221    0.36519934132200654    0.26971141095618906    0.18831763132633356    
  0.22777544196921967    0.1749092770422976    0.14599881083719565    0.1325182461590421    0.12881686573725054    
  0.132520020463624    0.14599985424411743    0.17491346353522497    0.22777944836697483    0.3074922718564632    