#     DFTpy    
  CRYSTAL 
    
  PRIMVEC    
  4.226858618116754    1.768361011592483e-05    -4.433606896551724e-13    
  -2.113413994601896    3.660575889153502    -8.674568965517243e-12    
  -7.290524137931035e-13    -1.6890676551724136e-11    6.949612329727808    
  PRIMCOORD    
  4    1    
  Si    1.0522276133818666e-05    2.440389647745659    3.9082801040208133    
  Si    2.113434101233771    1.2202039249880166    0.4334738878393507    
  Si    1.0522277721822617e-05    2.440389647744652    6.516138390567495    
  Si    2.1134341012406304    1.220203925015127    3.0413322770097215    
  BEGIN_BLOCK_DATAGRID_3D    
  3d_datagrid_density    
  BEGIN_DATAGRID_3D#0    
  19    19    31    
  0.0    0.0    0.0    
  4.226858618116754    1.768361011592483e-05    -4.433606896551724e-13    
  -2.113413994601896    3.660575889153502    -8.674568965517243e-12    
  -7.290524137931035e-13    -1.6890676551724136e-11    6.949612329727808    
  0.03038185323937911    0.03218127337022285    0.038308224451378686    0.05124653642817187    0.0756917280889412    
  0.11797671858154889    0.18206189209185797    0.26085030497805856    0.3304620733862695    0.35897473636633426    
  0.330462038287845    0.26085028916445885    0.18206186209818834    0.1179767340039269    0.07569171807475361    
  0.05124653839190727    0.03830822538910848    0.03218126756385734    0.03038185323937911    0.03218126515106851    
  0.03218185505438325    0.036152520146649776    0.045784496590864025    0.06491431841200017    0.09965125857291644    
  0.15644081348872735    0.23479132464427957    0.31760463763648517    0.3727266650161194    0.3727029248872351    
  0.3176213692030726    0.23482211760734464    0.15641432250583878    0.09964838970671698    0.0649218445161869    
  0.04578412464264932    0.03615266553236171    0.03218126515106851    0.03830821846096971    0.03615252392813901    
  0.03830734739841878    0.04578364699398695    0.06193444139785124    0.09281477692022633    0.1463010096403526    
  0.2267160359760924    0.321967981702424    0.39944561815461904    0.4286576815671707    0.3994543243080345    
  0.32191899899909127    0.22672613378916492    0.14633227191304818    0.0928110927202934    0.06192950009868702    
  0.0457841320518631    0.03830821846096971    0.051246547128660655    0.045784514383002434    0.04578365554214938    
  0.05124843445904054    0.06491371921112261    0.09281041430023912    0.14405269491075645    0.2258318989108211    
  0.32746726507859303    0.40957279848093975    0.44467172637558855    0.4446978794812919    0.4096059464968568    
  0.32747892005889717    0.2258190944539964    0.1440409755275306    0.09281109121215    0.06492185009176298    
  0.051246547128660655    0.07569173490087451    0.06491432705505151    0.06193443075687337    0.06491372815705684    
  0.07569926943940776    0.09964735373013126    0.14631521052949792    0.22582180580094716    0.329211033195414    
  0.4014253656299121    0.4023580690994722    0.3869912696123193    0.4022877517258484    0.40144509105610127    
  0.3292135045895277    0.22581908582427238    0.14633229255211763    0.09964838600490844    0.07569173490087451    
  0.11797672906420044    0.09965127506138485    0.09281474769699435    0.09281040915513027    0.09964734584142065    
  0.11797314995463301    0.156443128167734    0.22671106569221078    0.3274762840231375    0.40145833606473735    
  0.37247904302447116    0.30423406031577993    0.30429115901662274    0.3724694725676893    0.4014450692083685    
  0.3274789255756022    0.22672613774362121    0.1564142835520403    0.11797672906420044    0.18206187676830232    
  0.15644080293581927    0.14630096607584214    0.1440526526778003    0.14631518576914887    0.15644311058050803    
  0.1820397494310737    0.2348329784199203    0.32193705297899694    0.40960608774911517    0.4022882825666752    
  0.30429204221928435    0.2524119970731007    0.3042911624229306    0.4022877706610854    0.40960601025709803    
  0.3219190242520652    0.23482213690185966    0.18206187676830232    0.26085029868132936    0.23479135040015905    
  0.22671602537730356    0.22583188684376565    0.22582179506823202    0.22671107798554735    0.2348329644934618    
  0.2608415140359059    0.31762739188838685    0.399453411931026    0.44469545645932423    0.38698462338025874    
  0.3042920537874697    0.30423406148667176    0.3869913067882502    0.4446979172321121    0.3994543685814767    
  0.3176213946484326    0.26085029868132936    0.33046205308415305    0.31760468656674795    0.32196802597627444    
  0.32746717360141636    0.32921108048957526    0.3274762956330012    0.32193698396660003    0.3176274206391958    
  0.3304796714492521    0.3727108607120438    0.42868250708030026    0.44469534272736316    0.40228825027758514    
  0.37247907141090647    0.4023579879077411    0.4446716550664932    0.4286577599062985    0.37270286269348607    
  0.33046205308415305    0.35897473479980907    0.37272672407222335    0.3994455709133978    0.4095727687565174    
  0.40142531917548224    0.401458328478577    0.4096060616639179    0.39945336153292893    0.3727108829180566    
  0.3590082111471531    0.3727109091675634    0.3994533189384604    0.4096060363584753    0.40145833345867993    
  0.40142536552375857    0.4095727900087878    0.39944561194982814    0.3727266416720818    0.35897473479980907    
  0.3304620715350439    0.37270291661531624    0.42865769768887796    0.4446715644032721    0.40235800903426955    
  0.37247908742331215    0.40228830365267465    0.44469544484144063    0.4286823961616968    0.3727108288395668    
  0.3304797611771077    0.3176274530848466    0.3219369820847778    0.3274763276497654    0.3292111060788603    
  0.32746723979896614    0.3219680718366289    0.3176046964005257    0.3304620715350439    0.2608502969512283    
  0.31762139227658176    0.399454283988482    0.44469784787702993    0.38699133381087325    0.3042341642387752    
  0.3042920908392918    0.3869846704581841    0.4446954031372647    0.39945338984319595    0.317627468138121    
  0.2608414406458824    0.23483300131966675    0.22671106386047157    0.22582173577825615    0.22583188395036735    
  0.22671604053002503    0.23479131682295035    0.2608502969512283    0.18206186642120928    0.23482213269381147    
  0.3219189385452195    0.40960594671285194    0.4022877722115591    0.3042911583505216    0.2524120888429563    
  0.3042920434864217    0.40228836303344784    0.40960611514182693    0.321937016359647    0.2348329573742448    
  0.18203971386068551    0.15644311696896454    0.1463151893046319    0.14405267977785693    0.14630101250767455    
  0.15644079523631413    0.18206186642120928    0.11797672302478134    0.15641428164409146    0.2267261360225651    
  0.32747888247381296    0.40144506517999223    0.3724695329692271    0.3042911794595854    0.3042340439683027    
  0.37247900326974603    0.40145834314512896    0.3274763236733955    0.22671105389223792    0.15644310732072317    
  0.11797313949076622    0.09964733478667943    0.0928104295020096    0.0928147702052279    0.09965127653320371    
  0.11797672302478134    0.07569173375322773    0.09964838732955691    0.14633228041669186    0.2258190378714589    
  0.3292135304330645    0.40144505030116256    0.4022877896225572    0.38699122330800356    0.4023579475902443    
  0.4014253424913052    0.3292110878093985    0.22582180900166657    0.1463151952198761    0.0996473513084564    
  0.0756992605832803    0.06491372069191224    0.06193443250018607    0.06491431344786844    0.07569173375322773    
  0.05124653902324738    0.06492184787759812    0.09281108269067873    0.14404098254350084    0.22581909437090483    
  0.327478885858168    0.4096059842986845    0.4446979331268247    0.44467161262197064    0.4095728331490978    
  0.327467199789974    0.22583189401789686    0.14405267367336697    0.09281044541946869    0.06491372649762751    
  0.05124842431110201    0.04578364987518626    0.0457844977788968    0.05124653902324738    0.03830822413145345    
  0.045784129077413145    0.061929495039269894    0.09281107774714194    0.14633230484132945    0.22672611778652138    
  0.32191892797466637    0.3994543149523765    0.42865762848424943    0.3994456374421967    0.32196805049321997    
  0.22671604478653426    0.14630101527424083    0.09281475635098016    0.06193443336693297    0.04578364359171383    
  0.03830735338217183    0.036152517228619084    0.03830822413145345    0.03218126155694625    0.036152663971500375    
  0.0457841209239991    0.06492183051283361    0.09964838663639423    0.15641426377484774    0.23482215044331253    
  0.3176213749447194    0.3727028261881956    0.3727266675807682    0.31760468770113304    0.23479132971037828    
  0.1564407820952398    0.0996512852559379    0.06491429624185725    0.04578449782427272    0.036152516228193245    
  0.032181845410459584    0.03218126155694625    0.03038185323937911    0.03218127337022285    0.038308224451378686    
  0.05124653642817187    0.0756917280889412    0.11797671858154889    0.18206189209185797    0.26085030497805856    
  0.3304620733862695    0.35897473636633426    0.330462038287845    0.26085028916445885    0.18206186209818834    
  0.1179767340039269    0.07569171807475361    0.05124653839190727    0.03830822538910848    0.03218126756385734    
  0.03038185323937911    0.030126861716304392    0.03185572325593408    0.03774303488025126    0.050146897794599146    
  0.07344306853025699    0.1134422114875087    0.17364880809389235    0.24723422009907858    0.3119463731255245    
  0.33835848208520575    0.3119844403029399    0.24724140860089294    0.17360637875183627    0.11344946432710949    
  0.07345703212900925    0.05014471768718905    0.03774318833714231    0.03185538375358466    0.030126861716304392    
  0.031855377627138526    0.03185655255600128    0.03598004151256314    0.04602876232607004    0.06602999630911945    
  0.10233992011165713    0.16151908031334522    0.2427283122469708    0.3276060160053246    0.3831875948489268    
  0.3831426588690077    0.3275967635104734    0.24278921807106202    0.1615096527029488    0.10232218585116941    
  0.06603717718257746    0.04602794602452141    0.03598163272820151    0.031855377627138526    0.03774318676990834    
  0.03536296172120029    0.037742330656513536    0.046028576131806324    0.06399871482259202    0.09862675223691487    
  0.15890029548553244    0.24847969413559462    0.3501474053413067    0.4261542140908301    0.45237621636466924    
  0.426175892411776    0.35008350953519124    0.2484881870848367    0.15893542394110366    0.09862014381064496    
  0.06399995588288927    0.046027943497696136    0.03774318676990834    0.050144718893141496    0.043806622187330044    
  0.04380313978770171    0.05014863617814874    0.06602996900413005    0.09862515470298468    0.15900399962357986    
  0.2540120954933955    0.36137080782562386    0.4239326949758777    0.430322178302041    0.4303636447656704    
  0.423988179666993    0.3613815729383508    0.2539682807491977    0.1590201154438289    0.09862014430247994    
  0.06603719343453823    0.050144718893141496    0.07345704505534238    0.06040375754661695    0.05678197178253521    
  0.060403311108190465    0.07345873072734793    0.102321062049921    0.1589309073490265    0.25397895776060414    
  0.36284255570257273    0.3932964673220383    0.32576493648598503    0.2822750453023909    0.32566831439408017    
  0.39330011517009833    0.3628950711807006    0.25396828915131164    0.15893544451086372    0.10232219450149678    
  0.07345704505534238    0.11344946006619896    0.09021821049393618    0.08123148778787256    0.08122404055380705    
  0.09022487010766264    0.11344061393913127    0.16152699682497884    0.24846844295709558    0.3613913091059328    
  0.3933399585769739    0.27193434213258283    0.1608449886635104    0.16089093293133133    0.2719488583859411    
  0.3933000422536737    0.3613815501864716    0.24848816816027927    0.16150964253562236    0.11344946006619896    
  0.17360639877912326    0.1383969739271373    0.12294385152281623    0.11896986155312962    0.1229472447420053    
  0.13839875894932271    0.17360370754893978    0.24279320296949047    0.3500909029528404    0.42398890575275017    
  0.3256688851461352    0.16089119520414263    0.10322366946565735    0.1608909222767373    0.32566833567951436    
  0.42398821334864956    0.3500835026139283    0.2427892338015881    0.17360639877912326    0.24724139248695956    
  0.2042290689865603    0.18537272595445653    0.17921380791267089    0.17922269547478392    0.18536345404127433    
  0.20425089488535988    0.24723142846583576    0.3276216658075773    0.42616879407477537    0.4303289775902494    
  0.2822897279840312    0.1608911969445139    0.16084499729480398    0.28227503525062003    0.43036363579444736    
  0.4261758947722662    0.3275968322502344    0.24724139248695956    0.311984433632058    0.27367135137512805    
  0.2606453523067333    0.25855243421949275    0.25901532345823386    0.2585560641736641    0.26064388918099085    
  0.2736823913006337    0.3119932654589103    0.3831384321020287    0.4524427355061483    0.43032888233584055    
  0.3256689152996363    0.27193437158129774    0.32576488729393005    0.4303221007166708    0.4523762547051667    
  0.3831426434125904    0.311984433632058    0.3383584837251606    0.3200450901136184    0.3248436286828787    
  0.33517676732573704    0.34009030351326525    0.3401093025513956    0.33517601772481526    0.32486169504118434    
  0.32003793833700894    0.33839929377097894    0.3831384523224816    0.42616876458837916    0.42398885849610196    
  0.39333998555987776    0.3932965298612911    0.42393264574035283    0.4261542108975806    0.38318765357895723    
  0.3383584837251606    0.31194640133455703    0.32004127189720827    0.3502708888362272    0.3805106816356556    
  0.3898506366537289    0.38827012219366314    0.38983876765663544    0.3805177155776901    0.35028552764943593    
  0.3200378388785431    0.3119933617212287    0.3276217525366503    0.35009081841587525    0.3613913545864247    
  0.36284262063789496    0.3613708143922689    0.35014747677403796    0.3276060475885904    0.31194640133455703    
  0.24723422167354414    0.2737061167070004    0.3248467636571937    0.3805155019059608    0.4035490950675808    
  0.3951332448762858    0.39514621295990676    0.4035534944837318    0.3805176808317461    0.32486177349525386    
  0.2736824283105666    0.24723139034238745    0.24279318100509145    0.2484684395643252    0.2539789218669585    
  0.25401208801258285    0.24847967237980123    0.24272831020581612    0.24723422167354414    0.17364880672577956    
  0.2042375044957311    0.26060976891169313    0.3351807092400836    0.38983684824275466    0.3951457260899957    
  0.3859648928980238    0.3951461561074082    0.3898388207882776    0.33517608563692897    0.2606439076305143    
  0.20425087906373618    0.17360367663003679    0.16152699601140788    0.15893089661695053    0.15900399446754063    
  0.1589002988453123    0.16151907836589618    0.17364880672577956    0.11344219828568938    0.13835599474543184    
  0.18537227550132326    0.2585813689354936    0.3400995012986379    0.3882670524341379    0.39514578940949663    
  0.39513319500759186    0.38827005330584086    0.34010933771889    0.2585560875825455    0.18536339993659728    
  0.13839876000656373    0.11344058867359726    0.1023210417585609    0.09862516991581322    0.09862675740413117    
  0.10233993675349912    0.11344219828568938    0.07344307566554849    0.09022233908240446    0.12298289781377512    
  0.17921700772350593    0.2589902398113665    0.3400994656838629    0.3898368560525717    0.40354902457619973    
  0.3898505292054328    0.34009031218066266    0.2590153181166775    0.17922268643058437    0.12294725834183025    
  0.09022488113060291    0.07345871153289363    0.06602996575359231    0.06399871090554868    0.06602999418173576    
  0.07344307566554849    0.05014690044528529    0.06041728037562948    0.08122754432596062    0.11893589102549351    
  0.17921702955886773    0.2585814046516398    0.33518075656825813    0.38051556478016696    0.38051073472149066    
  0.33517682082920236    0.2585524805585445    0.1792138045024464    0.11896989207880262    0.08122404982500758    
  0.06040331003329093    0.0501486287460267    0.04602857833143686    0.04602876363071717    0.05014690044528529    
  0.03774302909546059    0.04380468235163242    0.05676924841702554    0.08122753626010468    0.1229828978180374    
  0.18537225312694044    0.2606097645141033    0.32484678978194775    0.3502707841712127    0.3248436548117636    
  0.26064533515020943    0.18537272885366912    0.12294387459048255    0.08123150064252073    0.05678197095468325    
  0.04380313403611711    0.0377423289094294    0.03598004605443574    0.03774302909546059    0.0318557163705491    
  0.035362877432780514    0.04380467242207615    0.060417261527727806    0.09022233919215711    0.13835599099969387    
  0.2042375094833154    0.2737060391623523    0.32004121271289404    0.32004504729306027    0.27367132436806674    
  0.20422908676189974    0.1383969641119218    0.09021822331320842    0.06040373752567053    0.0438066060108555    
  0.035362956641337026    0.03185654305518998    0.0318557163705491    0.030126861716304392    0.03185572325593408    
  0.03774303488025126    0.050146897794599146    0.07344306853025699    0.1134422114875087    0.17364880809389235    
  0.24723422009907858    0.3119463731255245    0.33835848208520575    0.3119844403029399    0.24724140860089294    
  0.17360637875183627    0.11344946432710949    0.07345703212900925    0.05014471768718905    0.03774318833714231    
  0.03185538375358466    0.030126861716304392    0.029406804943380563    0.03094889444988835    0.03618426509671473    
  0.04709698699576256    0.0672490075469305    0.10121304701136269    0.15140745664633198    0.21180437937568905    
  0.26422796697614703    0.2854256451970939    0.26427357380597044    0.2118149442616308    0.15136099477250237    
  0.10121921717804831    0.06726844532634253    0.04709351532521958    0.03618443601334895    0.030948577300140213    
  0.029406804943380563    0.030948570451195895    0.030949388782625504    0.03488097290897233    0.04443086398250342    
  0.06331157925317596    0.09722118890946704    0.15172918650702816    0.22537590167030006    0.30103918209474884    
  0.3497673215039127    0.34972128218298426    0.3010189807876489    0.22544016485146207    0.15172762320203825    
  0.09719747295507762    0.06331954657689284    0.044430652840747153    0.03488251947537675    0.030948570451195895    
  0.036184428135965695    0.033813575749701875    0.036183759639173196    0.04443123624078081    0.06228322352599408    
  0.09662035965818809    0.1560959891376387    0.24326223375670303    0.3391782500079823    0.4072361132270887    
  0.42948319999340795    0.40726302161762434    0.3391201004046112    0.24326344393202626    0.1561367970048431    
  0.09661270705163273    0.06228524692032116    0.044430650679799025    0.036184428135965695    0.04709351671495139    
  0.04063356369301291    0.04062811037232985    0.047099049179234194    0.0633109055110052    0.0966198509698083    
  0.1583617549226116    0.25465088969594907    0.35850311274495983    0.4082562496301717    0.4021278908422804    
  0.4021671274878777    0.40830877017197253    0.35852170602786854    0.2545939078243863    0.15838660994255838    
  0.09661270405706754    0.06331955562296505    0.04709351671495139    0.06726844579358113    0.05376629597792993    
  0.05003165113764958    0.05376628753733363    0.06726804163628672    0.09719778835802603    0.1561322415082115    
  0.2546114454009509    0.36185376488368937    0.37439424218805023    0.2865321818305402    0.2374326955685469    
  0.2864490766298964    0.37437757969920543    0.36193208271001776    0.2545939199336763    0.15613679703878106    
  0.09719748639319795    0.06726844579358113    0.10121921231721702    0.07688412456643157    0.06741362766969744    
  0.06740717268468929    0.07689090833767526    0.101210625482049    0.15173993172003067    0.24324426684117764    
  0.3585303599392065    0.374432394772147    0.23021374227577426    0.11829289072067294    0.11831723490748318    
  0.2302458741927589    0.374377525791737    0.35852169322752575    0.24326342560102773    0.1517276309231298    
  0.10121921231721702    0.15136100140852934    0.11340744057367828    0.09641002876956996    0.0918681687365218    
  0.09641102348044121    0.11340895775577255    0.15136112469685303    0.22544259372054382    0.3391220088707676    
  0.40831006193335057    0.2864488734185577    0.11831725885404987    0.06728614865569463    0.11831724303226758    
  0.286449111222085    0.4083088149693092    0.3391200882550353    0.2254401864422703    0.15136100140852934    
  0.21181495656771893    0.16221421628309673    0.13884666569397433    0.1302519112974322    0.13026190901556958    
  0.13883729737150696    0.16222989426393694    0.21180507673889107    0.3010452174261388    0.4072574993558033    
  0.4021128826335326    0.23746453280688284    0.11831727218435381    0.11829289773270256    0.23743268969952042    
  0.4021671599069393    0.40726306930350903    0.3010190498800036    0.21181495656771893    0.26427356518517225    
  0.21297360044877714    0.18945300277523658    0.1810769000395752    0.1795734645618892    0.18107938660398654    
  0.18945649580031002    0.21297702641564534    0.2642826733196606    0.3497050279848646    0.42957204993533515    
  0.4021127871598163    0.286448857669733    0.23021375763923693    0.2865321346637936    0.4021278946635923    
  0.42948327108282985    0.34972131478814605    0.26427356518517225    0.28542563746256494    0.24659737000760673    
  0.23291588896536394    0.23280909370098904    0.235834606163741    0.23584781872071278    0.2328001270310458    
  0.2329356657318165    0.24659007276448322    0.28546647559549515    0.34970502015323535    0.40725743852699453    
  0.4083101149208063    0.3744323818623187    0.3743941951748818    0.40825621522022476    0.4072361179390949    
  0.3497672992434187    0.28542563746256494    0.26422798707462997    0.24659898719160733    0.25033417774244704    
  0.2661598902354501    0.28082145735858904    0.28629231388508136    0.2808248091829878    0.2661605033221054    
  0.25034388014535697    0.24658999583696334    0.264282770273156    0.3010452425613134    0.3391219200969937    
  0.35853040108146084    0.3618538241819956    0.3585030927790515    0.33917830044336106    0.3010392057494883    
  0.26422798707462997    0.2118043917230815    0.21300766015118044    0.23291885789738592    0.2661575520152886    
  0.2978514758098109    0.31474468881437045    0.3147433600616189    0.2978576278093397    0.26616049691127563    
  0.23293568266476528    0.2129770250375445    0.21180504481986506    0.22544260011151482    0.24324428161944228    
  0.2546113992850712    0.25465083496982494    0.24326221301589349    0.22537585821544162    0.2118043917230815    
  0.15140744489135047    0.1622197755083453    0.18942160761234192    0.23280627202423843    0.2808233819372855    
  0.3147431461702359    0.3258792817682125    0.31474330356455527    0.2808248307431613    0.2328001395066875    
  0.1894565047117119    0.16222990129237438    0.1513611025693804    0.15173991227295822    0.15613225017850538    
  0.15836172246385885    0.15609594681493114    0.15172915820212776    0.15140744489135047    0.10121301555397148    
  0.11336684893226397    0.13884205564598187    0.18110744550062227    0.2358395893250537    0.2862908062700848    
  0.31474320727637284    0.314744672612926    0.2862922285515142    0.23584781488264736    0.18107939166251696    
  0.13883727487745107    0.11340895510136008    0.10121061657195358    0.0971977562092884    0.09661986674815905    
  0.0966203631292988    0.0972211868662156    0.10121301555397148    0.06724900939189082    0.07688740638875993    
  0.09644673529455915    0.13025678548306252    0.17954463761731834    0.2358395917761038    0.28082347383168854    
  0.29785147957317665    0.28082145354338917    0.23583460989806618    0.1795734566045384    0.13026189207666758    
  0.09641102753311395    0.07689091950745833    0.0672680313823785    0.06331089833490063    0.06228320520892029    
  0.06331158444469125    0.06724900939189082    0.0470969887264387    0.05378230880847427    0.067410487884844    
  0.09183277342286866    0.13025679725167677    0.18110745166719236    0.23280631468674443    0.266157617973733    
  0.2661599517232228    0.23280915659313212    0.18107695930374668    0.1302519063957083    0.09186816034592485    
  0.0674072017817016    0.05376628414438831    0.04709904407710204    0.04443123323534983    0.0444308617998636    
  0.0470969887264387    0.03618426097972108    0.040630498469044846    0.050015833589555206    0.0674104800725686    
  0.09644676074905098    0.13884207939124765    0.18942160147787093    0.2329188970083549    0.2503341065667764    
  0.23291591747384863    0.18945299464713264    0.13884666420023353    0.09641004042464874    0.06741364257225899    
  0.050031657414589835    0.04062810016983161    0.03618377237891057    0.03488097106382914    0.03618426097972108    
  0.03094888235902179    0.033813121756762564    0.040630490085544396    0.05378229642125232    0.07688738928854624    
  0.11336682495640507    0.16221976645933178    0.21300765962362467    0.2465989288581039    0.24659732835458195    
  0.21297358733730667    0.16221420715458149    0.11340744270025169    0.07688413312488603    0.05376627534192032    
  0.040633551499245    0.03381356848377124    0.030949380507657488    0.03094888235902179    0.029406804943380563    
  0.03094889444988835    0.03618426509671473    0.04709698699576256    0.0672490075469305    0.10121304701136269    
  0.15140745664633198    0.21180437937568905    0.26422796697614703    0.2854256451970939    0.26427357380597044    
  0.2118149442616308    0.15136099477250237    0.10121921717804831    0.06726844532634253    0.04709351532521958    
  0.03618443601334895    0.030948577300140213    0.029406804943380563    0.02839582357861309    0.029666767904547163    
  0.03396503114314702    0.04279510777682181    0.058738513099639414    0.08494079026355159    0.12266476977246811    
  0.16697784025474444    0.20477516092660608    0.2199166178143283    0.2048052505042207    0.16698292513141968    
  0.12263019222623153    0.08494802357940051    0.05875141215148186    0.04279335832427755    0.03396501999761421    
  0.029666769550450486    0.02839582357861309    0.02966676564570244    0.02966732629361995    0.033116474546682935    
  0.04140448492973535    0.05755015649925107    0.08598561603467572    0.13073166930413882    0.19005700649850485    
  0.250219009500306    0.2888241274574623    0.2887878203783052    0.25021423958138433    0.19010614270994064    
  0.13072803842281014    0.0859711440360985    0.05755547208086053    0.04140467612594528    0.03311770393455151    
  0.02966676564570244    0.033965007348733416    0.03181218306126968    0.033964731706933086    0.04140451063432662    
  0.057363923603183424    0.08766946236453865    0.13942439235571466    0.21469736227289066    0.29839759080832323    
  0.3602495416426804    0.38163089585537924    0.36026590789881413    0.2983443295709943    0.21470961510280095    
  0.1394496064487314    0.08766635166772872    0.05736518122284784    0.0414046753750746    0.033965007348733416    
  0.042793357261513384    0.03689790618975533    0.03689398151399304    0.04279690637686181    0.057549503227968576    
  0.087670703819357    0.1430811135795494    0.2300344810643371    0.3292660219633646    0.39045339547143615    
  0.40091336148049217    0.40095651973985824    0.3905050837274328    0.32927254139352385    0.22999718809369155    
  0.14309928690113724    0.0876663521204929    0.05755548453144446    0.042793357261513384    0.05875140897810801    
  0.046482734901605094    0.04307917991260952    0.04648233906293619    0.058751937177670285    0.08596855197123114    
  0.13945041643101022    0.23000021653913644    0.33824323233502546    0.3818989762880956    0.33288160424530583    
  0.2961926400796883    0.3327838230325049    0.3819121973091558    0.338287600854235    0.2299971949928579    
  0.13944962847297737    0.08597114885769816    0.05875140897810801    0.08494800474555729    0.06292651120642832    
  0.05434079734413681    0.05433581343110848    0.06293160357112756    0.08494128743376399    0.13073703439641202    
  0.21469309649862922    0.3292838224572764    0.38194150043858244    0.29053969282444764    0.18925970273762024    
  0.1893165062841399    0.2905459284971225    0.3819121218593918    0.32927250552463805    0.21470962222974008    
  0.13072802863329028    0.08494800474555729    0.12263017970102069    0.08820097057103475    0.07271796134745408    
  0.06850136688487844    0.07271845620356401    0.08820173741852547    0.1226303060418896    0.19010765345052535    
  0.298344704727068    0.3905055048260906    0.33278233919542627    0.1893162043173357    0.13215095632317572    
  0.18931651900090504    0.3327838262713556    0.3905051243678713    0.2983443497201329    0.19010617394590015    
  0.12263017970102069    0.16698292206796636    0.12100212990652988    0.09886320586321153    0.09038025023731833    
  0.0903871994553773    0.09885687584554818    0.12101257112812686    0.16697489339457486    0.25023445224683755    
  0.36025692012592514    0.40092836049022873    0.29619888922937193    0.18931621775416596    0.18925973069754554    
  0.2961926491525978    0.40095662092018125    0.36026596476856754    0.25021426589128315    0.16698292206796636    
  0.20480526698438714    0.1543419935773723    0.12926296883166696    0.11884228951518315    0.11633434727144136    
  0.11884396100508635    0.12926354319370026    0.1543477269316548    0.20480602248934654    0.2887864154413535    