#     DFTpy    
  CRYSTAL 
    
  PRIMVEC    
  6.723827572034457    5.363057479434483e-07    8.853937805517241e-07    
  5.36305875364138e-07    6.723829877782794    8.950772563331035e-07    
  8.853938937917241e-07    8.950772768848277e-07    6.7238294117291035    
  PRIMCOORD    
  16    1    
  Si    0.992169783879548    5.731659024941057    2.3697452576238733    
  Si    5.731658259856097    0.9921719185711851    4.354083190036292    
  Si    0.9921707946245883    0.9921710429185282    0.9921713920985343    
  Si    2.369748738130896    2.369749722237618    2.36974947464912    
  Si    5.7316566293929085    2.3697454229836903    0.9921702798519481    
  Si    0.9921695621492879    4.3540869682652    5.7316589725031015    
  Si    2.369744535693564    0.9921721219888703    5.731659513569674    
  Si    4.35408294538715    5.731660579425192    0.992170360637655    
  Si    4.354082605669605    2.369750117943777    5.731662645275278    
  Si    2.369746288944301    4.354081062197704    0.9921670982567683    
  Si    4.354080375674964    4.35408440682675    4.354083097943999    
  Si    5.7316584502977355    5.731661618170666    5.7316603632746395    
  Si    2.3697490017159724    5.7316646616834905    4.3540833354681325    
  Si    4.35407938057544    0.9921667299033438    2.3697471926417717    
  Si    5.731660854129706    4.354083792006481    2.369749634032751    
  Si    0.9921670199241193    2.3697480070914443    4.354081005908173    
  BEGIN_BLOCK_DATAGRID_3D    
  3d_datagrid_density    
  BEGIN_DATAGRID_3D#0    
  29    29    29    
  0.0    0.0    0.0    
  6.723827572034457    5.363057479434483e-07    8.853937805517241e-07    
  5.36305875364138e-07    6.723829877782794    8.950772563331035e-07    
  8.853938937917241e-07    8.950772768848277e-07    6.7238294117291035    
  0.09755691098883859    0.10046043582957755    0.10840433184515555    0.11937283923319894    0.13082324313533653    
  0.14047445040141374    0.14688048711692397    0.14914856418801653    0.14688058907045273    0.14047460686147323    
  0.13082359125231252    0.11937308616357749    0.10840468819530522    0.10046076854428988    0.09755735507016884    
  0.10046088575952267    0.10840490637462659    0.11937347900678749    0.13082397862592712    0.14047520118735501    
  0.146881024722361    0.14914904653967992    0.14688086974023712    0.14047491903245005    0.13082364345230685    
  0.11937313874804516    0.10840457028135306    0.10046056189402966    0.09755691098883859    0.1004604352968864    
  0.1155244868398675    0.13689782312840343    0.16210197010115623    0.18768908560198364    0.2098156933590451    
  0.224690580801341    0.22989347359233278    0.22469072446944463    0.2098159269052466    0.1876894736550319    
  0.16210233798113213    0.13689813998744282    0.11552494395366526    0.10046072022503337    0.09215347395105408    
  0.08949725880131201    0.09065712378004288    0.0934517361992874    0.09624223108418153    0.09819869702100513    
  0.09889768996474052    0.09819866954292035    0.09624204277771573    0.09345157075305419    0.09065685735392023    
  0.0894971051278967    0.09215313370728737    0.1004604352968864    0.10840431460502556    0.13511992994061023    
  0.17077259175519985    0.21249193918459947    0.2561450701524226    0.29603606869937493    0.32413851262018134    
  0.33413101139618906    0.324138795429685    0.29603636635097524    0.25614564782309024    0.21249237754152178    
  0.17077308274272263    0.1351202901982304    0.10840474062179199    0.09077520485036304    0.08067047977409882    
  0.07586535909313903    0.0740521032757792    0.07366525615676166    0.0737266006647828    0.07376661591643824    
  0.07372660895018086    0.07366523575056437    0.07405201064531834    0.0758652904018682    0.08067033050320879    
  0.09077503107941301    0.10840431460502556    0.11937279492046439    0.15480958626294286    0.20145309836376432    
  0.2559720136202468    0.3148441410127214    0.3722374019061927    0.4152891307488362    0.43112755017685617    
  0.41528934516507815    0.3722377694987272    0.31484468555912626    0.2559725988823042    0.2014535671615098    
  0.1548100881501328    0.11937308124904447    0.09541477119341543    0.08090219751012884    0.07309700807979981    
  0.06931615580499532    0.06773204365335725    0.0671751846190311    0.06702803037647391    0.06717520235606594    
  0.06773204670229462    0.06931621959518139    0.07309694338508885    0.08090220175758638    0.09541455786429635    
  0.11937279492046439    0.13082328581851088    0.16903160392520433    0.2190268733122759    0.2769038083029196    
  0.34060101537548576    0.40559303864131024    0.45629753667649914    0.4753217546897433    0.4562976911560512    
  0.4055932657270873    0.3406015823860664    0.276904301755388    0.21902748899765132    0.16903192575475945    
  0.1308236665600469    0.10509114467685678    0.08964906056284289    0.08163435695222096    0.07804634278058957    
  0.07671112841090169    0.07637037437800327    0.0763289917806531    0.0763703865231356    0.07671123971971433    
  0.07804638760623062    0.08163448475357185    0.08964902453686341    0.10509111538052976    0.13082328581851088    
  0.14047455499705935    0.173564885193529    0.21743485780348928    0.268254943168691    0.32418976949382683    
  0.3813118371427897    0.42579384103124446    0.44246779259021374    0.42579416258997893    0.3813121840484769    
  0.324190187915118    0.26825550674860194    0.21743527389009001    0.17356539311852184    0.14047473704394578    
  0.11898243146899018    0.10718326500290452    0.10248748964762029    0.10187720172505163    0.10300774140228562    
  0.10437480102156738    0.10493407554313444    0.1043748604539769    0.10300782046041984    0.1018774244337554    
  0.10248747263887178    0.10718329969829242    0.11898223414417732    0.14047455499705935    0.1468805264347481    
  0.16741193755966904    0.19700818847664148    0.23277000247654064    0.27200224383485855    0.31076058282779073    
  0.34011001444232025    0.3509789475537083    0.34011017879039207    0.31076074844120793    0.2720027959031011    
  0.23277037478375973    0.19700876416114418    0.16741230589976797    0.1468809789715796    0.1359511602126659    
  0.13341075928157223    0.1370784583239411    0.14399257764821044    0.15166142290737927    0.157662126430996    
  0.15988256783449425    0.1576622032139355    0.1516615455974095    0.14399259893281585    0.13707847497741563    
  0.13341062054714806    0.13595100935468754    0.1468805264347481    0.14914859402311673    0.15340906882690672    
  0.16561285516676277    0.18360824140749818    0.20435721342366672    0.22462564121264264    0.23976769893942912    
  0.24531648995618466    0.23976773182667405    0.22462585584178055    0.20435743640800838    0.18360873061325772    
  0.16561322884102592    0.15340969430186505    0.1491489905492967    0.15340963266189298    0.165613220756671    
  0.1836085305251152    0.20435735125212565    0.22462542763006513    0.23976739456985796    0.24531584166329207    
  0.23976739749820633    0.2246253454364352    0.20435721821138061    0.1836082041062352    0.16561300236141438    
  0.15340915954856388    0.14914859402311673    0.1468807066120361    0.13595098747319692    0.13341061489341177    
  0.13707848565639294    0.14399282840259475    0.15166171959682845    0.15766270606436897    0.15988292214417923    
  0.15766279450661833    0.15166182129383673    0.14399310665523846    0.13707872031196203    0.13341116749624948    
  0.1359515100540592    0.146881454922063    0.1674127601667506    0.19700928990942845    0.2327709069801208    
  0.2720030192716227    0.3107610836858695    0.3401100877132314    0.3509789692335048    0.3401098678373161    
  0.3107606310989517    0.2720023639785104    0.23277031458867142    0.19700849819716354    0.1674122085056919    
  0.1468807066120361    0.140474769542952    0.11898238298178204    0.10718331753542072    0.10248760397441059    
  0.10187740344759184    0.10300815725750706    0.10437501067245308    0.1049345059849101    0.10437511271215262    
  0.10300824175014422    0.1018775545302944    0.10248801688448483    0.10718370167130839    0.11898316083896522    
  0.1404754754935747    0.173566416851827    0.21743648534058316    0.26825671715724636    0.3241913706039751    
  0.3813133024405116    0.42579526075675667    0.44246870369482555    0.4257946708026966    0.3813121191103575    
  0.32419028833228636    0.26825539231634393    0.21743534358182123    0.17356528431706233    0.140474769542952    
  0.13082368128171448    0.10509118300608801    0.08964911473006935    0.08163445845121306    0.07804650765109958    
  0.07671124507451178    0.07637062860635263    0.07632909426515745    0.07637069252149221    0.0767113487194783    
  0.07804683362348952    0.08163472847604579    0.08964973654376465    0.10509186953291133    0.13082478844934056    
  0.16903329676083476    0.21902923512969466    0.2769063026060939    0.34060374308631447    0.40559578288571513    
  0.45630006898182596    0.47532384478322653    0.45629903320447374    0.40559432260037526    0.3406020406919865    
  0.2769046217091306    0.2190276099870455    0.16903210580116784    0.13082368128171448    0.11937311373866819    
  0.09541477109511876    0.08090218282089445    0.07309708318188521    0.06931611819851727    0.06773225281886384    
  0.06717518111061624    0.06702827485665477    0.06717529827463409    0.0677324261582054    0.06931643045747855    
  0.07309761039913937    0.08090274486653842    0.09541569437458217    0.11937421391801746    0.15481185730150498    
  0.20145556731772093    0.25597507372783895    0.31484744516327273    0.3722408408358855    0.41529258002396996    
  0.43113027368024426    0.41529146717005505    0.3722390004752578    0.31484556112798695    0.25597304230449036    
  0.20145388982844975    0.15481024618598202    0.11937311373866819    0.1084047717361401    0.09077515143771582    
  0.08067044581071964    0.07586516228582892    0.07405213095444865    0.07366516021943421    0.07372676956895431    
  0.07376655082195684    0.07372700730049639    0.07366549840178672    0.07405268984158005    0.07586585096272473    
  0.08067134774280768    0.0907760575582661    0.10840597211118895    0.13512174053437864    0.1707751967979445    
  0.2124947708308466    0.25614840539280503    0.2960393147624371    0.32414172333191804    0.33413367404406336    
  0.32414078039676497    0.2960377957075101    0.2561464116267971    0.2124929009477858    0.17077341010122687    
  0.13512036759988214    0.1084047717361401    0.1004606465421569    0.09215337485047725    0.0894970094557043    
  0.09065695985874468    0.09345134447088137    0.09624220014026653    0.09819854861123309    0.09889810039736566    
  0.09819893886036796    0.09624289822477047    0.09345225741505654    0.09065803662165102    0.0894980602682128    
  0.0921545607591681    0.1004618216026271    0.11552638343471248    0.13689981973502258    0.16210439964262333    
  0.18769160725260428    0.20981825515658367    0.22469295834904968    0.2298954341789986    0.22469231271453663    
  0.20981694881138874    0.18769023684526664    0.16210270956740488    0.13689848477011118    0.11552498506007122    
  0.1004606465421569    0.09755722049483324    0.10046059799557609    0.10840466990236926    0.11937298192580537    
  0.13082364311180414    0.14047471400053035    0.1468810958606209    0.1491492186898129    0.14688185162326425    
  0.14047581984098112    0.13082517812820293    0.11937454258968587    0.10840619173557081    0.10046194734440311    
  0.09755856918982872    0.10046182709635812    0.10840601291598788    0.11937441816545123    0.13082504893122052    
  0.14047602204863427    0.14688198726744967    0.14914972308435193    0.14688156039395983    0.14047533530412976    
  0.13082401982159775    0.11937335009514469    0.10840484791213505    0.10046074127031934    0.09755722049483324    
  0.10046064816071609    0.11552489661905616    0.13689809770332736    0.162102442933447    0.1876893934379318    
  0.20981630423933334    0.2246912665653358    0.2298947869694255    0.2246923098948282    0.20981810634022044    
  0.18769159290678317    0.16210465729001125    0.136900019976761    0.11552658097959566    0.10046192363012288    
  0.0921545504774466    0.08949802330416519    0.09065786818259422    0.09345230217182741    0.09624286558201184    
  0.09819912792213263    0.09889818233141538    0.09819892097992383    0.09624237480997883    0.09345171180306837    
  0.09065710831952753    0.08949723222425557    0.09215340489615743    0.10046064816071609    0.10840476332740108    
  0.13512029719293286    0.17077316193035358    0.2124923203946417    0.2561456466385133    0.2960365468436054    
  0.32413953615688923    0.33413233825123057    0.3241410389948959    0.2960388532058405    0.25614858912696753    
  0.21249500836067778    0.17077554611209128    0.1351220153832429    0.10840619562401117    0.09077609829119428    
  0.08067127085955587    0.07586581937500318    0.07405257773449618    0.07366558380544418    0.07372693274999294    
  0.07376678420895405    0.07372681717146162    0.0736653205155095    0.07405216362929554    0.07586535248241885    
  0.08067051798639532    0.09077524801981855    0.10840476332740108    0.11937317239382636    0.15481017270077604    
  0.2014535460240042    0.25597254833957206    0.31484449013838983    0.3722378885170302    0.4152896751909946    
  0.4311288232788472    0.41529118197239834    0.37224033267783263    0.31484724105571527    0.25597548871138565    
  0.2014559587661378    0.15481210830839373    0.11937444138711897    0.09541579927965005    0.08090279145468253    
  0.07309755116174686    0.06931644604810444    0.0677323809153072    0.06717536318053147    0.0670282132871422    
  0.06717523698010291    0.06773216121988672    0.069316211571499    0.07309705290424826    0.08090232624847322    
  0.09541487420480411    0.11937317239382636    0.130823766882716    0.1690320297034242    0.21902744156404524    
  0.2769040708450128    0.34060119644807607    0.4055929210219047    0.45629749156732347    0.4753220628404045    
  0.45629890504252146    0.40559484868532153    0.3406037464948634    0.276906488806634    0.2190297337628714    
  0.16903370816953323    0.1308250697967459    0.1050920567267718    0.08964974088249347    0.08163479113665183    
  0.07804669545800043    0.0767113959755941    0.07637061080204516    0.07632910929260597    0.07637045279817523    
  0.07671126018028639    0.07804640044322628    0.08163449324483817    0.08964918622215763    0.1050913386645881    
  0.130823766882716    0.14047493212329587    0.17356533179532127    0.2174352253351426    0.2682551063360268    
  0.3241895431420724    0.38131126090068707    0.4257930673502698    0.4424672204275392    0.42579406674214376    
  0.3813128762802353    0.3241913503801138    0.26825715867959216    0.21743698188905128    0.1735668994219592    
  0.1404758821497031    0.11898335818664074    0.10718388561984625    0.10248797130106695    0.1018776162953179    
  0.10300806196292467    0.10437501381959814    0.10493421433644107    0.10437494531449858    0.10300782718102361    
  0.10187736715027586    0.10248747758052631    0.10718344869875113    0.11898252261412333    0.14047493212329587    
  0.14688084768286275    0.16741230760068032    0.1970085308910002    0.23277006551090165    0.27200194126546146    
  0.31075984496319214    0.34010897287920455    0.35097791988965665    0.3401096378550319    0.3107606854150659    
  0.27200322663553717    0.2327712819233277    0.19700976916845195    0.16741325592879652    0.14688181373858522    
  0.13595182529549543    0.13341129309630964    0.1370788932905967    0.14399294026254914    0.1516618018573535    
  0.15766246664819267    0.159882715567487    0.1576622678996524    0.15166151338526754    0.14399258185896424    
  0.13707842857168312    0.1334106872641672    0.13595116847331223    0.14688084768286275    0.14914880800166747    
  0.1534092711059586    0.1656130809987166    0.18360816691427528    0.20435687737724437    0.22462500174083766    
  0.23976676599044172    0.24531544524161533    0.239766998641024    0.22462546744414605    0.20435738482710292    
  0.18360892299241474    0.16561368488233014    0.1534101150265608    0.14914943959764468    0.15341001716879044    
  0.1656136451837964    0.18360879638241034    0.2043576700010483    0.22462567483247114    0.2397676139103372    
  0.24531595266730963    0.23976728989282875    0.22462511865748616    0.20435704162329982    0.183608044030624    
  0.165613000037665    0.15340922503112256    0.14914880800166747    0.14688068967898535    0.13595115621162068    
  0.13341068910971998    0.13707855951293585    0.1439925420421459    0.1516613336991509    0.15766209955983693    
  0.1598822692630196    0.15766210083800455    0.15166133642672855    0.14399276768431968    0.13707866036282776    
  0.13341115147561278    0.13595157064057678    0.14688142962253492    0.1674128258021951    0.1970092255805888    
  0.23277085847203263    0.2720029251923666    0.31076098994749995    0.3401099198366458    0.3509787102399643    
  0.3401094301971091    0.3107602710318383    0.2720019249641279    0.2327700562044024    0.19700819817245846    
  0.16741214583357972    0.14688068967898535    0.1404747535483648    0.11898238447172954    0.10718338037505615    
  0.1024875666831671    0.10187732062273538    0.10300788962536463    0.10437476398727971    0.10493399727985987    
  0.10437471517294643    0.10300784271366376    0.10187734682785705    0.10248770585031755    0.10718353918780768    
  0.11898287510553314    0.14047532028200171    0.17356599661410466    0.2174359891053798    0.2682560875996442    
  0.32419080146849144    0.38131242827039946    0.42579448481765203    0.442467617961801    0.4257938736505678    
  0.38131130061437857    0.32418978432824563    0.26825483547471046    0.21743509792285606    0.17356505157585322    
  0.1404747535483648    0.13082347446887022    0.10509119552362516    0.0896490246490001    0.08163449031970912    
  0.07804639987311951    0.07671117998541893    0.0763704123142541    0.07632887697387795    0.07637036252174625    
  0.07671103725840595    0.07804640640140434    0.08163451495998433    0.08964932195299624    0.10509144549991387    
  0.13082409078451268    0.16903263080878328    0.21902826617570878    0.27690524734313304    0.34060229854533564    
  0.40559431739650825    0.456298363012961    0.4753224008733671    0.45629752352567154    0.40559323524779406    
  0.3406011228980915    0.27690414835978266    0.219027044862356    0.16903192750830082    0.13082347446887022    
  0.11937299559356229    0.09541460073258565    0.08090222781279362    0.07309698753562115    0.06931614002907045    
  0.06773210243475214    0.06717507525225187    0.06702799923107822    0.06717507449186447    0.06773200712564961    
  0.06931610067112501    0.07309706526778924    0.08090230333186778    0.09541498977980387    0.11937352229346673    
  0.15481076067553307    0.20145438672486093    0.25597348911613943    0.3148458854216436    0.3722387119859055    
  0.4152907138927968    0.431128189823107    0.4152899789635557    0.3722377197572649    0.3148447288534331    
  0.25597231701972045    0.20145352114110945    0.1548098431291616    0.11937299559356229    0.1084044498578384    
  0.09077508943054866    0.08067029687091869    0.07586519236936133    0.07405198085377494    0.07366514143244328    
  0.07372650380684961    0.07376642296664646    0.0737265739363758    0.07366506297146137    0.07405202369471066    
  0.0758652573523686    0.08067055235063954    0.09077535260658122    0.10840503445679642    0.13512078087231338    
  0.170773846035946    0.21249333667571058    0.2561465560143092    0.2960376055043533    0.32413967863978344    
  0.33413204860007156    0.32413923927131033    0.2960368543858632    0.25614553955778846    0.21249241392161292    
  0.17077292276600048    0.13512019625356622    0.1084044498578384    0.10046050798884734    0.09215312603872781    
  0.08949694052060972    0.0906567359538598    0.09345129965813898    0.0962419305263993    0.09819835044335481    
  0.09889755188065975    0.09819834500014692    0.09624197955320403    0.09345140682739812    0.09065693524928248    
  0.08949712558780201    0.09215349959008667    0.1004609156873602    0.11552521875323699    0.1368987445342987    
  0.16210295349728177    0.18769031013150717    0.20981664636750555    0.2246915918847334    0.22989411407115506    
  0.2246913818587031    0.2098161257225584    0.18768971177638313    0.16210217745428576    0.13689825554939788    
  0.11552465002320059    0.10046050798884734    0.09755691098883859    0.10046043582957755    0.10840433184515555    
  0.11937283923319894    0.13082324313533653    0.14047445040141374    0.14688048711692397    0.14914856418801653    
  0.14688058907045273    0.14047460686147323    0.13082359125231252    0.11937308616357749    0.10840468819530522    
  0.10046076854428988    0.09755735507016884    0.10046088575952267    0.10840490637462659    0.11937347900678749    
  0.13082397862592712    0.14047520118735501    0.146881024722361    0.14914904653967992    0.14688086974023712    
  0.14047491903245005    0.13082364345230685    0.11937313874804516    0.10840457028135306    0.10046056189402966    
  0.09755691098883859    0.10046047655185857    0.1155244706038481    0.1351198777361337    0.1548096688276238    
  0.16903158214236755    0.17356484329293137    0.1674119038636419    0.15340914624035437    0.13595095490785786    
  0.11898238375741645    0.10509116515248079    0.09541487480683618    0.09077518720650252    0.09215356204980542    
  0.10046087249575496    0.11552524259953127    0.13512070666780285    0.1548106145945164    0.169032544888712    
  0.17356559905691946    0.16741252028064535    0.15340932937378865    0.13595126013132092    0.1189823401430906    
  0.10509133067228404    0.09541467663548436    0.09077515966903305    0.09215312673914819    0.10046047655185857    
  0.11552449074292818    0.14592668121264965    0.18338118636071532    0.22062551471805586    0.24921589183329754    
  0.26284478918602106    0.25753124377366    0.2350337394961881    0.2034660282201444    0.17104244043078526    
  0.14252146287805217    0.12009206261017731    0.10430677776528344    0.09499617630516928    0.09215353289199661    
  0.09499629720016041    0.10161031543149682    0.10904022652659856    0.11402862374593621    0.11451829539393142    
  0.11010626529482966    0.10239142539862031    0.09367388034293744    0.08606087111872134    0.08109527533879249    
  0.07977306672881326    0.0837060487681252    0.09499593130097524    0.11552449074292818    0.1368979388053271    
  0.18338127804607865    0.23845852756964325    0.29079460981610217    0.33328059495747514    0.36287577204473737    
  0.3675739070524023    0.3391730385939713    0.28962186165153625    0.23613961511616646    0.18823522370858384    
  0.1497885907566108    0.12134641674242443    0.10161017643640224    0.08949719919570741    0.08370626463334191    
  0.08235210623692021    0.0830745375369036    0.083675245883235    0.08298988869787557    0.08049794257907457    
  0.07677208574989265    0.07305571818668868    0.0705937359240754    0.07058583299014595    0.07442632369288872    
  0.08455227498379264    0.104306474014839    0.1368979388053271    0.16210183346621945    0.22062543970644172    
  0.2849070961974042    0.33883540702801435    0.385034427535167    0.43270396618351126    0.4588454891334237    
  0.4338319050719795    0.36936224200324386    0.2952926386624936    0.22895244413451152    0.1760573076659536    
  0.13683944671423295    0.1090399369128926    0.09065703544256419    0.07977307149518746    0.07432574504435226    
  0.07224304492714897    0.07163449721154089    0.07136661912499655    0.07082818621582145    0.07006947599984155    
  0.06959541161001392    0.07016784984806705    0.07299355844051007    0.07996365734510068    0.09420817720187728    
  0.12009186442684718    0.16210183346621945    0.1876891787028829    0.24921590407929103    0.31226896293778394    
  0.35850887577070506    0.399656284360385    0.45486767415693574    0.495370663126704    0.4762765797706495    
  0.40631501533229675    0.3225644906360026    0.24758724757820152    0.18847244413277037    0.14492101827753148    
  0.11402845456691771    0.09345151498538368    0.08109537527858793    0.07486526289911785    0.07289975363628737    
  0.07338016361291785    0.07514220532610635    0.07751121031047661    0.08009444111444246    0.08274743353397285    
  0.08577552115523279    0.09031665331144727    0.09862000830768895    0.11438992896368488    0.14252111668925507    
  0.1876891787028829    0.20981566406677604    0.2628447161686435    0.3174801402661166    0.3579979901074394    
  0.3934629683578106    0.43875756295957175    0.46865753086407363    0.44630187195606924    0.3807703257302048    
  0.3041274907591712    0.2356894346504038    0.18190402845179113    0.1424434472261056    0.11451810512116246    
  0.09624219087479452    0.08606083564108195    0.0822763111880981    0.08325419609849607    0.08749872286929569    
  0.09409836747729011    0.10200938452858074    0.11001987366273608    0.11710985812092117    0.12277670858945917    
  0.12779048362079262    0.1345791131241754    0.14732921440254695    0.17104225733404224    0.20981566406677604    
  0.22469066152826303    0.25753122764285263    0.2951409236866024    0.3275551763983007    0.35456364224706455    
  0.3788513946653278    0.38573744212264993    0.35890379965619357    0.30722758527220084    0.25014707243825185    
  0.1993622563141474    0.15937719528661323    0.1301743550296409    0.1101063351003229    0.09819856455639664    
  0.09367404975180964    0.0955905872658197    0.10286127334126816    0.11471150091663919    0.13070009190069426    
  0.14901933811187748    0.16675151674335714    0.18073380624873278    0.18865423668545322    0.19119313177969685    
  0.191307961681103    0.19364503174692702    0.2034658956185576    0.22469066152826303    0.22989343547248764    
  0.2350336412297394    0.2480487538850252    0.2634747217333765    0.27632730336901884    0.28262078998073675    
  0.27637188863640316    0.2538936709002106    0.220672673141695    0.18545852933603005    0.1542633122143779    
  0.12999932582100857    0.11280266424739252    0.10239139415319204    0.09889791877147856    0.1023914687022536    
  0.11280271861083524    0.12999943251515067    0.15426338247089305    0.18545862131157445    0.22067257721505656    
  0.25389371322339344    0.27637157033119997    0.28262080279294954    0.2763271470656132    0.26347476121840735    
  0.2480488484513699    0.23503377611751788    0.22989343547248764    0.2246908209216552    0.2034660365154353    
  0.1936449933261808    0.1913082474631321    0.19119310087801394    0.18865460610830778    0.18073394438153115    
  0.16675186744256884    0.14901946928321633    0.13070036575489502    0.11471156308706053    0.10286145090637654    
  0.09559066007715106    0.09367426378058635    0.09819880697182908    0.11010668215165928    0.1301747934196088    
  0.15937771192876454    0.19936275931225642    0.25014750290191734    0.30722804296210676    0.3589040467198733    
  0.3857377395776698    0.37885128167966303    0.3545638660841764    0.3275552395739356    0.29514134693722305    
  0.2575315312550446    0.2246908209216552    0.20981602648559505    0.17104240005400073    0.14732937059507886    
  0.13457911527705277    0.12779070382316382    0.12277681125091809    0.11711011938934647    0.11001993475190193    
  0.1020097081572004    0.09409841927656648    0.08749904389089964    0.08325430349965583    0.08227659837089107    
  0.0860610817121954    0.09624266333113758    0.1145186939108299    0.1424442297787334    0.18190498359223556    
  0.23569046375798353    0.3041287718387109    0.38077153499416955    0.44630306476294174    0.4686581656847691    
  0.43875769343054977    0.39346290563109027    0.35799815751894287    0.3174806917654554    0.26284513076720306    
  0.20981602648559505    0.18768951316047142    0.14252139510366038    0.1143898397770241    0.09862022594488493    
  0.0903166313212033    0.08577574893023036    0.08274746303051816    0.08009471628274335    0.07751124020516577    
  0.07514252011319668    0.07338028139424621    0.07290018182629938    0.07486555286380897    0.08109591625185635    
  0.09345205249176773    0.11402931212747588    0.1449220842651808    0.18847391041624517    0.24758893811164087    
  0.32256651435432326    0.4063173874999525    0.47627861530705623    0.49537199603456483    0.4548681628527805    
  0.39965652093267673    0.3585092169024124    0.3122696233981005    0.24921667109437018    0.18768951316047142    
  0.1621023612007091    0.12009198881544676    0.09420834742502779    0.07996366892678637    0.07299368260151584    
  0.07016784568176    0.06959562774216566    0.07006953796530031    0.07082853064675905    0.07136675369612888    
  0.0716349763151251    0.07224332528175509    0.07432628920954291    0.07977354904652842    0.09065786102534976    
  0.1090408838462936    0.13684082488904506    0.1760588940099499    0.2289545009757768    0.29529508029767315    
  0.36936499219783175    0.4338344813381125    0.4588475592524253    0.432705094142237    0.38503523351250024    
  0.33883611425607485    0.28490805587389156    0.22062609708951733    0.1621023612007091    0.13689824002363815    
  0.10430681209093652    0.08455219502423265    0.0744264502733951    0.0705857837575649    0.07059395046900953    
  0.07305572982423471    0.07677244234775454    0.0804981896427329    0.08299046803533149    0.08367571021944166    
  0.08307527075832853    0.08235270940522244    0.0837071181299332    0.08949798699241467    0.10161126908235969    