#     DFTpy    
  CRYSTAL 
    
  PRIMVEC    
  4.384381299537254    1.8342626641984137e-05    -4.59883448275862e-13    
  -2.19217476458706    3.796994866389036    -8.997844827586206e-12    
  -7.562220689655172e-13    -1.7520142758620687e-11    7.208604093568595    
  PRIMCOORD    
  4    1    
  Si    1.0914410648284973e-05    2.531335845798292    4.053930294232768    
  Si    2.1921956205344086    1.2656773631863276    0.4496281942184569    
  Si    1.0914412295469196e-05    2.5313358457972472    6.758975846116592    
  Si    2.1921956205415234    1.2656773632144485    3.1546738525504563    
  BEGIN_BLOCK_DATAGRID_3D    
  3d_datagrid_density    
  BEGIN_DATAGRID_3D#0    
  19    19    31    
  0.0    0.0    0.0    
  4.384381299537254    1.8342626641984137e-05    -4.59883448275862e-13    
  -2.19217476458706    3.796994866389036    -8.997844827586206e-12    
  -7.562220689655172e-13    -1.7520142758620687e-11    7.208604093568595    
  0.024451083222686732    0.02582157871418901    0.030548916222715    0.04070585955810434    0.06032033372716107    
  0.09523381735490839    0.14944936184278296    0.21774616821562337    0.27909506945018137    0.30417464307840525    
  0.2790950732718197    0.2177461636117484    0.14944935592222497    0.09523384080976853    0.06032032007560584    
  0.04070587445880551    0.030548915740493437    0.025821573104834784    0.024451083222686732    0.025821572277238282    
  0.025820380942688844    0.0288774461362262    0.03642095007883849    0.05176648038538952    0.08051340146719406    
  0.1289239040132637    0.19740759207963313    0.27182844381547233    0.3222718352641419    0.3222418645335606    
  0.2718518985992459    0.19744585025167305    0.1288886872014119    0.08051261807783967    0.05177301992612886    
  0.036420667613073825    0.02887717920222682    0.025821572277238282    0.030548912782645488    0.02887744963429561    
  0.03054995430575828    0.03641908984335633    0.049477631037909225    0.07544858071143419    0.12233880138514505    
  0.19560564219485332    0.2860014391039814    0.3629303923714858    0.3928860538006307    0.3629368174058619    
  0.28593589550855647    0.19562279830760848    0.12237395283359663    0.0754453806313054    0.04947241920392044    
  0.03642064966690876    0.030548912782645488    0.04070586204701948    0.03642095299367792    0.036419089982330594    
  0.04070736547595946    0.05176492306993763    0.07544512573130262    0.12124559684775389    0.19874535568601448    
  0.30211326033428515    0.3936155022131295    0.437652323206386    0.4376967692977117    0.3936685750240877    
  0.30212124333283297    0.1987332221659343    0.12122841714132651    0.07544539028726689    0.05177301042013247    
  0.04070586204701948    0.06032031747627468    0.051766479452150876    0.04947762406647382    0.05176492003111569    
  0.06033002678803202    0.08051071866826691    0.12235115266975734    0.19873438572944188    0.3082924073233042    
  0.3997443140606838    0.41832228966373236    0.4081473090908839    0.41820866251934113    0.39978137003638653    
  0.3082918385777879    0.1987332862384287    0.12237399523333797    0.08051262733956575    0.06032031747627468    
  0.09523382801433104    0.0805133919233274    0.07544857141056108    0.07544511231167643    0.08051071178754414    
  0.09522606543049744    0.1289261533331214    0.19560316649806336    0.30212262445578386    0.39978972376397476    
  0.3947246221282886    0.3319708955626681    0.3320689923988148    0.39470317535229243    0.39978134905104723    
  0.30212124167487286    0.19562281151196256    0.12888869216760415    0.09523382801433104    0.14944935099373866    
  0.1289239035193633    0.12233875543648222    0.12124554881020443    0.12235115581017163    0.12892613241778786    
  0.1494226019759953    0.19745866425051162    0.2859505764946004    0.3936670277323874    0.4182126895183855    
  0.3320693137157765    0.27898401806250295    0.3320690142369971    0.41820864819201825    0.3936686418160286    
  0.28593586638061763    0.19744583711883484    0.14944935099373866    0.21774616179531933    0.19740757561485664    
  0.19560562140425988    0.19874531098990442    0.19873437892629614    0.19560316075825834    0.19745865757594502    
  0.2177267002012811    0.27186119899142885    0.36293474331717696    0.43769339666006757    0.40812449861584366    
  0.33206931316817195    0.3319709447464835    0.40814733999552893    0.437696847051163    0.36293688566888066    
  0.2718519584229835    0.21774616179531933    0.27909506739927664    0.2718284343937691    0.2860014425178177    
  0.30211322978846633    0.30829238886851024    0.30212260193867213    0.2859505489831882    0.2718612111833249    
  0.2791116755336451    0.3222505145414425    0.3929067472854091    0.43769341470839507    0.4182127106996579    
  0.39472468041369285    0.41832230164797224    0.4376523989401936    0.3928861051039628    0.32224188473183496    
  0.27909506739927664    0.30417464231817903    0.3222718228795605    0.3629304078068443    0.39361544250443126    
  0.3997443254180205    0.39978972920569894    0.39366700122926246    0.36293476891980064    0.3222505133470607    
  0.3042080530978646    0.3222505024696416    0.362934744796614    0.3936670072315055    0.39978976227729185    
  0.39974430898770186    0.3936155169118266    0.36293043154744103    0.3222718014915929    0.30417464231817903    
  0.27909506446923704    0.32224189848880724    0.39288604296827895    0.4376523697916499    0.41832229986573344    
  0.39472468556557105    0.41821273583245494    0.4376934284788878    0.392906720507103    0.3222505358718448    
  0.27911166167161616    0.271861159969988    0.28595055834040506    0.30212262576431675    0.30829239470837405    
  0.3021132629282601    0.28600147878375576    0.2718284451224136    0.27909506446923704    0.2177461636430421    
  0.2718519533318872    0.36293683088729217    0.43769677803448986    0.4081473546453289    0.33197095407768346    
  0.33206939162749266    0.40812458714428246    0.4376933763002951    0.362934769865281    0.2718611977595795    
  0.21772669256064753    0.19745867701404515    0.1956031673271937    0.19873437018935822    0.1987453163441532    
  0.19560563915065032    0.19740757564186812    0.2177461636430421    0.14944935721802732    0.19744584366441328    
  0.2859358366458797    0.39366856410806467    0.41820867368493037    0.33206902056332344    0.278984071967796    
  0.33206936184487656    0.418212721512623    0.39366701747070104    0.28595053428299594    0.19745867591308366    
  0.1494225754127225    0.1289261501330218    0.12235112640083441    0.12124558477219827    0.12233879198373278    
  0.12892388659613035    0.14944935721802732    0.09523382201837582    0.1288886949469887    0.1956227711675959    
  0.3021212381458977    0.39978133619445727    0.3947031593339517    0.33206900537707745    0.33197096129453063    
  0.3947246607519314    0.39978973997806444    0.302122608808079    0.19560313391464487    0.128926138685893    
  0.09522608101598339    0.08051069533356825    0.07544513280703052    0.07544859718339877    0.0805133869237085    
  0.09523382201837582    0.06032032146276352    0.0805126400111364    0.12237397247866919    0.19873322973369784    
  0.3082918704075475    0.3997813348609766    0.4182086524420661    0.4081473630138278    0.4183223069496886    
  0.3997442808755772    0.30829239015724397    0.19873439167261017    0.12235115284264247    0.08051071262555516    
  0.06033002041664501    0.05176492348554212    0.04947763965674188    0.05176645968272405    0.06032032146276352    
  0.04070585815509268    0.0517730180895383    0.07544538185790316    0.12122839468247382    0.198733256701724    
  0.30212122435038197    0.39366858508015634    0.43769679523958854    0.4376523578585834    0.3936154915571916    
  0.3021132425083212    0.19874533605286304    0.12124557361816835    0.07544513448811205    0.051764910764094084    
  0.04070738592963927    0.03641909628445842    0.03642095574567825    0.04070585815509268    0.03054891577803521    
  0.036420669107819964    0.04947240790787889    0.07544538252156564    0.12237396294594506    0.19562278539502165    
  0.285935868384854    0.3629368262385105    0.3928860513156071    0.3629303871095241    0.2860014390588527    
  0.19560562863926784    0.12233878476820553    0.07544858634316758    0.049477620876382786    0.03641910092142863    
  0.030549962499517018    0.028877441357920884    0.03054891577803521    0.02582157053232414    0.02887718060383021    
  0.03642065173990593    0.05177301735949588    0.08051262549288699    0.12888869556520677    0.1974458447430862    
  0.2718519318739378    0.32224188098362794    0.32227179487555085    0.27182838692271133    0.19740757571763132    
  0.12892389676024385    0.08051339077372156    0.05176646888799713    0.03642095426370288    0.02887745482509147    
  0.025820372197255182    0.02582157053232414    0.024451083222686732    0.02582157871418901    0.030548916222715    
  0.04070585955810434    0.06032033372716107    0.09523381735490839    0.14944936184278296    0.21774616821562337    
  0.27909506945018137    0.30417464307840525    0.2790950732718197    0.2177461636117484    0.14944935592222497    
  0.09523384080976853    0.06032032007560584    0.04070587445880551    0.030548915740493437    0.025821573104834784    
  0.024451083222686732    0.024266565270824478    0.02557613863099763    0.03011591087949432    0.03985561437594873    
  0.05855777905695871    0.09159643148237577    0.14260432120436017    0.20647860686047714    0.2636079541168281    
  0.286938919214798    0.2636640661211661    0.2064852796988594    0.14253949625217038    0.091609742917993    
  0.05857520876269695    0.039853281909955185    0.030115780728443644    0.025576169605028044    0.024266565270824478    
  0.025576169502548738    0.02557730062616721    0.028780738109156597    0.03672730198830251    0.05299010801662599    
  0.08348577892273847    0.13482797833790142    0.20748383950056734    0.28570705048245015    0.3379458268129592    
  0.33788057195420446    0.2856954465886565    0.20757593442302835    0.1348088126440511    0.08346527312871714    
  0.05299667073438285    0.03672528448729432    0.028782992679863242    0.025576169502548738    0.03011577526668543    
  0.028237818323097314    0.030116050485603788    0.0367256137853724    0.05153368131943994    0.0812759118980809    
  0.1354316987509728    0.2198977156911493    0.32090023805613693    0.4009819330445716    0.43002025261577886    
  0.40100680762518576    0.32079497429613324    0.21992135380150216    0.13547249238235862    0.08126730326322333    
  0.05153764813982976    0.03672527140996196    0.03011577526668543    0.03985326953033206    0.03478952623475397    
  0.03478367245240257    0.03985839367721897    0.05298969814110422    0.08127663208885891    0.1366011771736439    
  0.22998437362860474    0.34607537804855953    0.4257194744228615    0.4435608492854268    0.44364598107851627    
  0.42582473176945934    0.34607502035250776    0.2299227964185023    0.13662546930964822    0.08126730428361248    
  0.05299665888319608    0.03985326953033206    0.05857520850724264    0.04791664844961603    0.045065647012621696    
  0.047915593153616286    0.05857735861048572    0.08346049752422065    0.13547054504176093    0.22993188760716063    
  0.3533521372229513    0.4105308371873324    0.3542758141405331    0.3099451203000436    0.354084118969032    
  0.4105666619532637    0.35342212488139707    0.2299228499251569    0.13547253336957127    0.08346527003569737    
  0.05857520850724264    0.09160972368782097    0.07219800385542505    0.0651202827747804    0.06511017019869575    
  0.07221071444288901    0.09159463544700938    0.1348350170252229    0.2198901489278868    0.3461015267531811    
  0.4106105005768517    0.30032686057395214    0.17903287276953556    0.17913835172762713    0.3003258278789312    
  0.4105666322709651    0.3460750051609089    0.21992136719474056    0.13480878192055412    0.09160972368782097    
  0.14253950051581613    0.11254199939273392    0.10059853344319383    0.09780410236605669    0.10059792738157486    
  0.11254396263476946    0.14253685952693618    0.20757855921983706    0.32079571903263787    0.4258244146231825    
  0.3540866560049395    0.17913793967378028    0.11373342737572605    0.17913837867403717    0.35408409517159156    
  0.4258248262346587    0.3207949883293045    0.20757591648158402    0.14253950051581613    0.20648526412680213    
  0.1688061517771081    0.15535358489507523    0.15240785651254643    0.15242548169569414    0.15534023923933707    
  0.16883398970460722    0.2064653353622021    0.28573602381943136    0.4009903782319767    0.44360046185846663    
  0.30994333763076165    0.17913793775753495    0.17903290985034195    0.3099451245126919    0.44364598414100187    
  0.4010068798825063    0.28569549297362906    0.20648526412680213    0.2636640568201612    0.2297009143575118    
  0.22343351768437722    0.22798290617195074    0.23112755442473837    0.22798613503886075    0.22342699651231462    
  0.22971472376604454    0.2636651450228071    0.3378752022370989    0.4300992179311914    0.44360041036210396    
  0.3540866847519924    0.30032693539085753    0.35427579416984495    0.44356092035363237    0.43002027289101763    
  0.33788061999596375    0.2636640568201612    0.286938919645428    0.2711012829628458    0.2834358452380008    
  0.30500532905454647    0.3184236306768285    0.3184483329701021    0.30499963517589884    0.28345974915609534    
  0.2710920520772469    0.2869874116973818    0.3378752106264704    0.40099037262553877    0.4258244594582722    
  0.4106105754092312    0.41053079715194307    0.4257195269859536    0.400981983977902    0.3379458061702564    
  0.286938919645428    0.26360793679455813    0.27110193001198357    0.30766305082429185    0.3525898444928253    
  0.378384141982088    0.38349654837237734    0.37837004371377997    0.3526002765369455    0.3076705724123692    
  0.2710920712162407    0.2636651185462344    0.2857359775417524    0.32079568956609    0.3461015543565144    
  0.3533521170216443    0.3460754054716386    0.32090027043742686    0.28570704994675045    0.26360793679455813    
  0.2064786166706723    0.22974830243688638    0.28343454813614644    0.3526025968550532    0.3968540105113777    
  0.4027389271309275    0.40275262169664555    0.39685706007554294    0.35260022553663206    0.283459740858777    
  0.22971468355647884    0.20646532741973117    0.20757854691920075    0.21989011389243346    0.2299318604253713    
  0.22998435931826602    0.21989770427539446    0.2074838215205844    0.2064786166706723    0.1426043101525077    
  0.1688138912847831    0.2233906240108846    0.3050065561179158    0.3783673469041701    0.40275192405718757    
  0.40049363581218916    0.4027526143140804    0.378370026614903    0.3049996362734493    0.22342695762717255    
  0.1688339688228444    0.14253682253467098    0.13483502041008427    0.13547050409937256    0.13660116244320297    
  0.1354316899569311    0.1348279555070722    0.1426043101525077    0.09159642893810843    0.11248355360801217    
  0.15534969012221372    0.22802438829006547    0.31843553902683064    0.38349614286165146    0.40275191695236545    
  0.40273893732384347    0.3834965132436892    0.3184483414458752    0.22798614629266692    0.15534022069843006    
  0.11254397887013391    0.0915946369734906    0.08346047471293809    0.08127663912888328    0.08127592741545528    
  0.0834857515515152    0.09159642893810843    0.05855776650868729    0.07220630486163217    0.10065531407746534    
  0.15241420320422322    0.23109249702168316    0.3184355611434046    0.3783673287189559    0.39685400053330705    
  0.37838415542859144    0.31842360550177284    0.2311275219418989    0.15242548034436665    0.10059793204636319    
  0.07221072177043537    0.05857734425295263    0.052989697460210074    0.051533681686870385    0.05299008948762532    
  0.05855776650868729    0.03985561389373964    0.04793398936796468    0.06511258806283243    0.09775419232005889    
  0.15241420815112322    0.22802438571948977    0.30500657068390125    0.35260258076213213    0.3525898463613515    
  0.30500534686466135    0.22798289230949084    0.15240784987740835    0.09780411427705826    0.06511018341549724    
  0.047915581913861    0.03985841195754701    0.036725616380890475    0.036727303093057655    0.03985561389373964    
  0.030115908432719322    0.03478519064598679    0.0450518994293471    0.06511259326582086    0.10065532953992258    
  0.15534969939214344    0.22339065084817014    0.28343453197658414    0.3076630438483409    0.28343586580320135    
  0.22343353436617644    0.1553535696086787    0.10059853641645547    0.06512029781677453    0.0450656430784366    
  0.03478368101536099    0.030116059679330145    0.02878073643085876    0.030115908432719322    0.02557613486412732    
  0.028239372594431558    0.03478517795929279    0.04793398932866911    0.07220630270303763    0.11248354793696227    
  0.16881390291406773    0.22974829765735508    0.2711018881062565    0.271101266480789    0.22970084540503882    
  0.16880614115533193    0.11254200548831451    0.07219799565490473    0.04791663941724431    0.034789529092400566    
  0.02823781888834588    0.02557729288076938    0.02557613486412732    0.024266565270824478    0.02557613863099763    
  0.03011591087949432    0.03985561437594873    0.05855777905695871    0.09159643148237577    0.14260432120436017    
  0.20647860686047714    0.2636079541168281    0.286938919214798    0.2636640661211661    0.2064852796988594    
  0.14253949625217038    0.091609742917993    0.05857520876269695    0.039853281909955185    0.030115780728443644    
  0.025576169605028044    0.024266565270824478    0.023728557964345056    0.02489568943465586    0.028925117973694018    
  0.03750301631881379    0.05373320318666    0.08181998937396426    0.12436570577598943    0.1768371048745867    
  0.22318486483187033    0.24196893075380108    0.22324810507460502    0.17685058588955344    0.12428959747206149    
  0.08183245124665726    0.053756689156551005    0.03749894687165808    0.028926147041003106    0.024895455662642618    
  0.023728557964345056    0.02489545507786523    0.024896348560952065    0.028000546927331126    0.03562162226211297    
  0.05111507016501055    0.07988371730281557    0.12770510537519966    0.19455051950020855    0.26546487804057045    
  0.3121254001627074    0.3120459438788426    0.2654474876182509    0.194649139837112    0.12769665448406847    
  0.0798549547096993    0.05112377222470623    0.035620265151010064    0.028001931511429365    0.02489545507786523    
  0.028926139798948317    0.027009395734427163    0.028925658217675045    0.035620137623616197    0.050527334757526236    
  0.08037476683876654    0.13454967420739755    0.21827276479269372    0.31600924553248877    0.39016207875916    
  0.4158686670576953    0.3902031741477571    0.3158923599944984    0.21829497420814092    0.13459356963634075    
  0.08036582113002691    0.05052999236066935    0.035620251146518594    0.028926139798948317    0.037498941936386525    
  0.032230027494391085    0.03222369394477673    0.03750594905390823    0.05111430800681707    0.08037655377942227    
  0.13770422987942876    0.23403622232079319    0.3495228825258139    0.41819266855403037    0.4228375955252914    
  0.4229190653827641    0.4183020051025857    0.3495334899611798    0.2339566354774712    0.13774083398091586    
  0.08036582437087152    0.051123761959995996    0.037498941936386525    0.05375669616384395    0.042516731750838276    
  0.03949721305926542    0.04251527976468258    0.05375804759441868    0.07985087157078338    0.1345984073624763    
  0.23396789579713076    0.3589021090603141    0.3986202590204212    0.3169393365471606    0.2642981421108017    
  0.3167518769220232    0.39864472873593954    0.35899295101429807    0.23395670385293368    0.13459359804799953    
  0.07985494710848681    0.05375669616384395    0.0818324317247281    0.06111431155394187    0.053396904277957825    
  0.053385987464073956    0.06112752328923493    0.08181725804495027    0.12771554726635986    0.21826016147924138    
  0.34956148176097834    0.39870076220037226    0.25792404725958495    0.13173062100471258    0.1318197144749217    
  0.2579315939708239    0.398644701999724    0.34953348176181726    0.21829496576872082    0.1276966460620921    
  0.0818324317247281    0.12428958952721786    0.09125163343545448    0.07735779158474075    0.07383922603647959    
  0.07735770643870091    0.09125142636756961    0.12429297704503355    0.1946522062771641    0.315891226913904    
  0.41830354992621754    0.3167501856333238    0.13181917228074128    0.07299168654063057    0.1318197400669877    
  0.3167518554021773    0.4183020469890753    0.3158923461332375    0.19464913085574825    0.12428958952721786    
  0.1768505932835703    0.13227301191014568    0.11340907063321028    0.10718265899661272    0.1071991110455194    
  0.11339512000408447    0.13229459124121978    0.17682605991213196    0.2654912722144036    0.3901784860902457    
  0.4228620876588148    0.2643070957198268    0.13181919865699832    0.13173064574501106    0.26429814993221085    
  0.42291914444620843    0.3902031885503203    0.2654475416533774    0.1768505932835703    0.22324810972677522    
  0.17588854575055238    0.15745170446696433    0.15303140961557823    0.15290727446236163    0.15303432193891278    
  0.15745025461011403    0.17590071567370508    0.22324735881426166    0.3120366834906369    0.4159668723301551    
  0.42286205883330547    0.3167502157446547    0.25792410394429677    0.3169393192098156    0.42283764741712193    
  0.41586875828462827    0.31204600143381955    0.22324810972677522    0.24196895222081896    0.2052294429775221    
  0.196094423079182    0.20138068558915106    0.20794223430807737    0.20796038515226803    0.20136756554765306    
  0.19611588898852644    0.20521627384104787    0.24201874281180027    0.31203668493504877    0.3901784522615999    
  0.41830358055051764    0.398700821109277    0.3986202942344209    0.4181926564307704    0.3901621144514495    
  0.31212536926681855    0.24196895222081896    0.2231848587375551    0.20522735738644104    0.21175110258860638    
  0.23322266847999465    0.25432776130661433    0.2624870427768219    0.2543289600997676    0.2332265346424721    
  0.2117578457832246    0.20521630957409162    0.22324735361004877    0.26549123019036036    0.3158912181623119    
  0.3495614957170448    0.3589020834211326    0.3495229048580456    0.3160092536001292    0.26546487679703534    
  0.2231848587375551    0.1768371122286979    0.17594082288120236    0.1960951098797515    0.2332270690305395    
  0.27244034918150845    0.29561567940673517    0.2956148097088466    0.2724454160088074    0.23322649983319804    
  0.19611589621692183    0.17590068418649    0.17682602240172118    0.19465220184979098    0.21826013197467678    
  0.2339678758440593    0.2340362051740374    0.21827276502921447    0.1945504894970786    0.1768371122286979    
  0.12436569564477233    0.13227651487154693    0.15741003726106295    0.2013759863970657    0.25432572714470786    
  0.2956152189687539    0.31032552429882804    0.2956148080295055    0.2543289532017689    0.20136757687078027    
  0.1574502473030193    0.13229458167628014    0.12429297077356515    0.1277155394266751    0.13459837362007301    
  0.13770423220788736    0.1345496606446369    0.1277050715066495    0.12436569564477233    0.08181998921872297    
  0.0911891601357915    0.11340462964939466    0.1530710833136961    0.20795137074502268    0.2624871821484423    
  0.2956151995915091    0.2956156963453269    0.2624870120460338    0.20796035827090198    0.1530343544053367    
  0.113395095829248    0.09125143541250913    0.08181725432070525    0.0798508519614406    0.08037656610124477    
  0.08037477833074677    0.07988369216131597    0.08181998921872297    0.053733189313977296    0.06112233497506649    
  0.0774130338317459    0.10719083958173652    0.1528682540743512    0.20795137251423998    0.25432569218583    
  0.27244037064336624    0.254327742794944    0.2079422169999557    0.15290724273744333    0.10719910740519573    
  0.07735769261018947    0.061127527134353814    0.05375803349140768    0.051114305911489855    0.05052733107243416    
  0.051115047290347056    0.053733189313977296    0.03750301651590792    0.04253653430214302    0.05339100092218463    
  0.07378539479622033    0.107190873717064    0.15307109806056493    0.20137599917334986    0.23322706509212213    
  0.23322268676621827    0.20138068418733976    0.15303141088212344    0.1071826565342051    0.07383922961888052    
  0.053386005030672756    0.04251527612035481    0.03750596312383102    0.035620145316098493    0.03562161779535627    
  0.03750301651590792    0.028925117015382584    0.032226495791746246    0.03947733406816427    0.05339100028264516    
  0.07741303532915506    0.11340463284394933    0.1574100429141675    0.19609511715133    0.21175109284263455    
  0.19609443823548073    0.15745170727005864    0.11340906175004027    0.07735779889973533    0.05339691141337618    
  0.0394972006268761    0.03222370006159282    0.028925663876239616    0.02800054256818903    0.028925117015382584    
  0.024895682186482717    0.027010038261125628    0.03222648555014453    0.042536533460659415    0.061122336640027496    
  0.09118915876349432    0.13227651025062517    0.17594082617394363    0.20522734004680315    0.20522941943609843    
  0.1758885037101884    0.13227301390672128    0.09125163882018898    0.06111431368278478    0.04251672410498926    
  0.0322300268461104    0.027009396780990055    0.024896339367858063    0.024895682186482717    0.023728557964345056    
  0.02489568943465586    0.028925117973694018    0.03750301631881379    0.05373320318666    0.08181998937396426    
  0.12436570577598943    0.1768371048745867    0.22318486483187033    0.24196893075380108    0.22324810507460502    
  0.17685058588955344    0.12428959747206149    0.08183245124665726    0.053756689156551005    0.03749894687165808    
  0.028926147041003106    0.024895455662642618    0.023728557964345056    0.02295763924259389    0.02392952041533372    
  0.027235209149881014    0.03416098862318254    0.047019753396561774    0.06868603976500251    0.10055333529617037    
  0.1388863330120404    0.17209892802381793    0.18540088175779174    0.17213555307183015    0.138891901523022    
  0.10050114999503226    0.06869863173563796    0.04703305597568978    0.03415928174470533    0.027236202448926532    
  0.023929502685035384    0.02295763924259389    0.02392950341018857    0.023929328011435682    0.02667170356237969    
  0.03330048456780444    0.04658037847515283    0.07078811812697032    0.11015047045455685    0.16406388181093026    
  0.22043435141821544    0.2572474014841948    0.2571977258447848    0.2204302280541304    0.164137966279527    
  0.11013931454653388    0.07077251397264749    0.04658541664866224    0.03329997828640889    0.0266721013859572    
  0.02392950341018857    0.027236196836811832    0.02549033501439198    0.02723604771090541    0.03329939555180566    
  0.04665948580608579    0.07302041223637847    0.12015668202511655    0.19228240156511575    0.2769532110544133    
  0.34330042576105413    0.36730779537298525    0.3433217087880118    0.27686200837832026    0.19230640637596186    
  0.12018362828321665    0.07301719916997852    0.04666124542004083    0.03329996716994873    0.027236196836811832    
  0.034159275422538125    0.029329242655129043    0.02932567698612337    0.03416285295543634    0.04657972860989454    
  0.07302306553213553    0.124302747790785    0.2105774369031786    0.31831848804399426    0.39538921556008316    
  0.41669240150105774    0.41676503277979277    0.3954839354614607    0.318316564030003    0.21053349322067083    
  0.12432316024192858    0.07301719321176026    0.04658540784445874    0.034159275422538125    0.04703306328747476    
  0.03676799865367006    0.03398313936394751    0.03676652014120358    0.04703503878206508    0.07076792166063713    
  0.12018671813118403    0.21053245402661303    0.33207659033183745    0.4006396442062589    0.36390261206448316    
  0.32724372985144357    0.3637209704023275    0.4006866465180997    0.33212024977339183    0.21053355213216787    
  0.12018365358110945    0.07077251444020476    0.04703306328747476    0.06869861962654167    0.049858903243546776    
  0.042777547364246674    0.04276912106917241    0.04986897525971427    0.06868587445033698    0.11015507537552591    
  0.19228125894120954    0.318338512986639    0.400709782898848    0.3224236510117491    0.21246406195286172    
  0.21258670942859884    0.3224051875412593    0.400686618955917    0.31831656969162214    0.19230640384954578    
  0.11013929674675393    0.06869861962654167    0.10050114781316405    0.07039792960229213    0.05756560591372894    
  0.05420894430624471    0.0575656301854812    0.07039785152455422    0.1005034888764348    0.1641380355461634    
  0.2768619731648818    0.3954842291098735    0.3637207451249956    0.21258661252272254    0.14748797210148182    
  0.21258675034960509    0.36372097337342457    0.3954839907313139    0.2768620108304638    0.1641379730421134    
  0.10050114781316405    0.1388919138272287    0.09750784727101926    0.07912301852469039    0.07252847719569912    
  0.0725397826937388    0.07911234359839817    0.0975232169525889    0.13887444615987174    0.22046099291004667    
  0.34329970624153533    0.4167406735244754    0.327222299607289    0.21258664974157268    0.21246409963717397    
  0.3272437437443253    0.416765090880333    0.34332173357968254    0.22043026275877015    0.1388919138272287    
  0.1721355837389812    0.1256596089982939    0.1047129012836824    0.09708172137342055    0.09546124047196328    