#     DFTpy    
  CRYSTAL 
    
  PRIMVEC    
  4.134206896551723    0.0    0.0    
  0.0    4.134206896551723    0.0    
  0.0    0.0    4.134206896551723    
  PRIMCOORD    
  2    1    
  Si    0.0    0.0    0.0    
  Si    2.0671034482758617    2.0671034482758617    2.0671034482758617    
  BEGIN_BLOCK_DATAGRID_3D    
  3d_datagrid_density    
  BEGIN_DATAGRID_3D#0    
  19    19    19    
  0.0    0.0    0.0    
  4.134206896551723    0.0    0.0    
  0.0    4.134206896551723    0.0    
  0.0    0.0    4.134206896551723    
  0.08400786625171644    0.14234939005469266    0.3275313692930691    0.4484479165135102    0.3456113407354618    
  0.1960376672055343    0.10276169505254659    0.0573132295810628    0.038056734770306556    0.03284884848741133    
  0.038056719250240775    0.0573132288955962    0.10276168987042103    0.1960376399005957    0.345611328023312    
  0.44844794662158083    0.3275313225734009    0.14234938669058567    0.08400786625171644    0.1423493823664227    
  0.20688933455119254    0.3742848563424508    0.44417430083696563    0.3257362989962093    0.18404862621986134    
  0.09758158876833314    0.05528133627241972    0.037211333631480985    0.032308023862916306    0.037211330639760364    
  0.05528133694263291    0.09758158960406581    0.1840486107275139    0.32573632302551053    0.4441743023977514    
  0.37428484600071354    0.2068893620551194    0.1423493823664227    0.3275313328264836    0.3742848252342325    
  0.44491109669112067    0.40337035519672765    0.27018384954487523    0.15316292192843886    0.0842922566174466    
  0.05002196242951418    0.035035008243984915    0.03091391261732079    0.03503500384482305    0.050021975642807776    
  0.08429224892976851    0.1531629114201036    0.2701839009848839    0.4033703407748584    0.4449111256842552    
  0.3742848749590587    0.3275313328264836    0.44844794465210014    0.4441742980944727    0.4033703186009966    
  0.3064263644361083    0.19646911828776148    0.1153152827851656    0.06791527834174836    0.04352860808442665    
  0.032476306906559296    0.029365344993104954    0.03247629580869768    0.043528612044100905    0.06791527213145467    
  0.11531527734432188    0.19646914708993105    0.3064263804762288    0.40337034297654106    0.4441743088317114    
  0.44844794465210014    0.345611297734168    0.32573628107316177    0.27018388179720787    0.196469123621684    
  0.12928061766292204    0.08171998287228352    0.05312340570907056    0.03775906685129652    0.030513329742213987    
  0.02841030258511421    0.030513318827592645    0.03775907352179301    0.053123410534328154    0.08171998264290176    
  0.12928062931126605    0.19646912947399026    0.2701838821599231    0.32573630512085444    0.345611297734168    
  0.19603763971068183    0.18404862273107514    0.15316290144199746    0.11531528088134335    0.08171997700295956    
  0.05744196038245646    0.042232879294615513    0.03376324672650887    0.029643510781603186    0.028410570887249364    
  0.029643502124444474    0.033763257414634644    0.04223287344491923    0.05744195574332081    0.08171998616261844    
  0.11531528256516081    0.1531629137121017    0.1840486291248018    0.19603763971068183    0.10276168500355953    
  0.09758159951279775    0.08429225318647553    0.06791527401466821    0.053123406739570875    0.04223288010744241    
  0.03536877119702525    0.03162093774912446    0.029873905385717135    0.029365073449102205    0.029873897739536776    
  0.03162093700496665    0.03536876409761016    0.04223287844354403    0.05312341363957587    0.06791527152516151    
  0.08429223470862476    0.09758161228180919    0.10276168500355953    0.05731322626257686    0.055281327970831615    
  0.050021976213559034    0.043528609907498114    0.03775906935533999    0.03376325497203237    0.03162093781984322    
  0.03087297907313903    0.030842430503007997    0.03091418915963415    0.030842414059557347    0.030872986998889126    
  0.031620937064753746    0.03376324328616668    0.03775908068954757    0.043528604740106835    0.05002197751788842    
  0.05528133759723246    0.05731322626257686    0.038056716653120506    0.03721133762659469    0.03503500120442338    
  0.03247630145733476    0.03051331492386763    0.029643510398522272    0.029873892192073533    0.030842413468121502    
  0.03187718790068246    0.03230773447931658    0.03187717930170075    0.03084242355007599    0.02987389535342001    
  0.029643505135427798    0.030513325431707414    0.03247630063840202    0.03503500514051848    0.037211337167794845    
  0.038056716653120506    0.032848847974167816    0.032308019232838096    0.030913921453418217    0.0293653499232218    
  0.02841030847780487    0.028410579287862187    0.029365071914175103    0.03091419382473288    0.032307747533136755    
  0.03284913926888878    0.03230773285494005    0.030914203316795574    0.02936507648628934    0.028410568215120773    
  0.028410305281848725    0.029365348673807613    0.030913909701023885    0.032308027474866205    0.032848847974167816    
  0.03805672788504304    0.03721133228877581    0.03503500404539916    0.032476300184174516    0.0305133217895855    
  0.0296435092003114    0.02987390172185454    0.030842405842898723    0.03187718516162281    0.0323077322648199    
  0.031877181011376717    0.030842415087270113    0.029873902030305512    0.029643505256251104    0.030513321255496318    
  0.03247629790125611    0.03503500008297307    0.03721133576156674    0.03805672788504304    0.057313219179832925    
  0.055281331884879256    0.050021978683354215    0.04352860663183112    0.03775907043749226    0.03376325775766186    
  0.03162093325046597    0.03087298141806848    0.030842428187366846    0.030914194767894074    0.030842414460810007    
  0.030872986901347495    0.03162092888244618    0.033763248169656014    0.037759078633567485    0.043528603557708816    
  0.050021975822439564    0.05528134604070901    0.057313219179832925    0.10276169185671337    0.09758160336362895    
  0.0842922607620271    0.06791527424355825    0.05312340859994454    0.042232886583140734    0.035368775980530426    
  0.031620938503005146    0.029873900747538602    0.02936507468265581    0.029873899739427414    0.03162094028405103    
  0.035368769407327694    0.04223287456009115    0.05312341718789236    0.06791527145666507    0.08429223997974741    
  0.09758160480828791    0.10276169185671337    0.1960376521311511    0.18404861018987087    0.1531629124925162    
  0.1153152784837356    0.08171998250904705    0.0574419552545572    0.04223287689336241    0.033763247060908705    
  0.029643520030573495    0.0284105670374622    0.02964349983078287    0.03376325144520817    0.04223287812808473    
  0.057441950687303886    0.08171998323904965    0.11531527788783168    0.15316290361226634    0.1840486288600612    
  0.1960376521311511    0.3456113006347083    0.3257363079671898    0.27018386596679717    0.19646912629102115    
  0.1292806251916879    0.08171999348579267    0.05312340972850489    0.037759065485410914    0.03051332810637544    
  0.02841029865978237    0.03051332772055459    0.037759080957945945    0.0531234057028029    0.08171998682787313    
  0.12928062629891468    0.19646911946698095    0.2701838844638579    0.32573632843984124    0.3456113006347083    
  0.44844794076044703    0.44417432239633353    0.4033703874627562    0.30642636921626953    0.19646912772650874    
  0.11531528791490579    0.0679152762996147    0.04352861411886922    0.03247630419595795    0.02936534934546366    
  0.032476296423535535    0.04352860655294948    0.06791526709483099    0.1153152752903261    0.196469141039643    
  0.3064263600227506    0.40337030699239357    0.4441743165914045    0.44844794076044703    0.3275313511891395    
  0.37428482349300185    0.44491114821256184    0.40337031744274643    0.2701838723772387    0.15316291940427906    
  0.08429224656616577    0.05002196962774428    0.03503501660935613    0.030913910508026235    0.03503500302086438    
  0.05002197146554583    0.08429225613945511    0.15316290254179382    0.27018389334191123    0.40337031964275644    
  0.4449111235660339    0.37428483557707914    0.3275313511891395    0.14234937504299106    0.2068893495682777    
  0.37428483301143445    0.44417429422511256    0.3257362921973942    0.18404863179599518    0.09758158740196787    
  0.05528132665264673    0.037211340639425654    0.03230801984212822    0.037211333035851196    0.05528134684384713    
  0.09758158918151547    0.18404863649030323    0.3257363033590722    0.44417431132293783    0.37428484620483415    
  0.20688937008716168    0.14234937504299106    0.08400786625171644    0.14234939005469266    0.3275313692930691    
  0.4484479165135102    0.3456113407354618    0.1960376672055343    0.10276169505254659    0.0573132295810628    
  0.038056734770306556    0.03284884848741133    0.038056719250240775    0.0573132288955962    0.10276168987042103    
  0.1960376399005957    0.345611328023312    0.44844794662158083    0.3275313225734009    0.14234938669058567    
  0.08400786625171644    0.14234938719715828    0.2068893493937378    0.37428486397779404    0.4441743074337375    
  0.3257363027878228    0.18404862568704142    0.097581594580846    0.05528133883627169    0.03721134111848089    
  0.032308023410862294    0.037211327493832574    0.05528134047733573    0.09758159127397553    0.1840486305311635    
  0.32573631055201296    0.4441742940235155    0.3742848369970709    0.20688935387469026    0.14234938719715828    
  0.20688934846855345    0.27049769785572125    0.40931061085994586    0.43434736834391263    0.3065500047378614    
  0.1730457794379356    0.09286501189696346    0.05345801897319356    0.03649944625691922    0.031876892288339245    
  0.036499442268684894    0.05345802151368454    0.0928650087505066    0.17304579347730206    0.3065500340091993    
  0.43434738719722366    0.40931062268611307    0.27049773758713014    0.20688934846855345    0.3742848497082625    
  0.4093106257011621    0.44829188286538396    0.3849827774913286    0.25383038152758725    0.14474419682695977    
  0.08082803756703    0.048835748582297854    0.03474060230670736    0.03084269501703809    0.03474059445971895    
  0.048835758501289184    0.08082802310872761    0.14474419003290287    0.25383043262841865    0.38498275272307075    
  0.44829188298894646    0.4093106463020731    0.3742848497082625    0.44417433305935594    0.4343474177744734    
  0.3849827456005788    0.288279073962304    0.18514318286224488    0.11007650497988822    0.06605852677581715    
  0.04324135757915747    0.03282439857630124    0.02987361462715787    0.032824390347286146    0.04324136017998744    
  0.06605851352569451    0.11007649635530123    0.18514319291993    0.28827907847323514    0.3849827247895472    
  0.4343474252618289    0.44417433305935594    0.32573629838200197    0.3065499880437876    0.25383040157279885    
  0.18514317338412523    0.1231542221495457    0.07930220235491972    0.052770112947720674    0.0384216040850553    
  0.03162304632564749    0.029643774204507808    0.0316230384637321    0.0384216075025908    0.05277011055638499    
  0.0793021984550651    0.12315423131084637    0.1851431654416847    0.2538303980162816    0.30655001252703706    
  0.32573629838200197    0.18404860084668112    0.17304579240331822    0.14474417474786    0.11007650164323754    
  0.07930219549132793    0.05705619418330391    0.043109009147839536    0.03535897882165646    0.03162333191543498    
  0.030513040003834868    0.031623325753595534    0.03535900383454078    0.04310899994148883    0.05705619446665081    
  0.07930220447348056    0.1100765157147632    0.1447441955056198    0.17304579124278668    0.18404860084668112    
  0.09758159444804314    0.09286502077412184    0.08082803558935338    0.06605851945215543    0.05277010842878242    
  0.04310900577045423    0.03718782013388404    0.0341284630284356    0.03282411561894559    0.03247658458432171    
  0.0328241010343221    0.034128461176974226    0.03718780831865022    0.04310900207856044    0.05277011661447269    
  0.06605851747637997    0.08082801381470148    0.09286502536322554    0.09758159444804314    0.05528133658987699    
  0.05345801063545331    0.048835759609749126    0.043241357684580144    0.038421606024909793    0.03535899608239887    
  0.034128462131420685    0.03418656681997239    0.03474091352771658    0.035034702673003515    0.034740887765934356    
  0.03418657508885805    0.03412846220199149    0.03535899148330242    0.03842161364439886    0.04324135523295667    
  0.04883575813018332    0.05345802341816367    0.05528133658987699    0.037211326264937464    0.0364994431855679    
  0.03474059290314531    0.032824395309201504    0.03162303434977131    0.03162333330689169    0.03282410606957194    
  0.034740893918794355    0.03649914095189734    0.03721163991331719    0.03649913827156286    0.0347409023769502    
  0.03282409163064448    0.03162333219227614    0.031623044355443185    0.03282438835468034    0.034740592886765474    
  0.03649944786759215    0.037211326264937464    0.032308021221910274    0.0318768904511027    0.030842703516315656    
  0.02987362119149228    0.02964378310684052    0.03051304129757478    0.03247658951737633    0.03503471097158207    
  0.03721165153095428    0.03805641859050795    0.03721164007678813    0.035034714664001626    0.032476595476243326    
  0.0305130370622805    0.02964378018678455    0.029873624470196904    0.030842692388737995    0.03187689360554053    
  0.032308021221910274    0.03721133038922133    0.03649944077289749    0.03474059868821826    0.032824389176305924    
  0.03162304078023877    0.03162333041804434    0.032824099745466614    0.03474088979130705    0.03649914334727795    
  0.03721163897259852    0.03649913874131664    0.03474089598498616    0.03282411246098049    0.031623321191479765    
  0.03162304533506761    0.03282439346377086    0.03474059428702269    0.036499447657527224    0.03721133038922133    
  0.05528132808735553    0.053458011727946175    0.048835760478021455    0.04324135712735537    0.0384216079651664    
  0.03535899897628971    0.0341284646661321    0.03418657462520513    0.03474090811252793    0.03503469937732193    
  0.034740888121353265    0.03418657538285955    0.0341284650445109    0.035358988009662376    0.038421607176885614    
  0.04324135831322332    0.048835758591036574    0.053458027468172416    0.05528132808735553    0.09758159362772285    
  0.092865033140362    0.0808280398550248    0.06605851981323341    0.05277011021112648    0.04310900952659369    
  0.037187816268662584    0.0341284547217872    0.03282409863444581    0.032476593429388564    0.032824103199694706    
  0.0341284583136714    0.037187820127715966    0.043109000570314    0.05277011965931264    0.06605852492740692    
  0.08082802075465988    0.09286502073353246    0.09758159362772285    0.18404861842626188    0.1730457683573784    
  0.1447441861496123    0.11007650891051368    0.07930220480708848    0.05705618609819038    0.043109000142641754    
  0.03535898497512828    0.031623337954435865    0.03051303619277433    0.03162332572822906    0.0353589853738538    
  0.043109009566162974    0.05705618301824602    0.07930220202150909    0.11007651083325248    0.14474418576334924    
  0.17304577858034648    0.18404861842626188    0.3257362972610038    0.30655002210032245    0.25383038458132373    
  0.1851431652801821    0.12315422123804076    0.07930221508613458    0.05277010764301271    0.038421600346605696    
  0.031623049601326635    0.02964377771668205    0.03162304400892104    0.03842161820326872    0.052770104374877086    
  0.07930219893676553    0.12315421304815902    0.18514316719789992    0.25383038522384577    0.3065500197493258    
  0.3257362972610038    0.44417430152384674    0.434347401734074    0.3849827809138361    0.28827907093561833    
  0.18514317734511285    0.1100765102920833    0.06605852468800848    0.043241357526676086    0.032824395942094    
  0.02987361713749049    0.03282438601341124    0.04324135988876614    0.0660585211033643    0.11007649665374732    
  0.18514319195029194    0.28827907940569664    0.38498274565343177    0.4343474278514464    0.44417430152384674    
  0.37428483263549783    0.40931058636286866    0.4482918849896225    0.38498272662503424    0.2538303970211478    
  0.14474419353239626    0.0808280304466455    0.04883574888164848    0.034740606288414334    0.030842691432368334    
  0.034740594796148785    0.048835754286649234    0.08082803627817298    0.14474417277103052    0.2538304027567775    
  0.38498275613799865    0.44829187647448976    0.409310634862724    0.37428483263549783    0.20688933326166326    
  0.2704977110370768    0.40931061897854454    0.4343474040058388    0.30654999392978066    0.17304579505691775    
  0.09286500943415132    0.05345801177118332    0.03649944957677795    0.031876889739569716    0.03649944509637735    
  0.05345803067126565    0.092865003119131    0.17304579292623676    0.30655001873532606    0.43434741435514396    
  0.40931061495921506    0.2704977423603193    0.20688933326166326    0.14234938719715828    0.2068893493937378    
  0.37428486397779404    0.4441743074337375    0.3257363027878228    0.18404862568704142    0.097581594580846    
  0.05528133883627169    0.03721134111848089    0.032308023410862294    0.037211327493832574    0.05528134047733573    
  0.09758159127397553    0.1840486305311635    0.32573631055201296    0.4441742940235155    0.3742848369970709    
  0.20688935387469026    0.14234938719715828    0.3275313541170783    0.37428484940103146    0.44491116192686836    
  0.40337034886863826    0.27018388701292195    0.1531629174797939    0.084292250738256    0.050021972121564465    
  0.0350350127524936    0.03091391543960472    0.035034997195886305    0.05002197823111285    0.08429225075871094    
  0.15316291440947666    0.2701838840885924    0.4033703466601811    0.444911095375382    0.37428484751927626    
  0.3275313541170783    0.37428484363363124    0.40931060820384957    0.44829186044173763    0.3849827321735523    
  0.253830399938772    0.14474418717861898    0.08082802674621078    0.04883575445792175    0.03474059932785573    
  0.03084269742877444    0.034740595510571855    0.04883575729587075    0.0808280272967921    0.14474418904078828    
  0.253830411944167    0.38498274516558756    0.4482918789837868    0.40931065247076365    0.37428484363363124    
  0.4449111031807275    0.4482919020901708    0.42053556719168184    0.3263897104475935    0.2105323578360005    
  0.12317848102504748    0.07208221088107415    0.0459600077774078    0.03418687349614661    0.03087269917117265    
  0.0341868669379236    0.04596001946147902    0.07208220327986338    0.1231784897100303    0.2105324004075015    
  0.32638968807494406    0.4205355649803892    0.4482918875216239    0.4449111031807275    0.40337034278788664    
  0.38498275513354396    0.32638969305599613    0.23935592720970836    0.15609600524510886    0.09678741234433963    
  0.061504986186334286    0.04282910044241124    0.034128171834162196    0.03162121343439287    0.03412816613443165    
  0.04282909691319137    0.061504978267935946    0.09678741654309492    0.15609602244852866    0.23935592929007046    
  0.3263896871174747    0.3849827820719086    0.40337034278788664    0.2701838814331814    0.2538303738674102    
  0.21053240332444167    0.1560959921506048    0.10770748904336812    0.0733555621142196    0.05230576468952449    
  0.04081756000713209    0.03535929867201773    0.03376295684904455    0.03535928843131613    0.04081756759933884    
  0.05230575713078759    0.07335555926502527    0.1077075045511773    0.15609600272442856    0.2105323900256288    
  0.25383041268275663    0.2701838814331814    0.15316289263093746    0.14474419748190903    0.12317846748927629    
  0.09678741418430688    0.07335555704317487    0.056549613401997746    0.046245077302953554    0.040817881615125444    
  0.03842129773583413    0.037759373092744825    0.038421295689952284    0.040817893210111596    0.04624507611624228    
  0.05654961320169993    0.07335556704474205    0.0967874196691933    0.1231784820874889    0.14474419064311864    
  0.15316289263093746    0.08429224780248536    0.08082803636754084    0.07208221611895184    0.06150498104227327    
  0.05230576399267415    0.04624507433519827    0.04340103972504502    0.042828771941805045    0.04324169280662547    
  0.043528280385742454    0.04324168250776268    0.04282876794895989    0.043401038733538816    0.04624506825558053    
  0.05230576437446175    0.061504981778732606    0.07208219096012249    0.08082804700424884    0.08429224780248536    
  0.0500219779551589    0.04883574820872318    0.04596001836700918    0.042829102808119225    0.040817560391099475    
  0.04081788931462929    0.0428287685436597    0.04596034887965981    0.048835420315205234    0.0500223245409942    
  0.04883540817257084    0.04596035887522008    0.042828771092852116    0.04081788122221363    0.04081757627256809    
  0.04282910166751122    0.045960016562279736    0.0488357581223188    0.0500219779551589    0.03503499722060927    
  0.034740596407833606    0.03418686438522864    0.034128164267683926    0.035359288465555666    0.03842130200793034    
  0.043241687883324394    0.048835396178710216    0.053458383217585094    0.05528096613948092    0.05345838166048779    
  0.048835414993687605    0.04324168961695823    0.038421302826550624    0.03535929482744952    0.03412816382140484    
  0.03418686762214935    0.03474060324862856    0.03503499722060927    0.030913914767657508    0.0308426940668431    
  0.030872709072999303    0.03162122236518928    0.033762962854480834    0.03775938764480495    0.04352827567162804    
  0.050022321245753607    0.05528098302093735    0.057313602268755016    0.05528096369781088    0.05002233645245816    
  0.043528274639021196    0.0377593800033322    0.033762959413663675    0.03162122741169251    0.030872694011410823    
  0.030842700513807737    0.030913914767657508    0.03503500227763018    0.034740591652959424    0.03418686964586822    
  0.03412816142377798    0.035359294465166315    0.038421293523602476    0.04324168894829781    0.04883540424322262    
  0.053458388966118056    0.05528095638923192    0.05345838591443241    0.04883540197291511    0.043241689167675096    
  0.03842129167697663    0.03535929645221882    0.034128165269105046    0.034186860973864606    0.034740599814712135    
  0.03503500227763018    0.05002196576597224    0.04883575063675899    0.0459600214312775    0.04282909965512121    
  0.040817563244329634    0.040817893543674204    0.042828774703515614    0.045960360075929456    0.04883542098793048    
  0.05002232345266119    0.048835404007138934    0.04596036309279156    0.04282876804937471    0.04081788248235975    
  0.04081756757690591    0.0428291021996032    0.04596001661459583    0.04883576249362696    0.05002196576597224    
  0.08429224701301209    0.08082803980671777    0.07208221715427371    0.06150498303227871    0.052305761300984105    
  0.046245080873352204    0.0434010423997766    0.04282876955918014    0.04324169528740066    0.043528279888488335    
  0.043241693106709264    0.04282876931747673    0.043401033455171205    0.0462450696693954    0.05230576928466201    
  0.06150498168360457    0.07208219497104369    0.08082804374109324    0.08429224701301209    0.15316290890941428    
  0.14474417152454827    0.12317848598272894    0.0967874241500011    0.07335555958238826    0.0565496174938139    
  0.04624507314585083    0.040817881682176635    0.03842130890083909    0.03775937822889911    0.038421296056790635    
  0.04081787942068348    0.046245073603314486    0.05654960830238701    0.07335555733477114    0.09678742259804345    
  0.12317847746933208    0.14474419014463186    0.15316290890941428    0.27018385477247364    0.2538304048292992    
  0.21053236619020846    0.1560960024760419    0.10770749243168086    0.07335556500606563    0.05230576610532735    
  0.04081755224470577    0.03535930100877121    0.03376295635008193    0.03535929346020776    0.0408175755354656    
  0.052305759774890465    0.07335556456254712    0.10770749719599364    0.15609599836074137    0.21053238502567936    
  0.2538304145047991    0.27018385477247364    0.40337035301179436    0.3849827714120271    0.3263897227412833    
  0.2393559186327563    0.156096001175671    0.09678742883674675    0.0615049825659762    0.042829095870027    
  0.03412817011971309    0.03162122412660504    0.03412815893573388    0.042829101314068634    0.06150498478695417    
  0.09678741271193746    0.15609601390499656    0.23935593146616782    0.3263896723162055    0.38498278419657395    
  0.40337035301179436    0.4449111138629591    0.44829184672423816    0.4205355856515758    0.32638967492572074    
  0.21053238508600045    0.12317848693912656    0.07208221271779487    0.04596000997678442    0.034186879236157285    
  0.0308726975869995    0.034186868867967166    0.045960012247501236    0.07208220973562414    0.12317846724573683    
  0.21053239462839238    0.3263896783958747    0.42053556339172665    0.448291876774947    0.4449111138629591    
  0.3742848220989756    0.4093106126730531    0.4482918667125232    0.3849827566226564    0.2538303827158924    
  0.14474419875585448    0.08082802801405584    0.0488357464683571    0.03474060162038079    0.030842693269865922    
  0.03474059662955718    0.048835766833971096    0.08082802838501031    0.144744199862652    0.2538303988651851    
  0.3849827697646566    0.44829187127655445    0.40931064137766127    0.3742848220989756    0.3275313541170783    
  0.37428484940103146    0.44491116192686836    0.40337034886863826    0.27018388701292195    0.1531629174797939    
  0.084292250738256    0.050021972121564465    0.0350350127524936    0.03091391543960472    0.035034997195886305    
  0.05002197823111285    0.08429225075871094    0.15316291440947666    0.2701838840885924    0.4033703466601811    
  0.444911095375382    0.37428484751927626    0.3275313541170783    0.4484479193245851    0.4441743239307532    
  0.4033703597229963    0.3064263417224562    0.19646914088974432    0.11531529802523668    0.06791527103778455    
  0.043528608108174674    0.03247631015537347    0.029365349696085966    0.03247629598790369    0.04352861443618082    
  0.06791526232007276    0.11531527939053075    0.19646913512183645    0.30642636386497335    0.40337031219866926    
  0.4441743027924823    0.4484479193245851    0.44417427357778505    0.4343473768448537    0.3849827671172323    
  0.2882790437601963    0.18514316731797512    0.1100765152954511    0.06605851666734867    0.043241357337543175    
  0.03282439366663239    0.029873623702266705    0.03282439198397305    0.04324136332614702    0.0660585158484264    
  0.11007650440682594    0.18514319936493262    0.28827906201055326    0.384982754794234    0.4343474508784532    
  0.44417427357778505    0.4033703458535717    0.3849827619092516    0.3263896997656089    0.23935592500068217    
  0.1560959965399368    0.09678743205224291    0.06150498396217909    0.04282909240129031    0.03412817137093181    
  0.03162121906182658    0.03412816309791708    0.04282910399750389    0.06150497519801257    0.09678742572039695    
  0.1560960242921347    0.23935591202026732    0.3263897015685621    0.38498280193039275    0.4033703458535717    
  0.30642633686625015    0.28827905204985843    0.23935591977187404    0.17671467126356838    0.12054409506452535    
  0.08072162780341324    0.056509568308496974    0.043400699795163845    0.037188130126400536    0.035368461649715785    
  0.03718811836471657    0.043400707030281836    0.05650956019379252    0.08072163265396923    0.12054410714786398    
  0.17671468406400115    0.23935592170555736    0.2882790685075667    0.30642633686625015    0.1964691238476192    
  0.18514316507471248    0.156096020659612    0.12054409361974695    0.08913873411748581    0.06683616024851659    
  0.053320262726089696    0.04624540943667299    0.0431086818247838    0.04223320373335412    0.043108674992132195    
  0.04624541775778832    0.05332026351363209    0.06683616349893351    0.08913874611356519    0.12054408746840725    
  0.1560960077206417    0.18514317719862278    0.1964691238476192    0.11531527809860649    0.11007651000827329    
  0.0967874181318975    0.08072163057942976    0.06683615741079363    0.057701693402933206    0.05332063126176047    
  0.052305396520325495    0.052770480877085094    0.053123038830274145    0.052770473897290615    0.05230541139516286    
  0.053320623579023715    0.05770169458103831    0.06683617070541031    0.0807216252770587    0.09678742352107476    
  0.11007652064055119    0.11531527809860649    0.0679152655466765    0.06605851945023038    0.06150498508608328    
  0.05650956215498304    0.05332026679758685    0.05332063077672885    0.05650918165860324    0.0615053701823696    
  0.06605811936898595    0.06791567406210157    0.06605810692787736    0.06150537656027718    0.05650919731158167    
  0.05332063010021939    0.05332027550136724    0.05650955605354627    0.06150496492486598    0.06605853029400148    
  0.0679152655466765    0.043528611305684944    0.04324135090848016    0.04282910130565803    0.043400700651313615    
  0.04624541538406536    0.05230540713182304    0.06150537013300802    0.0720817807514189    0.08082848822889811    
  0.08429179847564496    0.0808284800054312    0.07208179709814921    0.06150536498505461    0.05230539031799425    
  0.0462454247829626    0.04340070162534404    0.04282910649813577    0.04324135879307045    0.043528611305684944    
  0.03247629304915833    0.03282439268202411    0.034128165687982916    0.03718812468013932    0.043108667549145586    
  0.05277047836368696    0.066058105194164    0.08082846918504936    0.0928645564756122    0.09758209599876226    
  0.0928645386497211    0.08082849727173004    0.06605810257494958    0.052770484392291206    0.043108679700253366    