#     DFTpy    
  CRYSTAL 
    
  PRIMVEC    
  6.182311257508192    4.931133387131035e-07    8.140868988965516e-07    
  4.931134558717242e-07    6.182313377558676    8.229904974337931e-07    
  8.140870030165517e-07    8.229905163303448e-07    6.1823129490395115    
  PRIMCOORD    
  16    1    
  Si    0.9122634925603897    5.270048902127011    2.1788932905669167    
  Si    5.270048198659633    0.9122654553305526    4.003418772046792    
  Si    0.9122644219031449    0.9122646502002573    0.9122649712583839    
  Si    2.178896490764649    2.1788973956144537    2.178897167965969    
  Si    5.270046699508916    2.1788934426091644    0.9122639485887039    
  Si    0.9122632886876001    4.003422245988807    5.270048853912248    
  Si    2.1788926267786457    0.9122656423656054    5.27004935140299    
  Si    4.003418547100936    5.270050331417793    0.9122640228681795    
  Si    4.003418234743194    2.1788977594516608    5.270052230890693    
  Si    2.178894238827981    4.003416815577754    0.9122610232293776    
  Si    4.003416184345436    4.003419890840703    4.003418687371329    
  Si    5.270048373763689    5.270051286505913    5.270050132675339    
  Si    2.1788967331213973    5.270054084903611    4.003418905766001    
  Si    4.003415269388157    0.9122606845420005    2.178895069744448    
  Si    5.270050583998454    4.00341932553616    2.178897314513335    
  Si    0.9122609512053982    2.1788958186008576    4.003416763821609    
  BEGIN_BLOCK_DATAGRID_3D    
  3d_datagrid_density    
  BEGIN_DATAGRID_3D#0    
  27    27    27    
  0.0    0.0    0.0    
  6.182311257508192    4.931133387131035e-07    8.140868988965516e-07    
  4.931134558717242e-07    6.182313377558676    8.229904974337931e-07    
  8.140870030165517e-07    8.229905163303448e-07    6.1823129490395115    
  0.1472142177864409    0.15080552045446688    0.16106318235797137    0.17644507007307983    0.19412220640103484    
  0.21002043676065046    0.2196391918327769    0.2196399100537982    0.21001995303575813    0.19412302958088665    
  0.17644484689679524    0.16106409646824635    0.15080557477272477    0.14721514690034015    0.15080578870038022    
  0.16106443654917615    0.17644544065611467    0.19412361470301176    0.2100206987764419    0.2196404964122703    
  0.21963991598627944    0.2100209275954585    0.19412274250422235    0.17644534170301598    0.16106347483137026    
  0.15080562908040285    0.1472142177864409    0.15080551841064505    0.1712472340874996    0.20010772393990195    
  0.23629229340399885    0.2767838399884948    0.3143555592744738    0.3376854259658349    0.33768457246248296    
  0.3143566674093282    0.2767834357136208    0.23629341869781945    0.20010765795228175    0.17124825585844328    
  0.15080554699248436    0.1388477470915643    0.13416489074611976    0.13476355456479708    0.13836716862329243    
  0.14253590830632323    0.1453040091930661    0.14530441396379115    0.14253536104404171    0.13836739086987318    
  0.13476285305949354    0.1341649688144645    0.13884687198444395    0.15080551841064505    0.1610632116150123    
  0.19654747724091687    0.24308106193268908    0.3004474763330705    0.3678921254288741    0.43573206445358525    
  0.48022673372898955    0.48022791283180416    0.43573139058657834    0.3678934674523929    0.30044730889926935    
  0.24308231060992788    0.1965474341902343    0.16106412089430489    0.13672471812564244    0.1217665161437374    
  0.11374342413288267    0.11037937361076153    0.1093985237703001    0.10934756334818203    0.10934711334426285    
  0.10939895014971225    0.11037892644324718    0.11374373934310403    0.12176592291227264    0.1367248284312363    
  0.1610632116150123    0.17644504378414325    0.22090985700344304    0.27739170296873894    0.3471413516169332    
  0.43407197094732786    0.52872864351737    0.5945290881761673    0.5945280893415106    0.5287302045089348    
  0.43407149383878685    0.3471427799699708    0.27739154710271396    0.22091102002193883    0.17644483879288386    
  0.14475927308710643    0.12425946764492124    0.11230873242909323    0.10642384420384342    0.10397793586990806    
  0.10325467371825825    0.10325512500480817    0.10397757175297027    0.10642434321391632    0.11230828699039931    
  0.12425988937801764    0.1447585972664981    0.17644504378414325    0.1941222717400425    0.2383058286246571    
  0.29367817251823897    0.36262568852425814    0.45128419444997225    0.5512181689203464    0.6227786390712503    
  0.6227798982360605    0.5512174456139187    0.4512856345223806    0.36262535707082816    0.2936794680947331    
  0.23830570959241465    0.19412321394304008    0.16229607125840925    0.1417794545652996    0.13031580892450775    
  0.12557694881565826    0.1245902779622143    0.1249747064709861    0.12497422194192986    0.12459091114358585    
  0.12557651984856574    0.13031641604803942    0.14177889105198418    0.16229645128379053    0.1941222717400425    
  0.21002039286213806    0.24382040695574492    0.28746521732615576    0.3430661676068698    0.4144556203473758    
  0.4931052191868069    0.548542953965687    0.5485419871767783    0.4931064986000087    0.41445507996180747    
  0.34306748233705425    0.2874650486290166    0.24382162608446742    0.21002017704174758    0.18681142303847462    
  0.17348047263089217    0.16877321919539034    0.17084327242724684    0.17600353287296602    0.18028889490644087    
  0.18028960718190964    0.17600293358094818    0.1708439364215001    0.1687726496447631    0.17348097509588517    
  0.18681059913293707    0.21002039286213806    0.21963934122155443    0.23482020352688532    0.25855251481142427    
  0.2919682671280156    0.33571529769056796    0.38198330663435437    0.413388136494508    0.41338908498548693    
  0.38198261813156115    0.3357164969670378    0.2919679367117272    0.2585537902002562    0.23482012162469648    
  0.21964053418454643    0.21343859041722732    0.2156976591572984    0.22641008003336113    0.2445344184946243    
  0.2644734285636065    0.27806456566509086    0.2780637200078961    0.2644741737905924    0.24453348694535934    
  0.22641062361948416    0.2156966771656375    0.21343883074207678    0.21963934122155443    0.21963992204561789    
  0.21343840693835    0.21569728387833287    0.22641023403100113    0.24453446529694056    0.2644739334148966    
  0.2780650722575847    0.2780643239641017    0.2644748275639665    0.24453407633873014    0.22641130737227613    
  0.21569721725220642    0.21343974092668289    0.2196400447545693    0.23482122111179296    0.25855309190767617    
  0.2919690404449356    0.33571554019913635    0.3819835592640458    0.41338781545697284    0.413388625028284    
  0.38198198084454005    0.3357158401690411    0.29196754607545605    0.25855313577055683    0.23481978797779146    
  0.21963992204561789    0.21002016748322333    0.1868112284113345    0.1734806305070709    0.16877326450312383    
  0.1708436988397474    0.17600387684774246    0.18028945795471837    0.18029010847928836    0.17600340848497642    
  0.17084458685275972    0.16877312100110678    0.17348186827132758    0.18681145142133432    0.2100218300858942    
  0.2438216933277643    0.2874668528181331    0.3430673344480721    0.41445707695431505    0.49310626546153274    
  0.5485439460557742    0.5485423325373735    0.4931063787247684    0.41445474280555833    0.3430670379495808    
  0.28746490768012295    0.24382125464665502    0.21002016748322333    0.19412308033377096    0.16229621329358132    
  0.14177942708704552    0.13031609254907311    0.12557711330857052    0.12459062840107342    0.12497501624809802    
  0.12497457473187637    0.1245913311613867    0.1255769438202356    0.1303170823047626    0.1417796326643626    
  0.16229778992930632    0.19412375292654852    0.23830798610883946    0.2936800687707765    0.36262801112945386    
  0.4512862977665916    0.5512208171321938    0.6227809460373739    0.6227815885666473    0.5512181456327955    
  0.4512856945774939    0.3626254062538446    0.2936793104190547    0.2383057765747888    0.19412308033377096    
  0.17644497604732307    0.1447591985479913    0.12425957330021913    0.11230870305886889    0.10642398867301005    
  0.10397804370609504    0.10325489649209806    0.10325541685954755    0.10397788699310974    0.1064248970091489    
  0.11230891289892549    0.12426094657308619    0.14475985862752752    0.1764470248130287    0.22091209434411344    
  0.27739450029128315    0.34714399889822184    0.43407522233749557    0.5287321294560821    0.5945327518125817    
  0.5945307839638349    0.5287317095060856    0.4340723088207374    0.3471430175039972    0.27739182324889516    
  0.2209110032512182    0.17644497604732307    0.16106405842894608    0.13672463957116984    0.12176637985497145    
  0.11374336563821201    0.11037931104746704    0.10939856983795879    0.10934769122740773    0.10934737692233708    
  0.10939948350159404    0.1103795391482977    0.1137447507031536    0.12176704424504131    0.13672657161439192    
  0.16106511426494746    0.19655013896788706    0.24308381026163467    0.3004508401797216    0.36789545360491505    
  0.4357359120357355    0.4802303352916393    0.4802309018546947    0.43573339126662913    0.36789455161282975    
  0.30044788452150445    0.24308255243984295    0.19654758044083415    0.16106405842894608    0.15080547550270662    
  0.1388475111853275    0.13416462626526235    0.1347632431374548    0.13836697189541575    0.1425358191048405    
  0.1453041472945018    0.14530485535298068    0.14253606066258803    0.13836854896454698    0.13476409769487496    
  0.13416662636111534    0.13884865076570788    0.15080774731391353    0.17124957541715058    0.20011049537280368    
  0.2362950586056712    0.2767870156513467    0.3143586125799702    0.3376883634775216    0.3376869619888225    
  0.31435839114534403    0.27678447208700796    0.23629397168782487    0.20010796258376384    0.17124828181205873    
  0.15080547550270662    0.14721499845964614    0.15080543500740118    0.1610640211198673    0.17644490040362418    
  0.1941231999654581    0.21002043407323773    0.21964077099455678    0.21964052037148937    0.21002218471620265    
  0.1941242764726794    0.17644735399513056    0.16106545362465982    0.15080783194002143    0.14721626943987545    
  0.15080776130897094    0.16106524605578115    0.17644732001273347    0.19412421384847958    0.21002255412011928    
  0.21964096774532524    0.21964144562228882    0.21002102978270357    0.1941237684966774    0.17644524858041594    
  0.16106428257151068    0.15080552624735874    0.14721499845964614    0.15080548790528747    0.17124819780520215    
  0.20010766022436785    0.23629341822256467    0.2767837767647657    0.31435723014048433    0.33768590794936326    
  0.33768726229454726    0.31435812575044747    0.27678664756156235    0.23629526590603478    0.20011060679118226    
  0.17124978882475494    0.15080781716242492    0.1388486559097086    0.13416661751115153    0.13476398017860394    
  0.13836860854457575    0.14253608513351787    0.14530519296717992    0.14530434164297398    0.14253625734620445    
  0.13836721275278346    0.13476358323675    0.13416481491754964    0.13884766527547146    0.15080548790528747    
  0.16106416263350437    0.19654750800861087    0.24308226077315712    0.30044735907519865    0.367893671073898    
  0.4357321023332955    0.4802291520238106    0.48022889868754004    0.43573476797940486    0.3678951465010354    
  0.3004506720555434    0.24308418784671945    0.1965503517832142    0.161065363800707    0.1367266032855103    
  0.12176703496948185    0.11374471971660927    0.11037946079079075    0.10939950568581368    0.10934741046591362    
  0.10934786388375288    0.10939868486031887    0.11037952085881221    0.11374348778322985    0.12176656691560496    
  0.13672473918487685    0.16106416263350437    0.17644502501983797    0.2209109851805419    0.2773915393269091    
  0.3471425308364496    0.4340715419990901    0.5287302049151187    0.594529044768922    0.5945306074672111    
  0.5287308736230962    0.43407425497424157    0.3471440457154053    0.2773945990878345    0.2209125693952194    
  0.17644723476061397    0.14476004272763474    0.12426096963271796    0.11230891188591671    0.10642483905348601    
  0.1039778315059828    0.10325541556401126    0.10325481607399568    0.10397812466755738    0.1064239738731179    
  0.11230884873471235    0.12425965835796478    0.14475937920666018    0.17644502501983797    0.19412326622057155    
  0.23830578888527792    0.29367917980264663    0.3626250646482646    0.4512850145041798    0.5512170068124425    
  0.622779622553574    0.6227790628774071    0.5512190857481211    0.4512856932402503    0.3626276275795923    
  0.2936805733749537    0.23830832396442056    0.19412423947363733    0.16229793516390975    0.14177982175581236    
  0.13031705707240385    0.12557692679488022    0.12459119662942723    0.12497444219277194    0.12497489552580653    
  0.12459050367155015    0.12557706446882863    0.13031604269340025    0.14177952916619332    0.16229631745611764    
  0.19412326622057155    0.21002030316210082    0.24382143892733932    0.28746482085697245    0.3430667960986589    
  0.41445429083868013    0.4931052831034826    0.5485410134267964    0.5485422933350687    0.49310533217370506    
  0.4144563421044416    0.34306757657113846    0.28746706498671126    0.2438224497619288    0.21002216786226188    
  0.18681196984296547    0.1734819532586164    0.1687732750999802    0.17084436492066937    0.17600328979652458    
  0.18028978647634863    0.18028918577522826    0.17600361136572282    0.17084343566090643    0.16877322182393012    
  0.17348064299913252    0.1868114021505685    0.21002030316210082    0.21964021782157764    0.23481993949206467    
  0.25855323641876515    0.2919673965775618    0.33571543487285277    0.38198146279733286    0.4133877152581133    
  0.41338709617753555    0.38198280581999483    0.33571557103086735    0.2919690292999341    0.2585537932646179    
  0.23482163440319465    0.2196408113900859    0.21344006570462296    0.215697681834547    0.22641133252096865    
  0.24453414157013476    0.2644744860422099    0.2780640667959278    0.2780645281694097    0.2644734692234616    
  0.24453411100622735    0.22641004045337418    0.21569732737131647    0.21343853712276353    0.21964021782157764    
  0.21963963965392205    0.21343909714887124    0.21569681488854198    0.22641063794178065    0.24453334161368775    
  0.26447380942909615    0.2780633898618068    0.2780641015946878    0.2644733892439366    0.24453429292879122    
  0.2264105597481131    0.2156979879456476    0.21343942679834868    0.21964101914463555    0.23482097408617392    
  0.25855408353510156    0.29196843861589067    0.33571639104528533    0.3819826472405602    0.41338856852778166    
  0.4133876547151733    0.381982643064984    0.33571496575429727    0.2919680605214299    0.2585525740802002    
  0.2348203923881843    0.21963963965392205    0.21002070064169798    0.18681084822751437    0.17348113941146906    
  0.1687726749485802    0.17084395882995862    0.17600285861242637    0.1802893999710182    0.18028884171667706    
  0.17600339182887428    0.17084350718174046    0.16877332837728523    0.17348102983327657    0.18681184465619696    
  0.21002106796267925    0.2438220995644803    0.28746593405958565    0.3430677857667638    0.4144556086092387    
  0.4931063953289975    0.5485420940132518    0.5485424467138272    0.49310496822956734    0.4144551538670191    
  0.3430661880701111    0.28746532655936924    0.24382071243111744    0.21002070064169798    0.19412256974225295    
  0.16229666033214218    0.14177901231021847    0.13031646562654634    0.1255765037352691    0.12459083396961207    
  0.12497417123924119    0.12497460713865684    0.124590337560406    0.12557692602541343    0.1303161268569359    
  0.1417796159034842    0.16229671053321712    0.19412365895390815    0.2383066440254966    0.2936799712226001    
  0.3626262514398407    0.4512860225339411    0.5512182377043356    0.6227802069406408    0.6227790652390252    
  0.551217991650042    0.4512842922817704    0.3626256741702457    0.29367843164768725    0.23830609661194782    
  0.19412256974225295    0.17644526203121721    0.14475871296606316    0.12425995645361845    0.11230827727442308    
  0.10642432149100842    0.1039774505306116    0.10325507032243438    0.10325457825480644    0.10397785230697311    
  0.10642386282375162    0.11230873299106445    0.12425976603990298    0.14475953602377511    0.17644550669535222    
  0.22091157713186899    0.277392563016004    0.34714336789586686    0.43407267906885816    0.5287309340621729    
  0.5945293740397796    0.5945296006647479    0.5287293666995377    0.4340721182822094    0.34714176899243726    
  0.2773919291164808    0.22091024958334096    0.17644526203121721    0.16106341828587428    0.13672494189587264    
  0.12176585753746125    0.11374368762617514    0.11037876392716306    0.10939882084715127    0.10934690816915021    
  0.10934733686463034    0.10939836523723212    0.1103792205806314    0.113743388871175    0.1217665208020268    
  0.1367249445129736    0.16106442086814823    0.19654818748080466    0.24308293328617075    0.3004484080509047    
  0.36789433352932194    0.4357328467366812    0.4802288707688754    0.4802280240872668    0.43573260971193506    
  0.3678928327724532    0.3004478229153716    0.24308155669725903    0.1965477073149672    0.16106341828587428    
  0.15080559892123455    0.13884684742226072    0.1341648761592359    0.13476259632661627    0.13836722031295817    
  0.14253497775676774    0.14530412082359648    0.14530355049896515    0.14253557005814446    0.13836680984080837    
  0.1347632495750728    0.13416473946136093    0.1388477009203856    0.15080579896412963    0.17124861969757432    
  0.20010835358758242    0.23629409678984742    0.27678454696658034    0.3143575490694817    0.33768584111705624    
  0.337686165448997    0.31435651529652237    0.2767842855836166    0.23629285361323105    0.20010799102600826    
  0.17124747460695303    0.15080559892123455    0.1472142177864409    0.15080552045446688    0.16106318235797137    
  0.17644507007307983    0.19412220640103484    0.21002043676065046    0.2196391918327769    0.2196399100537982    
  0.21001995303575813    0.19412302958088665    0.17644484689679524    0.16106409646824635    0.15080557477272477    
  0.14721514690034015    0.15080578870038022    0.16106443654917615    0.17644544065611467    0.19412361470301176    
  0.2100206987764419    0.2196404964122703    0.21963991598627944    0.2100209275954585    0.19412274250422235    
  0.17644534170301598    0.16106347483137026    0.15080562908040285    0.1472142177864409    0.1508055586312532    
  0.1712472441321598    0.19654750506364638    0.22090986122946474    0.23830593699483957    0.2438203343624622    
  0.23482029409206429    0.21343827776790633    0.18681130296553322    0.16229615480871665    0.14475932512311135    
  0.13672477368684363    0.1388477730400126    0.15080578855238774    0.17124862097342508    0.19654802737073665    
  0.22091147129812058    0.2383062606606441    0.24382172072477584    0.23482019660760822    0.21343922348252553    
  0.18681096499403105    0.16229670223508913    0.14475878728501831    0.13672494424821544    0.138846894612252    
  0.1508055586312532    0.1712472842937934    0.2105895227677553    0.254711811866204    0.29654515048861896    
  0.3325590390382842    0.356288244846283    0.3541336230108287    0.32197340069759    0.2729020778855959    
  0.22355196523330545    0.18378243584049872    0.15698507955097746    0.1427430051226084    0.13884781143599242    
  0.14274316466479356    0.15121194856991627    0.16022292494668555    0.16554793273080579    0.1643112967187784    
  0.15661728144323853    0.14471764072878046    0.13227193968974826    0.12307148834440734    0.12027587456295913    
  0.12625542843979345    0.14274299983804475    0.1712472842937934    0.2001077249116647    0.25471182436577156    
  0.30848598330271365    0.3547361896492464    0.4057714871679337    0.46229653665663983    0.4869612477924995    
  0.4518472291174674    0.3765760445319604    0.29560580633399497    0.22886103064262836    0.18136210602023825    
  0.15121177330663368    0.13416475216580775    0.12625615278932192    0.12404810031654685    0.1244760000356197    
  0.1245762825222113    0.12229175856823964    0.11774870540379417    0.11221655191101061    0.10777693337718011    
  0.10706349418274926    0.11302115191961529    0.1287199501678084    0.15698417082609928    0.2001077249116647    
  0.236292382600051    0.29654505756779187    0.34359194098942497    0.3747753224841844    0.42703103003505455    
  0.5164062545038901    0.5813572249787953    0.5556895266454341    0.4611328693813785    0.3536276238544312    
  0.2646638687188495    0.2014098136966829    0.16022261584611694    0.13476343111928615    0.12027550771581857    
  0.1132871919241168    0.11084400667594548    0.11047742812588646    0.11032569806719057    0.10976149688710264    
  0.10900257481483754    0.10957190494844726    0.11382471151110435    0.12498096097341498    0.14713660709398413    
  0.18378258234144243    0.236292382600051    0.27678371274354324    0.33255900311255343    0.36668190019434693    
  0.38197879037276994    0.4270044567756598    0.5233834408311966    0.6030017522384622    0.5837007585323035    
  0.4852787364459646    0.3711787447455515    0.27650988106453944    0.20929261539682456    0.16554784124359237    
  0.13836689131304736    0.12307197195101177    0.11645048221989947    0.11588656805621803    0.11928122671308743    
  0.12456254638227136    0.12995831348860679    0.13432782832153212    0.13876501963439006    0.14594363220115358    
  0.15961620003004134    0.18443048300085427    0.2235509599662787    0.27678371274354324    0.3143557040095344    
  0.35628808964914405    0.3807746942536577    0.39170736649732435    0.4261230310126402    0.4959415681934633    
  0.5465600822788916    0.5208600049589851    0.4357158495309218    0.3391962279571451    0.25869514256865905    
  0.2012828302356069    0.16431108723591126    0.14253588498203085    0.1322714018139936    0.13115018195790878    
  0.1377970636127115    0.1506371358998885    0.16684138005348523    0.1828872305497655    0.19495738302832133    
  0.20248579167459457    0.20914134154181108    0.22052479487585377    0.2412831031175216    0.2729023539767256    
  0.3143557040095344    0.33768524462898014    0.3541336018574135    0.3643331675120334    0.37050088261092823    
  0.3885264788835798    0.4181929309289893    0.4298227746704234    0.40004913968344946    0.3398586740026414    
  0.27433486839772037    0.2192934904538457    0.18033673838598513    0.15661741755020817    0.14530387018805546    
  0.14471831440204558    0.15421814474927628    0.17440493117046013    0.20461010893440565    0.24068666588909712    
  0.27518139437569533    0.2978107323517074    0.30393313097518126    0.30109984274541246    0.3014761166782675    
  0.3094574715928523    0.32197252283424216    0.33768524462898014    0.33768476770409167    0.32197317278945164    
  0.309457007318784    0.30147699134017336    0.30109939378274386    0.30393419545692346    0.2978101597653583    
  0.27518237244096616    0.2406859255335014    0.2046109094454083    0.17440416412847412    0.15421886911785304    
  0.14471770318842092    0.14530473143581005    0.1566169371848186    0.18033785533551783    0.21929308917668042    
  0.2743362337500401    0.33985809943125583    0.40005043414372815    0.4298216577206118    0.41819349661667643    
  0.3885253118380291    0.370501457723677    0.364332503365961    0.3541343279976748    0.33768476770409167    
  0.31435660323763953    0.2729020729313192    0.24128381294584175    0.22052440077526136    0.2091421752036438    
  0.2024854508943178    0.19495828946142932    0.18288682871371628    0.16684229663667421    0.15063668985388678    
  0.13779792295090654    0.13114979672253585    0.13227240843912702    0.14253568006563128    0.16431246885899495    
  0.20128281460510905    0.258697047287155    0.3391963548765586    0.43571824940587195    0.5208599408127474    
  0.5465617643459121    0.49594035450888563    0.4261233311868417    0.3917062747676521    0.38077550672843735    
  0.35628781022579586    0.31435660323763953    0.2767836381931607    0.2235517395234239    0.18443022248365826    
  0.1596168136708259    0.14594331495460003    0.1387656916678778    0.1343275140234459    0.12995911495972148    
  0.12456226053196674    0.11928212260398555    0.11588638318936981    0.1164514941230418    0.12307193961256416    
  0.1383682993297379    0.16554809024907988    0.20929470995453464    0.27651055787752327    0.37118181656413834    
  0.48527984969737165    0.5837042770198749    0.6030018811728153    0.523384531778769    0.4270029172029758    
  0.38197917558719113    0.3666813621884846    0.33256011843093825    0.2767836381931607    0.2362933854674187    
  0.1837824434534428    0.14713716695238946    0.12498064607885591    0.1138252338021425    0.10957159552647834    
  0.10900324598816259    0.10976129077472799    0.11032656142660577    0.11047735315189616    0.11084510541669138    
  0.11328728932383236    0.12027689834906129    0.134763797756353    0.16022454115799442    0.20141060152894077    
  0.26466674554223724    0.35362909605608356    0.4611370059491653    0.5556914248105431    0.5813606204101108    
  0.5164059902849342    0.42703190303368543    0.374774498586334    0.34359307516161    0.2965450923668088    
  0.2362933854674187    0.20010772862230197    0.1569848467598261    0.12871972158691106    0.11302160384943283    
  0.10706319552169051    0.10777748486108751    0.11221636946670221    0.11774955201081955    0.12229185214927973    
  0.12457751347728942    0.12447631411418687    0.12404958817443777    0.12625664784204768    0.13416651507858632    
  0.15121253749355146    0.18136444264880927    0.22886223081839424    0.2956092210259748    0.37657789677613246    
  0.4518514123212577    0.486962745674337    0.4622991441555614    0.4057713999936055    0.3547375964996344    
  0.30848610526756565    0.2547130553485897    0.20010772862230197    0.17124815668283225    0.14274289254922753    
  0.12625591940708017    0.12027558659197682    0.12307202171862221    0.13227168353263918    0.14471853633615406    
  0.15661740025516135    0.164312746207864    0.16554852175428716    0.16022472132360807    0.15121273243366481    
  0.14274504171695257    0.13884862882912982    0.14274503196935606    0.15698597788268026    0.18378487657622872    
  0.2235532191540015    0.27290514325066817    0.3219748857951115    0.3541367023156877    0.3562891395907242    
  0.3325610309907807    0.2965453864098778    0.25471324071889845    0.210589642989385    0.17124815668283225    
  0.1508054620221443    0.13884753775190567    0.1367247082255787    0.14475929880322513    0.1622964357941278    
  0.18681173974778587    0.21343930851420043    0.23482175462178595    0.2438224515422613    0.2383084915198438    
  0.22091265882088093    0.19655041604996815    0.17124976346431692    0.15080784934290248    0.13884862990669947    
  0.13672667386766732    0.1447600512650539    0.1622982087337644    0.1868120317233067    0.21344049985789876    
  0.23482089093654482    0.24382226450843317    0.2383061485416025    0.2209112345566483    0.1965475980950429    
  0.17124822833288406    0.1508054620221443    0.13884755786065722    0.1427428933939971    0.15698493883835257    
  0.18378250019767298    0.2235520795855668    0.27290266558872067    0.3219745527945773    0.3541355565418046    
  0.3562907046742523    0.3325617909909075    0.29654833950513576    0.254715190255921    0.21059276158395812    
  0.17124973317681377    0.1427450355938625    0.1262567113592789    0.12027703133907947    0.1230722394585642    
  0.13227273867647768    0.14471813895604962    0.15661777044731695    0.16431143126227496    0.1655479657272056    
  0.16022270471672664    0.1512116990603548    0.14274286747902115    0.13884755786065722    0.13416468821588698    
  0.15121160464474562    0.18136205867581953    0.22886083599222667    0.29560594572220383    0.3765762731405265    
  0.45184834313834255    0.4869626116295189    0.46229793315016815    0.4057725287370987    0.3547380152053553    
  0.3084889905667084    0.25471515344937595    0.2001105280673756    0.15698604843194547    0.12872129889617182    
  0.11302189815580053    0.1070641181372811    0.10777724768348369    0.11221689449730976    0.1177488308057718    
  0.1222918786768391    0.12457625006146465    0.12447590214174561    0.12404799235392416    0.1262559690347136    
  0.13416468821588698    0.13476333926579895    0.16022261130080645    0.20140958342091686    0.2646636725393394    
  0.3536271495442078    0.4611325938335564    0.555689567110736    0.5813576182112254    0.5164056993446506    
  0.4270298786802213    0.37477508205885285    0.3435937574274917    0.2965481783996962    0.23629513927963272    
  0.18378463173085843    0.14713776419997274    0.12498173887047453    0.11382508617411781    0.10957217629374683    
  0.10900271145855656    0.10976156375531755    0.11032571656280649    0.11047737578062461    0.11084398148373034    
  0.11328707862069594    0.12027550972113316    0.13476333926579895    0.13836693199969718    0.16554763340517867    
  0.2092925326114745    0.2765093604419441    0.371178084933807    0.48527763139054964    0.5837000416358681    
  0.603000845090418    0.5233822405164873    0.427002711263449    0.38197805000616236    0.36668308659614873    
  0.33256177122404296    0.2767865046859756    0.2235529761228704    0.18443181375308348    0.15961692292079535    
  0.14594406838337945    0.13876518995943635    0.13432789664176703    0.12995833599628323    0.12456246310416214    