#     DFTpy    
  CRYSTAL 
    
  PRIMVEC    
  7.400722965192289    5.902962594813794e-07    9.745273826206896e-07    
  5.902963997296552e-07    7.40072550306294    9.851857049572414e-07    
  9.745275072606897e-07    9.851857275779311e-07    7.400724990091094    
  PRIMCOORD    
  16    1    
  Si    1.0920526480284958    6.308671678458612    2.608310216445069    
  Si    6.308670836351678    1.0920549976219756    4.7924137125231665    
  Si    1.0920537605263925    1.0920540338163665    1.0920544181487224    
  Si    2.608314047338704    2.608315130516573    2.6083148580030584    
  Si    6.308669041747899    2.608310398451847    1.0920531939310032    
  Si    1.0920524039763975    4.79241787111069    6.308671620741668    
  Si    2.608309421837211    1.092055221517951    6.3086722162780315    
  Si    4.792413443244916    6.308673389434439    1.0920532828494995    
  Si    4.792413069327619    2.6083155660589226    6.308675663256011    
  Si    2.6083113515897005    4.792411370472641    1.0920496920410068    
  Si    4.792410614836872    4.792415051809309    4.792413611159838    
  Si    6.308671045965293    6.308674532751605    6.308673151523763    
  Si    2.608314337459191    6.308677882658339    4.792413872595797    
  Si    4.792409519559545    1.0920492866050227    2.608312346263426    
  Si    6.308673691793771    4.792414375094381    2.6083150334320213    
  Si    1.0920496058225204    2.6083132427046767    4.792411308516378    
  BEGIN_BLOCK_DATAGRID_3D    
  3d_datagrid_density    
  BEGIN_DATAGRID_3D#0    
  33    33    33    
  0.0    0.0    0.0    
  7.400722965192289    5.902962594813794e-07    9.745273826206896e-07    
  5.902963997296552e-07    7.40072550306294    9.851857049572414e-07    
  9.745275072606897e-07    9.851857275779311e-07    7.400724990091094    
  0.058011446157543445    0.0597852056236398    0.0646708430665003    0.07145898566303971    0.07839364909692344    
  0.08384871059026855    0.08709127236643466    0.08840932289080064    0.08869378331977926    0.08840936962381578    
  0.08709138197683275    0.08384888135279342    0.07839376042859296    0.0714591858231698    0.06467100529623579    
  0.059785502909333425    0.05801160534779532    0.05978554726561701    0.06467128534925554    0.07145940989886997    
  0.07839428074091308    0.08384911841692423    0.08709189158890815    0.08840951683528543    0.0886942155621579    
  0.08840942857728841    0.08709174348126689    0.08384879889701392    0.07839397602982837    0.07145906566756907    
  0.06467102862149146    0.059785266440078616    0.058011446157543445    0.05978517965455125    0.06864148697432566    
  0.08129534519214174    0.09617889266532563    0.11046996008221308    0.12150579567145862    0.12834770666776157    
  0.1315370273383124    0.1323504240174145    0.1315370779129907    0.1283479232416495    0.12150601556555693    
  0.11047020302623561    0.09617914784909921    0.08129566904917156    0.06864166334346067    0.05978545963816175    
  0.055132590582199166    0.05407131848028686    0.05535622302590567    0.057592723766513705    0.059630646957003645    
  0.06082127015225739    0.06123327417905397    0.061301194965373056    0.06123321630632699    0.06082118429861814    
  0.05963053858182219    0.05759251597475619    0.055356092615540496    0.0540710728483015    0.055132470888021264    
  0.05978517965455125    0.06467092678622498    0.08092611059688716    0.10286821253151984    0.12809515588886472    
  0.1522268743951729    0.17121826925231046    0.1835432487659964    0.1897828258380841    0.19154641205650075    
  0.18978296416436374    0.1835435119300759    0.17121861894135526    0.15222725089219147    0.12809556422150656    
  0.10286850097379367    0.08092643006409372    0.06467106603749265    0.0543563249505984    0.048894289985199436    
  0.046678326502250206    0.04621766975124126    0.04638334223892135    0.04652696370840098    0.04653800649771768    
  0.04653007567334464    0.04653799847733642    0.04652696920734764    0.04638325992373987    0.04621759312105513    
  0.04667820905148379    0.048894206883879666    0.054356153867064376    0.06467092678622498    0.07145889510191393    
  0.09438010871428448    0.12531896227719422    0.1608814798503442    0.1952082565405108    0.22319504440145535    
  0.24236840805609353    0.25264268521628175    0.2556884865107066    0.2526428416349427    0.24236881067158483    
  0.22319556183189065    0.1952086562324434    0.1608820124417599    0.12531943114397545    0.09438037371824917    
  0.07145915438752926    0.05661723356002763    0.04810817040502828    0.04383773177383934    0.04199989158802725    
  0.04129327218349319    0.0409741429223172    0.040811141293994734    0.04076138533597219    0.040811129453446726    
  0.040974137537661014    0.04129326581409502    0.04199985612554277    0.04383777204035233    0.04810803771648953    
  0.05661718811338858    0.07145889510191393    0.07839378538279355    0.10542328920359298    0.14209246268264245    
  0.18446378048599257    0.22567448785840274    0.2601475677730164    0.28496079732129487    0.29890258086515176    
  0.3031226974080288    0.29890277987192093    0.2849613078215006    0.26014803476834386    0.2256750028310196    
  0.18446432308525967    0.14209286366860846    0.10542364733449885    0.07839396016064254    0.06095159367260223    
  0.050960796255515334    0.04589785129469987    0.043665283694372024    0.042793576499010944    0.04243787066663536    
  0.04228215416960276    0.04223924719095175    0.04228217257023221    0.04243790730948331    0.042793608086066845    
  0.043665308733367096    0.045897823897921894    0.05096074183116496    0.060951464312923025    0.07839378538279355    
  0.08384861612296635    0.11072162831769991    0.14734427667258257    0.19004188879882533    0.23182473858844274    
  0.2670517756300857    0.2929257655585265    0.3076181823830571    0.31201149966331243    0.30761845246622466    
  0.29292618596982584    0.2670523987210928    0.23182514513047242    0.1900423936170667    0.14734472013566974    
  0.11072192370772822    0.08384881159532943    0.06673529069640506    0.05734547149852862    0.0530334412864608    
  0.051537180266262646    0.051288267417543935    0.05134966365870341    0.05137303659660584    0.0513665955475628    
  0.05137307059613678    0.05134975772585152    0.05128836823631233    0.05153720011292563    0.0530335322620696    
  0.057345388153154986    0.06673523402566546    0.08384861612296635    0.08709145404449378    0.10906845886045605    
  0.13961169897596998    0.17569593603047684    0.2112943201854311    0.2411690190155708    0.26266491503170203    
  0.27446675425642864    0.2778844213637668    0.2744669203245804    0.2626653051747984    0.24116933254553558    
  0.2112947906847225    0.1756963436440139    0.1396121049450969    0.10906882032417019    0.0870915954111748    
  0.0738447000019941    0.06773304575990564    0.06633429046760397    0.0673175433927193    0.0689272828529214    
  0.07010104674426589    0.07059035689955614    0.07068728909461612    0.07059040416978003    0.0701012103975587    
  0.06892739172166075    0.0673176720560765    0.06633429300381806    0.06773304575853294    0.07384461387854017    
  0.08709145404449378    0.08840918202359345    0.10189042102703987    0.12242782644662377    0.14755749974745888    
  0.1727009035454014    0.19351858230291877    0.20780469950164138    0.21531648575884998    0.21748236139468038    
  0.21531665969237274    0.2078048974644521    0.19351901285067763    0.17270118695237427    0.14755795888907572    
  0.12242821905240482    0.10189068534272974    0.08840949856673225    0.08237537374847237    0.08264506462752932    
  0.08708649766435414    0.09314911061791455    0.09856477790339256    0.10207652323560802    0.10373556964570863    
  0.10418417230053396    0.10373567921281225    0.10207667143833331    0.09856494077997079    0.09314913317858875    
  0.08708657996763569    0.08264491129942085    0.08237524965583509    0.08840918202359345    0.08869397019083786    
  0.09213088685395078    0.10172952893958775    0.11534096894077177    0.1296865700289657    0.1415596403096175    
  0.14934688160885287    0.15330522347537734    0.1544609550625874    0.1533052125973185    0.14934711378473736    
  0.14155982983464355    0.12968681448452973    0.11534124887325517    0.10172987061834232    0.09213128843378715    
  0.08869422822656133    0.09213125028933009    0.10173000010717038    0.11534110401024854    0.12968691297998233    
  0.14155937380122025    0.1493470339007979    0.15330463174672768    0.15446090157281817    0.1533047195178925    
  0.14934719784889738    0.14155941006851647    0.1296868683265691    0.11534089945444254    0.10172980809901223    
  0.09213091754720983    0.08869397019083786    0.08840930232611559    0.08237521410793058    0.08264502315609555    
  0.08708637222611845    0.09314937047278711    0.09856475391592089    0.10207700298048132    0.10373568850988923    
  0.10418471734819812    0.10373576752122816    0.10207712105564586    0.09856485740294668    0.09314950557197452    
  0.08708660176670187    0.08264531027351335    0.08237554424409031    0.08840977484344394    0.10189107425774946    
  0.12242855237555574    0.14755840724949143    0.17270141265280958    0.19351935246205956    0.2078046801171433    
  0.21531678767643003    0.21748194182665814    0.21531670419570464    0.2078045590479716    0.1935191348186785    
  0.17270091678452065    0.14755806722945197    0.12242797015308257    0.1018906609358049    0.08840930232611559    
  0.08709164296534369    0.07384469929496676    0.0677329990870389    0.066334440043047    0.06731753524886677    
  0.06892765080074083    0.07010110488943688    0.0705908324854457    0.07068735392456309    0.07059083467979296    
  0.07010118482582031    0.0689276888650091    0.06731765911286847    0.06633467117471537    0.06773324124570419    
  0.07384521102314733    0.08709215985352023    0.10906951525264837    0.13961310544457056    0.17569733161699558    
  0.21129601271198034    0.24117008157228736    0.26266623378857445    0.27446719826748744    0.27788523007175886    
  0.2744669532517642    0.2626658980675845    0.24116928462505616    0.21129511278746863    0.17569629689192023    
  0.1396123065414652    0.10906873565074615    0.08709164296534369    0.08384875915619755    0.0667353302089425    
  0.05734550886636589    0.05303340721412517    0.051537358862106704    0.05128827051311129    0.05134995267192054    
  0.0513730843597597    0.051366938513734264    0.051373085893279914    0.051350019706753125    0.05128838839678159    
  0.05153751848315145    0.053033629284749265    0.05734587023366907    0.06673578400296565    0.08384952100153042    
  0.11072294719799687    0.14734601132006137    0.190044267965882    0.23182683558223052    0.2670544175181865    
  0.2929275291161032    0.30762022645205683    0.312012412962506    0.30761964907701234    0.2929267080922123    
  0.2670531778822835    0.23182532276233245    0.19004295538123356    0.14734465556242612    0.11072209929336611    
  0.08384875915619755    0.0783940898905353    0.060951546983138115    0.05096080571707751    0.04589792561148409    
  0.043665233700035194    0.04279368374175941    0.04243780499897741    0.04228235722941175    0.04223919651959369    
  0.042282401190729006    0.04243792449695468    0.04279386218346122    0.043665417846602814    0.04589819455805465    
  0.050961122386454547    0.060952185033332835    0.07839481836248562    0.10542475783215718    0.14209474052228707    
  0.18446620493119473    0.22567766946024828    0.26015021931144866    0.2849638326796222    0.29890459662312263    
  0.3031249334197893    0.29890400220336594    0.28496269823166376    0.26014861280065077    0.22567588254177165    
  0.18446441025022503    0.14209336626717708    0.10542358994639474    0.0783940898905353    0.07145905896575909    
  0.05661734601482854    0.04810809479526255    0.04383773026678562    0.04199992977213817    0.0412932060419044    
  0.04097420516287064    0.04081109383686725    0.04076159432784919    0.04081115432021    0.04097437861411415    
  0.04129341953555119    0.04200020103300118    0.04383802651181855    0.04810860065084988    0.056617874497349126    
  0.0714599438000372    0.09438168233481146    0.12532098429187374    0.16088438157873627    0.1952109764957777    
  0.22319839927180687    0.24237093627036196    0.2526454925458723    0.25569015839890186    0.2526446960406434    
  0.24236960764795412    0.2231967130939673    0.1952090052660493    0.16088268191502192    0.12531940923266036    
  0.0943806445122843    0.07145905896575909    0.06467124724888185    0.05435617531430369    0.04889430178479606    
  0.04667818578273763    0.046217591350303545    0.04638327301498526    0.046526901782401354    0.04653806961145206    
  0.04653011720149699    0.04653819398130257    0.046527174006955635    0.04638366273652944    0.046217966214353194    
  0.04667872703177413    0.04889476848061609    0.05435691997681352    0.0646719693375209    0.08092741343504217    
  0.10287021285541356    0.12809718322306368    0.15222968900917586    0.1712206271810754    0.18354597122266786    
  0.18978462292790263    0.191548408460188    0.18978401992489116    0.18354496374645615    0.17121912303380837    
  0.15222808662427972    0.12809564862620001    0.1028689664613326    0.08092630434355706    0.06467124724888185    
  0.0597852379352101    0.05513266392585489    0.05407104517562073    0.055356113050408405    0.057592471568994476    
  0.05963048055313833    0.060821117930116485    0.06123325197918242    0.06130138491658782    0.061233498443412374    
  0.06082164693718599    0.05963107615179444    0.057593207643248476    0.05535676963167528    0.05407185807841968    
  0.05513331851339736    0.05978610485726311    0.06864274006823416    0.08129666244258164    0.09618074639193731    
  0.11047158308499377    0.12150793919441841    0.1283492194088985    0.13153879487689538    0.13235140209206292    
  0.13153832376923877    0.1283484202166494    0.12150688242103526    0.11047036630076898    0.0961797056573681    
  0.08129557390622758    0.06864192838003282    0.0597852379352101    0.05801173046627221    0.05978522795760402    
  0.06467115887208319    0.07145898033539093    0.07839394517132452    0.08384870260441557    0.08709163005443708    
  0.08840949871470077    0.08869440417912619    0.08841001213272684    0.08709247359303535    0.08384988878147298    
  0.07839504442923473    0.07146019779656919    0.06467205282510788    0.059786222460465124    0.05801240357408602    
  0.05978612166109687    0.06467200951714365    0.07146000425344683    0.07839504440880858    0.08384973599054049    
  0.08709257454586936    0.08841006955901462    0.08869473398655826    0.08840981570281525    0.08709207530656143    
  0.08384900321411928    0.07839425062975597    0.07145914758850855    0.06467131360608834    0.0597852677065096    
  0.05801173046627221    0.05978527442508076    0.06864184058436183    0.0812954592167546    0.09617930822160771    
  0.11047002158648586    0.12150620774100926    0.12834780117600855    0.1315375995095269    0.1323510701745967    
  0.13153834822365035    0.12834932634684335    0.12150791631689946    0.11047193024859783    0.09618086285976157    
  0.08129695306474602    0.06864281358180033    0.05978618326710641    0.05513327080180486    0.05407175734683535    
  0.055356753813676704    0.05759311906385797    0.05963110880226331    0.060821616956294684    0.06123359755566061    
  0.061301468385932235    0.061233400889533364    0.06082134183904333    0.059630649411015875    0.057592600330086896    
  0.05535623327695496    0.05407114103106291    0.05513268988861276    0.05978527442508076    0.06467124711344892    
  0.08092632937156503    0.10286871934580204    0.12809535855158516    0.15222732295079877    0.1712184153510969    
  0.18354371586535706    0.18978326478579768    0.19154747490564983    0.18978439295587848    0.18354569517484368    
  0.17122096610186371    0.15222978170904639    0.12809773384498965    0.10287034595647225    0.08092772879207874    
  0.06467202698774442    0.05435694868850323    0.048894791466329725    0.04667868211115931    0.046217964386711184    
  0.046383631100817564    0.04652717131391082    0.04653824860985792    0.04653020216629517    0.046538190548700994    
  0.046527023839450794    0.04638337671164382    0.04621762901746521    0.046678287155258534    0.048894357054851796    
  0.054356286868132146    0.06467124711344892    0.07145917571244811    0.09438056450426754    0.12531932199984658    
  0.16088201066871122    0.19520849030759962    0.22319543131246097    0.24236852502899794    0.2526432419603655    
  0.25568939583253897    0.2526445336868926    0.24237112205562636    0.22319836420228145    0.1952116090729153    
  0.16088460984617944    0.1253215488187691    0.09438188071422597    0.0714601480548598    0.05661787903570623    
  0.048108625349549856    0.043838038912716606    0.04200018399431469    0.04129343996876818    0.04097434393898447    
  0.04081116950431083    0.04076156703261567    0.04081107676030795    0.040974255973445305    0.04129322857487448    
  0.0419999750645383    0.04383779406583568    0.04810818900751232    0.05661738741880139    0.07145917571244811    
  0.07839411327183185    0.1054236746580956    0.14209306743895553    0.18446419143395232    0.22567492422263144    
  0.260147617265226    0.2849608286179541    0.2989026719786685    0.30312330715768615    0.2989042515196919    
  0.28496335810954443    0.26015076389827313    0.22567779311226183    0.18446696771410143    0.1420949551996068    
  0.10542524194682867    0.07839492938078105    0.06095228135034245    0.050961153031580095    0.0458981851682461    
  0.04366540874880171    0.04279383645651685    0.042437894706100994    0.04228235989464047    0.04223919378063542    
  0.04228236794317716    0.042437807740928486    0.04279374367132063    0.04366522429494187    0.04589795657342379    
  0.05096080537221723    0.060951678132573094    0.07839411327183185    0.08384895363323908    0.11072206432980516    
  0.14734473120164682    0.1900423908805588    0.2318249065401558    0.2670517731319476    0.29292546437474076    
  0.30761789460648603    0.3120116368478064    0.30761903451377226    0.2929277207556511    0.2670541986051214    
  0.23182753101668413    0.19004447775266609    0.14734667701949108    0.11072324809624723    0.08384981315057553    
  0.0667358511073884    0.057345908880118694    0.053033675177318    0.05153749404401778    0.051288374601101236    
  0.05134994500389953    0.051373034912897284    0.05136681704856879    0.051372998375247385    0.051349909153682816    
  0.05128821049637016    0.051537325249054466    0.05303343994963514    0.05734559275935685    0.06673534923003299    
  0.08384895363323908    0.08709170537612831    0.1090688995579305    0.13961216886782368    0.17569623138715004    
  0.2112944409657027    0.24116872083461902    0.2626643580494136    0.27446612854895636    0.2778839213709107    
  0.27446704461400906    0.26266583657396614    0.2411705250530119    0.21129614637057073    0.17569799722702245    
  0.1396134005493624    0.10906996033994673    0.08709232082741976    0.07384531587466349    0.06773339391248116    
  0.06633467512291312    0.06731775309879587    0.0689276587049008    0.07010118912099565    0.07059067639744747    
  0.07068726889896992    0.07059061422871638    0.07010104712164586    0.06892748160223156    0.06731748949218772    
  0.06633442623310702    0.06773302588383918    0.07384485061427687    0.08709170537612831    0.08840942714592456    
  0.10189071695621653    0.12242815401648834    0.14755779150343143    0.17270083519744767    0.19351836924401114    
  0.2078040633349467    0.2153157930009828    0.217481621661682    0.21531615985189612    0.2078049810705951    
  0.1935193209779056    0.17270196504290736    0.14755872382096383    0.12242908269265472    0.101891318359025    
  0.08841006468812887    0.08237574655792608    0.08264548764207355    0.0870867530344077    0.09314948622268172    
  0.09856496461787564    0.10207692426758078    0.10373566821331452    0.10418442523287368    0.1037355243991425    
  0.10207675363082025    0.09856462387243974    0.09314915812602184    0.08708638006946727    0.08264503911075384    
  0.08237528470859988    0.08840942714592456    0.08869411211175764    0.09213105082557733    0.10172977152435161    
  0.11534102563167696    0.1296866196292428    0.14155929354903649    0.14934647770922005    0.1533044991008694    
  0.15446027774996782    0.15330469608849223    0.1493467502451428    0.14155980738049984    0.12968691567540078    
  0.11534161786202919    0.10173014902856362    0.09213160760696179    0.08869445396899063    0.09213149496858682    
  0.10173017901293986    0.1153413759921327    0.12968710051152232    0.14155972739384107    0.14934719131301627    
  0.1533049439534777    0.15446085011924174    0.15330480618223782    0.14934685014198024    0.14155932584566366    
  0.12968651713891233    0.11534079145704602    0.10172964677210936    0.09213095865744096    0.08869411211175764    
  0.08840930255778133    0.08237533061502963    0.08264507354073221    0.08708648394238633    0.09314926423483398    
  0.09856461317047893    0.10207663087867197    0.10373530260706451    0.10418418648906236    0.10373527088900594    
  0.10207678344398288    0.09856467469752679    0.09314941738995017    0.08708661739213713    0.08264543531127512    
  0.08237559287498628    0.08840979113622752    0.1018910484711031    0.12242849984237596    0.1475583531467446    
  0.17270135918574467    0.19351932707788858    0.20780478619686665    0.21531668516320068    0.21748188198481538    
  0.2153162764577667    0.2078043235721712    0.19351851697762837    0.17270058856194745    0.14755763200436464    
  0.1224278247271053    0.10189053776342591    0.08840930255778133    0.08709158498918398    0.07384472879715001    
  0.06773309973313553    0.06633439466387794    0.06731752433624824    0.06892749519342108    0.0701009713266397    
  0.07059054257134063    0.07068710215153436    0.07059051051506536    0.07010090095824442    0.06892746262049695    
  0.06731752662085509    0.06633458286499648    0.0677331539279609    0.07384509434958882    0.08709197777405495    
  0.10906922703478775    0.13961277681024303    0.17569690950456943    0.21129558838607546    0.2411696893830208    
  0.2626658367274018    0.274466822714724    0.27788454719300587    0.2744664711366368    0.2626650809214843    
  0.24116873025744182    0.21129440738681124    0.17569589287554319    0.13961196960014688    0.10906863082496335    
  0.08709158498918398    0.08384870659715235    0.06673531422068439    0.05734550441789939    0.053033425547961095    
  0.05153733011337142    0.05128822973414732    0.05134983046260635    0.05137292153671625    0.051366735540884376    
  0.051372875901859516    0.051349823667330284    0.051288176352010335    0.05153735329715848    0.05303341235635486    
  0.05734570808309103    0.06673551208414157    0.08384919304393974    0.11072242305645025    0.14734535393372547    
  0.19004336216408957    0.2318258644852887    0.2670533395750197    0.2929265307237174    0.307619083820086    
  0.31201150403293443    0.3076186464135374    0.29292585026813617    0.26705216099668766    0.23182467199523601    
  0.19004237505367474    0.14734435546872443    0.1107218682769099    0.08384870659715235    0.07839394508948999    
  0.06095154839678703    0.0509607370849553    0.0458979402699782    0.043665200876779144    0.04279368932313412    
  0.04243775898191426    0.04228227216299328    0.042239064120896744    0.04228227649282587    0.04243773205361229    
  0.042793700270558954    0.043665165098216684    0.045898015415229046    0.050960812523823576    0.06095186279300035    
  0.07839428883905332    0.10542409238779113    0.14209372192788422    0.18446505637786983    0.225676246539526    
  0.26014883554409074    0.2849623173872712    0.2989032322798747    0.3031235352916405    0.2989028241721081    
  0.28496158015329887    0.26014779174505714    0.2256750434554699    0.18446398873239495    0.14209282776294507    
  0.10542342674530157    0.07839394508948999    0.07145900795759917    0.05661720199622644    0.04810813599187914    
  0.0438376580590467    0.04199996178212887    0.04129311331408482    0.04097419558761478    0.04081095800128329    
  0.04076151985896312    0.040810944731082266    0.04097423911841877    0.041293105667568296    0.041999993430627    
  0.04383767402639471    0.04810831197892484    0.0566174051224948    0.07145944951766499    0.09438085441527402    
  0.12532002700663944    0.1608829655459056    0.19520956124710775    0.22319672689633824    0.24236939909118735    
  0.25264381572334205    0.2556888794302058    0.2526433944575163    0.2423687584791467    0.22319569515669796    
  0.19520851249795496    0.16088207935223292    0.1253192062026408    0.09438034334917247    0.07145900795759917    
  0.06467100989734233    0.054356203996337886    0.048894116574149056    0.04667824268569457    0.046217456189157624    
  0.04638329306123889    0.04652674547961393    0.04653802643026951    0.046529884548799104    0.046538029358020185    
  0.04652675361604707    0.04638335519293452    0.046217477250841944    0.046678358530355506    0.04889423309325508    
  0.05435649154175978    0.06467127671194742    0.08092675975425666    0.10286915834772879    0.12809611592436473    
  0.15222824078431732    0.1712193138387805    0.18354446632264657    0.18978341664320658    0.19154722768624396    
  0.1897831553026883    0.1835440756812683    0.17121860956226126    0.15222746715782204    0.12809539091247055    
  0.10286855812303261    0.08092629156933479    0.06467100989734233    0.05978522773035659    0.055132417251223545    
  0.05407106821988372    0.05535589469031109    0.057592515291240765    0.059630253706026516    0.06082114106551867    
  0.06123297167945393    0.06130120319196903    0.06123293954518435    0.06082121081122851    0.059630321723140194    
  0.05759261825197017    0.05535599579095825    0.054071302248421285    0.05513258316560485    0.059785574691927766    
  0.0686419292554765    0.08129599017162757    0.09617971527028356    0.1104706513878409    0.12150681959483292    
  0.12834828378448115    0.1315377759051871    0.13235072540256707    0.13153762847203845    0.12834796291517417    
  0.12150635273717075    0.11047014671678768    0.09617935321472476    0.08129550524865088    0.06864163879321115    
  0.05978522773035659    0.058011446157543445    0.0597852056236398    0.0646708430665003    0.07145898566303971    
  0.07839364909692344    0.08384871059026855    0.08709127236643466    0.08840932289080064    0.08869378331977926    
  0.08840936962381578    0.08709138197683275    0.08384888135279342    0.07839376042859296    0.0714591858231698    
  0.06467100529623579    0.059785502909333425    0.05801160534779532    0.05978554726561701    0.06467128534925554    
  0.07145940989886997    0.07839428074091308    0.08384911841692423    0.08709189158890815    0.08840951683528543    
  0.0886942155621579    0.08840942857728841    0.08709174348126689    0.08384879889701392    0.07839397602982837    
  0.07145906566756907    0.06467102862149146    0.059785266440078616    0.058011446157543445    0.05978519926594296    
  0.06864144256790229    0.08092613888406985    0.09438000910929586    0.10542339399448569    0.11072148005661488    
  0.10906862580603968    0.10189029152574082    0.09213100431970758    0.08237508597232131    0.07384479364548785    
  0.06673517322438247    0.06095164745363482    0.05661716462745325    0.054356403869765674    0.055132564118453235    
  0.05978555918994798    0.0686419004627269    0.08092670315865107    0.09438081237021206    0.10542398148302551    
  0.1107223654518073    0.10906899362053946    0.1018908475353182    0.09213108924198396    0.08237538914345818    
  0.07384477809049819    0.06673530601552664    0.060951532748637696    0.05661723798768606    0.05435618501904773    
  0.055132459200024075    0.05978519926594296    0.06864148925556059    0.08710962262483658    0.11135769547967846    
  0.13757051155991118    0.15917475228653644    0.17011615024616875    0.16817989733500766    0.15572037199102431    
  0.13818550617061592    0.12029902383651041    0.10434488527915911    0.0908621864909647    0.07940623038517938    
  0.06958092544560185    0.061789423390362655    0.05680246406779937    0.055132580818423135    0.05680248214131494    
  0.06111144729028787    0.06656898761684453    0.07122037768680489    0.0732883007065792    0.07207802282943468    
  0.06830050948540423    0.06331839355002628    0.05841043936609678    0.05428607298690618    0.05107934187346265    
  0.04897510966174352    0.04849425307839692    0.05061765954705261    0.05680220376908167    0.06864148925556059    
  0.0812953508374511    0.11135777992256546    0.15101476658125237    0.19364358830218584    0.22872332688268113    
  0.24768841948436016    0.24701135417775255    0.22876200424527934    0.20069935103102415    0.17108200655357297    
  0.1445418031288916    0.12214578574791657    0.10296382771096149    0.08614856035956252    0.07194120659219147    
  0.06111126693997645    0.05407126713599978    0.0506177709741552    0.04997872722433918    0.05096764030261063    
  0.05228593535536929    0.052790383945283195    0.0519688944083877    0.05013067034818004    0.047833441822341394    
  0.045652658196880455    0.04396088136994662    0.042959672714661196    0.043079075598494644    0.045161555030846914    
  0.05065293918041148    0.06178936999457559    0.0812953508374511    0.09617903892060538    0.1375704595180174    
  0.19227049704297086    0.249679321242034    0.2958743274936659    0.3230317168319743    0.32728593395267475    