#     DFTpy    
  CRYSTAL 
    
  PRIMVEC    
  3.0057931034482754    0.0    0.0    
  0.0    3.0057931034482754    0.0    
  0.0    0.0    3.0057931034482754    
  PRIMCOORD    
  4    1    
  Si    0.0    0.0    0.0    
  Si    0.0    1.5028965517241377    1.5028965517241377    
  Si    1.5028965517241377    0.0    1.5028965517241377    
  Si    1.5028965517241377    1.5028965517241377    0.0    
  BEGIN_BLOCK_DATAGRID_3D    
  3d_datagrid_density    
  BEGIN_DATAGRID_3D#0    
  13    13    13    
  0.0    0.0    0.0    
  3.0057931034482754    0.0    0.0    
  0.0    3.0057931034482754    0.0    
  0.0    0.0    3.0057931034482754    
  0.05742636944582875    0.11880771484059836    0.35528602587222335    0.5786906712905294    0.5689965100842772    
  0.4932333970757498    0.4634040225438871    0.49323338952799817    0.568996468536635    0.5786907583955334    
  0.35528607617112407    0.11880770455541184    0.05742636944582875    0.11880768636062612    0.19662890120808363    
  0.43362434358217933    0.6128558859870868    0.5905596034285989    0.5205633209465511    0.49323342161098277    
  0.5205633375510764    0.5905596384157366    0.6128559964409737    0.43362433599716677    0.19662890730205573    
  0.11880768636062612    0.3552860097690784    0.433624348383836    0.5970507360741275    0.6752458009385387    
  0.6431332137307361    0.5905595388708137    0.5689964338552744    0.5905595619865941    0.6431332327864072    
  0.6752457583529577    0.5970507724319937    0.4336242574543198    0.3552860097690784    0.5786906882977907    
  0.6128560389828911    0.6752458267203842    0.7026145617017959    0.6752458374824177    0.6128559859266409    
  0.5786907812189385    0.6128559606760172    0.6752458172199004    0.7026144227405056    0.6752458609158452    
  0.6128559402179289    0.5786906882977907    0.5689965241009961    0.5905595791680752    0.6431332578426164    
  0.6752457665610453    0.5970508730248095    0.43362429923266577    0.35528605031832544    0.4336243702102466    
  0.5970507880332865    0.6752457238807468    0.6431332843431758    0.5905595636080125    0.5689965241009961    
  0.4932333859448453    0.5205633687202468    0.5905595673230856    0.6128559887618051    0.43362430831054544    
  0.19662890886537912    0.11880768476197417    0.19662887137716697    0.4336243560739605    0.6128560118008162    
  0.5905595962740441    0.5205632760457553    0.4932333859448453    0.4634040640826627    0.4932334472320847    
  0.5689964999903288    0.5786907511570288    0.3552860845643103    0.11880771046717381    0.05742637166950372    
  0.11880770116209416    0.3552859898998415    0.578690754463407    0.5689965212259033    0.49323336617752256    
  0.4634040640826627    0.4932333571646375    0.520563326089191    0.5905595310173986    0.6128559148202699    
  0.43362435670418215    0.1966289064712332    0.11880770575812548    0.19662893543569399    0.4336242654119037    
  0.6128560049732047    0.5905595571920718    0.5205632364151367    0.4932333571646375    0.568996478443124    
  0.5905595900975368    0.6431332753738997    0.6752456217680852    0.5970507608035212    0.43362428223682453    
  0.35528603909494466    0.43362430804860186    0.5970507821108534    0.6752457591492539    0.6431332688717424    
  0.5905595664723248    0.568996478443124    0.578690761926542    0.6128560924828548    0.6752457523880211    
  0.7026145251247943    0.6752458560881351    0.6128559810643741    0.5786906508084784    0.6128559666478067    
  0.6752458199705537    0.7026145000725779    0.6752458499883671    0.6128559161653903    0.578690761926542    
  0.3552860423987033    0.43362431482476127    0.5970506769244504    0.6752457373481153    0.6431331960779493    
  0.5905594740749747    0.5689964675767287    0.5905596590477425    0.6431332729106748    0.675245832131501    
  0.5970507631826302    0.43362430759241055    0.3552860423987033    0.11880768937041357    0.19662894485391497    
  0.43362431402213475    0.6128559243046573    0.5905595978865319    0.5205632957101765    0.49323337244173293    
  0.5205633477428521    0.5905597137762427    0.6128559441414475    0.4336242813432495    0.1966289126147938    
  0.11880768937041357    0.05742636944582875    0.11880771484059836    0.35528602587222335    0.5786906712905294    
  0.5689965100842772    0.4932333970757498    0.4634040225438871    0.49323338952799817    0.568996468536635    
  0.5786907583955334    0.35528607617112407    0.11880770455541184    0.05742636944582875    0.11880770964298537    
  0.19662895349409545    0.4336243697875041    0.6128560213471462    0.5905596220903854    0.5205633258609418    
  0.49323338626121926    0.5205633228301346    0.5905595908197732    0.6128559714261701    0.4336244213481814    
  0.19662889224757277    0.11880770964298537    0.19662890856724322    0.2821814614868334    0.5019645325775864    
  0.6385795264729595    0.6077807982464981    0.544716062323739    0.5205633376525196    0.544716018527075    
  0.6077806338139159    0.6385795985510546    0.501964629879835    0.2821814476460326    0.19662890856724322    
  0.43362429879991293    0.5019646708279127    0.6324289489940537    0.6839772257727712    0.6514927607169912    
  0.6077806728985105    0.5905595917693294    0.6077806794763128    0.6514927447945832    0.6839773264850781    
  0.6324288240131056    0.501964480443351    0.43362429879991293    0.6128559933711745    0.6385797136125478    
  0.6839773056291584    0.703140715910614    0.6839774311573511    0.6385796422783839    0.612856043943465    
  0.6385796858959482    0.6839773117648643    0.7031407370020376    0.6839773434060822    0.6385795583401359    
  0.6128559933711745    0.5905596443215055    0.6077807492595374    0.6514926948340378    0.6839773040290287    
  0.6324289642556333    0.5019645038042652    0.43362426214183153    0.5019646288326998    0.6324289218991744    
  0.6839772672468862    0.6514926449550169    0.6077807619910459    0.5905596443215055    0.5205633222039002    
  0.544716017053448    0.607780571868671    0.6385796083462622    0.5019646289236614    0.2821814637543134    
  0.19662891090550103    0.28218142521745065    0.5019646624181495    0.638579679713455    0.6077807055462167    
  0.5447160317282576    0.5205633222039002    0.49323347583902855    0.5205634068752315    0.5905595603475569    
  0.6128559638335084    0.4336243172129236    0.1966289342654631    0.1188076893012572    0.19662890617935805    
  0.4336242974374437    0.6128559818239367    0.5905596271701924    0.520563307257659    0.49323347583902855    
  0.5205633195154113    0.5447159917780768    0.6077806447923727    0.638579707295831    0.501964532387696    
  0.2821813977345866    0.19662894325426508    0.28218145197429456    0.501964585712499    0.6385795987197785    
  0.6077806855495463    0.5447159386688699    0.5205633195154113    0.5905595322243965    0.6077807891246251    
  0.6514927033427964    0.6839772375361719    0.6324288306882914    0.5019645539708746    0.4336243219494727    
  0.5019645799090732    0.6324289618092303    0.6839773538616489    0.651492691240582    0.6077807056917681    
  0.5905595322243965    0.6128560037254683    0.6385796464350706    0.6839773279397758    0.7031408217091416    
  0.6839773534781357    0.6385796766803306    0.6128560228383448    0.6385796648452633    0.6839773211716003    
  0.703140723650264    0.6839773378450518    0.6385796699867535    0.6128560037254683    0.43362433809500733    
  0.5019645732740642    0.632428783205061    0.6839773284253196    0.6514926826490819    0.6077807075116434    
  0.5905595342945461    0.6077806692234174    0.6514927177523008    0.6839773809210903    0.6324288309003581    
  0.5019645758814495    0.43362433809500733    0.19662887930445658    0.2821814782061085    0.5019645949018069    
  0.6385796734487594    0.6077807917382658    0.5447159748882453    0.5205633511816028    0.5447160121025856    
  0.6077807748625403    0.6385796727514104    0.5019645936455531    0.28218147307130775    0.19662887930445658    
  0.11880770964298537    0.19662895349409545    0.4336243697875041    0.6128560213471462    0.5905596220903854    
  0.5205633258609418    0.49323338626121926    0.5205633228301346    0.5905595908197732    0.6128559714261701    
  0.4336244213481814    0.19662889224757277    0.11880770964298537    0.3552860481137258    0.4336243459556331    
  0.5970507538562833    0.675245824309178    0.6431332891818541    0.5905596087099869    0.568996448254368    
  0.5905596138080527    0.6431332254638351    0.6752458925224692    0.5970508683607642    0.4336242948261705    
  0.3552860481137258    0.43362429748397063    0.501964712945439    0.6324288172185344    0.6839773617609635    
  0.651492759094304    0.6077807016033069    0.5905596244963494    0.6077808262397175    0.6514926809586877    
  0.6839773179150817    0.6324288872229963    0.5019645637541836    0.43362429748397063    0.5970506775215904    
  0.6324288825434173    0.6876152073516898    0.6973425473916048    0.6742412190926208    0.6514926542986564    
  0.6431332236521755    0.6514927569512994    0.6742412246767825    0.6973426875212586    0.6876151810438038    
  0.6324287971458455    0.5970506775215904    0.6752458557710628    0.6839773731018083    0.6973427250278978    
  0.7019387258121311    0.6973427041518484    0.6839772746459976    0.6752458322029293    0.6839773514300459    
  0.697342605347012    0.7019387460844023    0.6973427908869299    0.6839772926946496    0.6752458557710628    
  0.643133329208417    0.6514927561648355    0.6742411369325704    0.6973426783621133    0.6876152484371688    
  0.6324287856686931    0.5970506927027145    0.6324289132630846    0.6876153465865394    0.6973426830784627    
  0.674241225782414    0.6514926589420312    0.643133329208417    0.5905595998817719    0.6077807096515055    
  0.6514926414798917    0.6839772631755315    0.6324288899849941    0.5019645544742258    0.43362428243576134    
  0.5019645709973308    0.632428978363615    0.6839774019949212    0.6514926573354579    0.6077807309797157    
  0.5905595998817719    0.5689965185540464    0.59055967813949    0.6431331658524622    0.6752458392265913    
  0.59705087559924    0.43362431003413265    0.355286027991913    0.4336242982558442    0.5970507469575916    
  0.6752459319359742    0.643133347318323    0.5905596006880633    0.5689965185540464    0.5905596522115139    
  0.6077807258038384    0.6514926319188508    0.683977321605972    0.6324289053309835    0.5019645544340374    
  0.43362432130437173    0.5019646300616245    0.6324288023826967    0.6839772305509835    0.6514927023628969    
  0.6077806327781305    0.5905596522115139    0.643133187174987    0.6514927653588433    0.6742412232339628    
  0.6973426551981735    0.6876153095999412    0.6324287742203643    0.5970508026341037    0.6324288716938791    
  0.6876153621283709    0.6973427237713846    0.6742411605152668    0.6514927334778244    0.643133187174987    
  0.6752458598565246    0.6839773227392542    0.6973426698046301    0.701938826437085    0.6973427407517493    
  0.6839773980178481    0.6752458446940833    0.6839773322628635    0.6973426090108925    0.70193870774073    
  0.6973427223765908    0.6839773756024541    0.6752458598565246    0.5970508401025733    0.6324288976707576    
  0.6876151930680157    0.6973426396360873    0.6742411245429383    0.6514926534871047    0.643133332374277    
  0.6514926612467933    0.6742412544865489    0.69734264614702    0.6876152776505174    0.6324288457192578    
  0.5970508401025733    0.4336242884971461    0.5019646472485054    0.6324287798042024    0.6839773193555042    
  0.6514928009069064    0.6077807249138064    0.5905595442076917    0.6077806688695023    0.6514927454908638    
  0.6839772811506383    0.6324288538173314    0.5019645567558464    0.4336242884971461    0.3552860481137258    
  0.4336243459556331    0.5970507538562833    0.675245824309178    0.6431332891818541    0.5905596087099869    
  0.568996448254368    0.5905596138080527    0.6431332254638351    0.6752458925224692    0.5970508683607642    
  0.4336242948261705    0.3552860481137258    0.578690755557634    0.612856126744274    0.6752457546159785    
  0.7026144467977052    0.6752458933350164    0.6128559553083708    0.5786906550718248    0.6128559844751273    
  0.6752457722200474    0.7026145011833329    0.6752458542513343    0.6128559593644489    0.578690755557634    
  0.6128559696716026    0.6385795902277012    0.6839773060072154    0.7031407642628108    0.683977297914904    
  0.6385796512266732    0.6128559869678011    0.6385796566428884    0.683977295919581    0.7031408053834368    
  0.6839773594428197    0.6385796084940034    0.6128559696716026    0.6752457554330747    0.6839774288864204    
  0.6973426927501272    0.7019387691435264    0.69734263443042    0.6839772709171366    0.6752457647506178    
  0.6839773297272582    0.6973426928569805    0.701938682823934    0.6973427263704495    0.6839772469851008    
  0.6752457554330747    0.7026145473457275    0.7031407987722545    0.7019388217386768    0.7003299426132009    
  0.7019388474585934    0.7031408047791518    0.7026145545063772    0.7031408474297881    0.7019387339667353    
  0.7003299435744286    0.7019388235711715    0.7031408162672116    0.7026145473457275    0.6752458732721714    
  0.6839774271380101    0.6973426875114983    0.7019387777830012    0.697342779267336    0.6839772674533561    
  0.67524579183578    0.6839774382708459    0.6973427575088272    0.7019387137667834    0.6973427143759767    
  0.683977377709012    0.6752458732721714    0.6128558539042454    0.6385796722182269    0.6839772328357682    
  0.7031406800098852    0.6839773552851867    0.6385796315172585    0.6128559613354889    0.6385795468759324    
  0.6839774245436604    0.7031407976453905    0.6839772827554075    0.6385795424707011    0.6128558539042454    
  0.5786907253205131    0.6128560462520505    0.675245808975828    0.7026145023451537    0.675245891883425    
  0.61285599692227    0.5786906921505665    0.6128560312957562    0.6752457791650677    0.7026145543847432    
  0.6752459365059592    0.6128559622558324    0.5786907253205131    0.6128559240171289    0.6385796171901451    
  0.6839773240666239    0.7031407269325024    0.6839774604093577    0.6385796009283484    0.6128559919462337    
  0.6385797098634105    0.6839772586159995    0.703140721796328    0.6839773333049939    0.6385795773423966    
  0.6128559240171289    0.6752458457147708    0.6839773767332694    0.6973427624077094    0.7019386798474336    
  0.697342661177956    0.6839773100479716    0.6752458908626923    0.6839772903547897    0.697342785053361    
  0.7019388118441103    0.6973427112230711    0.68397730821169    0.6752458457147708    0.702614590362924    
  0.7031408008999179    0.7019387574420983    0.7003299608466028    0.7019388528117034    0.703140821701476    
  0.702614468170685    0.703140837079132    0.7019387483708668    0.7003300570412451    0.7019388810785644    
  0.7031407717069714    0.702614590362924    0.6752458127776394    0.6839773713683553    0.6973426560468156    
  0.7019387514803102    0.6973426232105515    0.683977366378269    0.6752458630534357    0.683977381502827    
  0.6973427478390342    0.7019388160505119    0.6973427107840386    0.6839772796129138    0.6752458127776394    
  0.6128559357807228    0.6385795991349275    0.6839773518175357    0.7031407908211097    0.6839773892484365    
  0.6385796581556462    0.6128558727361987    0.6385796599436855    0.6839774384194623    0.7031408329851165    
  0.6839772556143061    0.6385796039269307    0.6128559357807228    0.578690755557634    0.612856126744274    
  0.6752457546159785    0.7026144467977052    0.6752458933350164    0.6128559553083708    0.5786906550718248    
  0.6128559844751273    0.6752457722200474    0.7026145011833329    0.6752458542513343    0.6128559593644489    
  0.578690755557634    0.5689964821105813    0.5905596183956162    0.6431332886677039    0.6752458337940618    
  0.5970507334626721    0.43362432731281214    0.35528597155377223    0.4336243477226014    0.5970507009892521    
  0.6752458748338074    0.6431333616045501    0.5905595971320324    0.5689964821105813    0.5905595893709975    
  0.6077807198729357    0.6514926100095547    0.6839772447199408    0.6324288710523309    0.5019646815458233    
  0.43362435138483896    0.5019645876211439    0.6324288031473768    0.6839773160173828    0.6514927522753493    
  0.6077806801403537    0.5905595893709975    0.6431331700298089    0.6514927914795611    0.6742411499646384    
  0.6973425605527623    0.6876153092128019    0.6324288512492211    0.5970507872432589    0.6324289340415958    
  0.6876152978483555    0.6973426730410527    0.6742411773293987    0.6514925875230806    0.6431331700298089    
  0.6752458318308988    0.6839773786884425    0.6973427692970031    0.7019387384779165    0.6973427565137597    
  0.6839773724333026    0.6752458247264597    0.6839774392802694    0.6973426980366778    0.7019387584697547    
  0.6973426979575292    0.6839772762587404    0.6752458318308988    0.5970507391563828    0.632428893454647    
  0.6876152683728864    0.6973426026256594    0.674241301327177    0.6514926303325036    0.6431331549410435    
  0.6514927478712608    0.6742412966330072    0.6973426939919686    0.6876152973160193    0.6324288826293274    
  0.5970507391563828    0.43362429933651137    0.5019646256733213    0.6324287295654851    0.6839772700892669    
  0.6514927090674736    0.6077806801058381    0.5905595677058504    0.6077807262528093    0.6514927457187811    
  0.683977348620998    0.6324288944115136    0.5019645732221146    0.43362429933651137    0.3552860412319954    
  0.43362440778108885    0.5970506866009911    0.6752458003426192    0.6431332640513249    0.5905596171036068    
  0.5689964028861754    0.5905596598793051    0.6431332522637865    0.6752457750687719    0.5970508395877574    
  0.43362430446134886    0.3552860412319954    0.4336243123019595    0.501964537399676    0.6324288369811792    
  0.6839773263365456    0.6514927191637405    0.6077806826402626    0.590559615082972    0.607780692649596    
  0.6514927212357162    0.6839772884936229    0.6324288261713931    0.5019644796061018    0.4336243123019595    
  0.5970506916759819    0.632428955306619    0.6876152508361382    0.6973426281654416    0.674241157910402    
  0.6514927453775192    0.6431332498575849    0.651492749187887    0.6742412830015342    0.6973426878094223    
  0.6876152020784247    0.6324288402657096    0.5970506916759819    0.6752458718998935    0.6839773985559485    
  0.6973427761845414    0.7019388256427254    0.6973426870973662    0.6839773736554576    0.6752458700018721    
  0.6839773279594924    0.697342664430646    0.7019387072412668    0.6973427320553868    0.6839773199393405    
  0.6752458718998935    0.6431332516696534    0.6514927021302153    0.6742411572237443    0.6973426665606204    
  0.687615241630923    0.6324288308015664    0.5970507609737412    0.6324289201617858    0.6876152633806144    
  0.6973427507937632    0.6742411923357275    0.6514926437358374    0.6431332516696534    0.5905595717980904    
  0.6077807740575663    0.6514927063526806    0.6839773878702935    0.632429009534789    0.5019646058773206    
  0.43362427713411983    0.5019645041940909    0.6324288989664199    0.6839773655431532    0.6514926498821478    
  0.6077806929919245    0.5905595717980904    0.5689964821105813    0.5905596183956162    0.6431332886677039    
  0.6752458337940618    0.5970507334626721    0.43362432731281214    0.35528597155377223    0.4336243477226014    
  0.5970507009892521    0.6752458748338074    0.6431333616045501    0.5905595971320324    0.5689964821105813    
  0.49323342928883884    0.5205634206267152    0.5905595928723189    0.6128559842912209    0.4336243357658934    
  0.19662892379160207    0.1188076846511903    0.19662892628618056    0.4336243310970601    0.6128559265687512    
  0.5905596897237811    0.5205633159427348    0.49323342928883884    0.5205632882260197    0.5447161087217534    
  0.607780673355675    0.638579622731169    0.5019646291346144    0.2821814734323891    0.19662892653942668    
  0.28218151643811495    0.5019645666128971    0.6385796020998585    0.6077807817440535    0.5447160040975367    
  0.5205632882260197    0.59055959613325    0.6077807073546604    0.6514927000573867    0.6839771844089764    
  0.6324288393022223    0.5019645447946366    0.43362428458637997    0.5019645940351505    0.632428904731753    
  0.6839772755479747    0.6514926970024304    0.6077806569702002    0.59055959613325    0.6128559594496021    
  0.6385796344338421    0.6839773665833297    0.7031407141203116    0.6839773724206569    0.6385796062180427    
  0.6128559878958774    0.6385796425543857    0.6839772912339427    0.7031407782189182    0.6839774130191543    
  0.6385796093794865    0.6128559594496021    0.43362435333275606    0.5019646581027339    0.6324288428238416    
  0.6839773322347128    0.6514926979320311    0.6077806017478967    0.59055952632179    0.6077807643841825    
  0.6514928138907805    0.6839772787859743    0.6324289171925149    0.5019645606545177    0.43362435333275606    
  0.19662892617979016    0.28218146727728205    0.5019645483490807    0.6385795629499518    0.6077807485433695    
  0.5447160120734906    0.5205633309971389    0.5447159740496839    0.6077808060138603    0.6385796839053289    
  0.5019646092203991    0.28218145949941276    0.19662892617979016    0.11880773389465478    0.1966289408936717    
  0.4336242535129703    0.6128559791526453    0.5905596219458868    0.5205633188495573    0.4932333853711806    
  0.5205633165331165    0.590559632136364    0.6128560457892038    0.43362439827802857    0.19662890703334077    
  0.11880773389465478    0.19662893043892637    0.28218141682259107    0.5019645327646033    0.6385795984506282    
  0.6077807303978727    0.5447159728506056    0.5205633145158566    0.5447160819389639    0.6077806973487245    
  0.6385795384939504    0.50196459632447    0.2821814276151575    0.19662893043892637    0.4336242424623896    
  0.5019646477139763    0.632428853412059    0.683977264221697    0.6514926884710467    0.6077806955796649    
  0.5905596558389141    0.607780734849834    0.651492852914664    0.6839773839970311    0.6324287783930695    
  0.5019645815518561    0.4336242424623896    0.6128559954916125    0.6385796417713454    0.6839773804925245    
  0.7031408336494473    0.6839774163318272    0.6385797428700453    0.6128559977835232    0.6385796786661093    
  0.6839772689282624    0.7031406936365634    0.6839773408202717    0.6385797187504972    0.6128559954916125    
  0.5905596296740847    0.6077807225952373    0.6514926653836899    0.6839773484644925    0.6324288810616071    
  0.5019645594492973    0.43362429711510364    0.5019645446290805    0.6324289001002246    0.683977312685332    
  0.6514926941889424    0.6077806516781857    0.5905596296740847    0.5205632987724478    0.5447161077847699    
  0.6077806350956398    0.638579577226786    0.5019646507517316    0.28218145016934437    0.19662892601542753    
  0.282181438979976    0.501964586119177    0.6385796977621587    0.607780668193936    0.5447160481753451    
  0.5205632987724478    0.49323342928883884    0.5205634206267152    0.5905595928723189    0.6128559842912209    
  0.4336243357658934    0.19662892379160207    0.1188076846511903    0.19662892628618056    0.4336243310970601    
  0.6128559265687512    0.5905596897237811    0.5205633159427348    0.49323342928883884    0.4634040647697687    
  0.49323346690274916    0.5689964492429131    0.578690638015681    0.35528605228409776    0.11880768689776507    
  0.05742635413055585    0.11880768725271795    0.3552860139557499    0.5786907680210888    0.5689965170517559    
  0.49323341813771726    0.4634040647697687    0.4932333807771714    0.5205632913746213    0.5905596075418319    
  0.6128558952679403    0.4336242933739538    0.19662892827244005    0.11880770756806362    0.1966289344127263    
  0.4336243444022918    0.6128560011601784    0.5905596300094048    0.5205632854618706    0.4932333807771714    
  0.5689964353370456    0.5905596476247337    0.6431332249834473    0.6752458009488879    0.5970507219002013    
  0.4336242943883131    0.3552860066614819    0.4336242968305905    0.597050746165077    0.675245772962687    
  0.6431333081186356    0.59055954171072    0.5689964353370456    0.5786906831211369    0.6128560511980766    
  0.6752458414200254    0.7026145544508178    0.6752458170353365    0.6128560197860686    0.578690795268105    
  0.6128559808155151    0.6752458309008724    0.702614475072487    0.6752458772960708    0.6128559439353856    
  0.5786906831211369    0.35528607895291353    0.4336243261657809    0.5970507207313901    0.675245756098189    
  0.6431333802926502    0.5905595766905547    0.5689964888793831    0.5905596695153774    0.6431332854057815    
  0.67524574201357    0.5970508020253513    0.43362429596943985    0.35528607895291353    0.11880768406434555    
  0.19662893227582146    0.4336242725756171    0.6128559656802106    0.5905595689480687    0.5205632994231073    
  0.4932333515157441    0.5205632205954381    0.5905596542495879    0.6128560133185406    0.4336243127352735    
  0.1966288866213841    0.11880768406434555    0.05742635942143758    0.11880770614596628    0.35528605336988994    
  0.578690765239196    0.5689965480338959    0.49323345903233423    0.4634040337991242    0.4932334187169253    
  0.56899639076294    0.5786907422277551    0.35528606583643324    0.11880768506611843    0.05742635942143758    
  0.11880767854576078    0.19662891644337913    0.4336242620649825    0.6128559404272613    0.5905596725580656    
  0.5205633053222392    0.4932334074825509    0.520563331532992    0.5905595276403045    0.6128559914694999    
  0.4336242667992046    0.19662887260199716    0.11880767854576078    0.35528604563367555    0.4336243046524375    
  0.5970507976104308    0.6752456595394657    0.6431332722986058    0.5905595565015933    0.5689964676556607    
  0.5905596032587918    0.6431332857115558    0.675245755875866    0.5970507652294339    0.4336242893849512    
  0.35528604563367555    0.5786907741173639    0.612856079531139    0.6752457849960423    0.7026145525760482    
  0.6752458839408872    0.6128559983524698    0.5786906326741016    0.6128559683747256    0.6752458099946868    
  0.7026145045837716    0.6752458141944678    0.6128559122160462    0.5786907741173639    0.5689964794227718    
  0.5905595963991492    0.6431331793839759    0.6752457694872543    0.5970507193416812    0.4336242535713311    
  0.3552860351608587    0.43362437597496595    0.5970507482056326    0.6752458443938363    0.6431332371143295    
  0.5905595777008189    0.5689964794227718    0.49323338281229734    0.5205633433448305    0.5905595979771412    
  0.6128559258022471    0.4336243165178568    0.19662890861756563    0.11880767987494181    0.19662890924311255    
  0.43362441382164507    0.6128559383545199    0.5905595657294127    0.520563273312798    0.49323338281229734    
  0.4634040647697687    0.49323346690274916    0.5689964492429131    0.578690638015681    0.35528605228409776    
  0.11880768689776507    0.05742635413055585    0.11880768725271795    0.3552860139557499    0.5786907680210888    
  0.5689965170517559    0.49323341813771726    0.4634040647697687    0.4932334356869807    0.5205634030181714    
  0.5905596544365924    0.6128560049803653    0.4336243402848243    0.19662892349876282    0.11880768221790229    
  0.1966289179156188    0.4336242679723561    0.6128559749390925    0.5905596970383103    0.5205632880524075    
  0.4932334356869807    0.5205633341666153    0.5447160836401364    0.6077806398420009    0.6385795128608762    
  0.5019646771561401    0.2821814766218025    0.19662892288715125    0.2821814444481747    0.5019645349333642    
  0.6385796253129667    0.6077807474779907    0.5447160402486608    0.5205633341666153    0.590559598331895    
  0.6077807963548698    0.6514927699717016    0.6839771947830128    0.6324288878350844    0.5019645726125157    
  0.4336243206698696    0.5019645765881975    0.632428888125713    0.6839773482802392    0.6514926939709139    
  0.6077805738220327    0.590559598331895    0.6128560099476107    0.6385797342191176    0.6839773253394681    
  0.703140685366892    0.6839774165200324    0.6385796448332036    0.6128560789415102    0.6385796826494858    
  0.683977325283807    0.7031407092284936    0.683977375387011    0.6385795801171591    0.6128560099476107    
  0.4336243812680294    0.5019646619622498    0.6324288309501548    0.6839772834337039    0.6514927983114    
  0.6077805983420357    0.5905595632768683    0.6077807622148511    0.651492751723355    0.683977271875016    
  0.6324288074063321    0.501964640672236    0.4336243812680294    0.1966288974089805    0.2821814427709158    
  0.5019644529986096    0.6385796194017213    0.6077807179085489    0.5447160560671386    0.5205632960054399    
  0.544715985405376    0.6077807946181643    0.6385796772328964    0.5019646031713442    0.2821814373741863    
  0.1966288974089805    0.11880773045739791    0.1966289466308471    0.43362427456183966    0.6128559415435131    
  0.5905596222950973    0.52056337564359    0.4932334134611507    0.5205633194869755    0.5905596004516496    
  0.6128559894319702    0.4336243425278356    0.19662890883454942    0.11880773045739791    0.19662891698353482    
  0.2821814161929116    0.5019645382525788    0.6385797404469026    0.6077806194474985    0.5447159690231058    
  0.5205633731983134    0.5447160318748795    0.6077807145120953    0.6385795993931849    0.5019645837438651    
  0.28218139829503136    0.19662891698353482    0.4336242621853355    0.5019646855671019    0.6324288609314672    
  0.6839772294253346    0.6514926838801584    0.6077806706569309    0.5905596085536904    0.6077807001399783    