#     DFTpy    
  CRYSTAL 
    
  PRIMVEC    
  1.5074300397769473    -2.6109454177492473    0.0    
  1.5074300397769473    2.6109454177492473    0.0    
  0.0    0.0    5.096745932965518    
  PRIMCOORD    
  2    1    
  Si    1.5074300397769473    0.8703151392497489    1.2741864832413794    
  Si    1.5074300397769478    -0.8703151392497489    3.8225594497241375    
  BEGIN_BLOCK_DATAGRID_3D    
  3d_datagrid_density    
  BEGIN_DATAGRID_3D#0    
  13    13    23    
  0.0    0.0    0.0    
  1.5074300397769473    -2.6109454177492473    0.0    
  1.5074300397769473    2.6109454177492473    0.0    
  0.0    0.0    5.096745932965518    
  0.07048003114933929    0.07455020474266555    0.0870232029871572    0.10712917917689492    0.13099005075429523    
  0.15120039499037077    0.15922017522306414    0.1512004079030071    0.13099004361737215    0.10712917989292155    
  0.08702319431791732    0.0745502078556309    0.07048003114933929    0.07455020481994899    0.0745479059122907    
  0.08285730425177158    0.09940110648310731    0.12206489310209616    0.14511280904517088    0.15996380727064416    
  0.1599648632585234    0.1451154231393641    0.12206222008099839    0.09940125269418543    0.08285687995342102    
  0.07455020481994899    0.08702318690986083    0.08285729899692662    0.08702537724723838    0.09940075053431345    
  0.11903869306338036    0.14222075496606182    0.16150948698180637    0.16905728502395515    0.16150523520386456    
  0.1422213507250608    0.1190406518768115    0.09940124824140754    0.08702318690986083    0.10712918263759227    
  0.09940111291065644    0.09940075369643626    0.10712738036089073    0.12206465133553274    0.14222125954459572    
  0.16231156252623435    0.17518726470908624    0.17519144901558223    0.16231154978401505    0.14222135355893198    
  0.12206222954647901    0.10712918263759227    0.13099003793381586    0.12206489176042726    0.11903869564030327    
  0.12206464122172109    0.13098986213172872    0.1451157219280109    0.16150556519792328    0.17519147270209    
  0.18074533538838863    0.1751914287888345    0.1615052340815159    0.14511544081002853    0.13099003793381586    
  0.15120040317826572    0.1451128041810998    0.1422207534546957    0.14222125834741708    0.14511572631446149    
  0.15119701115320086    0.1599643303706048    0.16905681247337973    0.1751914747813223    0.17518725938513335    
  0.16905728425599179    0.15996484679227527    0.15120040317826572    0.15922018569066854    0.1599638036997459    
  0.16150948796697182    0.16231157811524513    0.16150558912565433    0.15996433222011722    0.15922340269054464    
  0.15996432497303253    0.16150555514638024    0.16231156912347972    0.16150948714829755    0.15996380386365514    
  0.15922018569066854    0.15120039102897848    0.15996485402738678    0.16905730663157353    0.17518726125293535    
  0.1751914738582534    0.16905680482134267    0.15996431605278838    0.15119700690193352    0.14511573412342033    
  0.1422212661897771    0.14222075512529594    0.14511279886122708    0.15120039102897848    0.13099004267336903    
  0.14511543914427627    0.16150523275510356    0.17519143558979813    0.1807453501232438    0.17519146958424575    
  0.1615055703829312    0.14511572248077442    0.13098986797029977    0.12206463315459536    0.11903869043475966    
  0.12206487937652313    0.13099004267336903    0.10712918793051592    0.12206223417221372    0.1422213580531921    
  0.16231154451417584    0.1751914500588173    0.17518727567916015    0.16231156801777952    0.142221271785346    
  0.12206463238612843    0.1071273756878695    0.09940075501220584    0.09940111666434935    0.10712918793051592    
  0.08702319446469695    0.09940125023049877    0.11904064037139518    0.14222135299445665    0.16150523122766436    
  0.169057284118657    0.16150949559183658    0.14222076017478757    0.11903870356331844    0.09940074205781674    
  0.08702538318650173    0.08285729722992072    0.08702319446469695    0.07455020824858764    0.08285688560939443    
  0.0994012521745257    0.12206222658256992    0.1451154369779782    0.15996484605408687    0.1599637995174415    
  0.14511280638363525    0.12206488398059495    0.09940110598421063    0.08285729647368792    0.07454789610349628    
  0.07455020824858764    0.07048003114933929    0.07455020474266555    0.0870232029871572    0.10712917917689492    
  0.13099005075429523    0.15120039499037077    0.15922017522306414    0.1512004079030071    0.13099004361737215    
  0.10712917989292155    0.08702319431791732    0.0745502078556309    0.07048003114933929    0.07441470616429569    
  0.07897679375615087    0.09283578222837502    0.11516429691075443    0.14175621546568454    0.1641981323763979    
  0.1730760418689572    0.16419784569497467    0.14175599193479166    0.11516442089271292    0.09283627585034757    
  0.07897679238488925    0.07441470616429569    0.0789767901680214    0.07897708055310414    0.0859278556900816    
  0.09966731175510295    0.1183634801609942    0.13714281314621624    0.14899727977081417    0.1489999597851248    
  0.13714387488574348    0.11836265289583081    0.09966559585501676    0.0859290073339759    0.0789767901680214    
  0.09283626991628983    0.09054432622870309    0.09283738312120662    0.09966563278377155    0.11044647164415931    
  0.12316389406958758    0.13369493961810164    0.13775272359908422    0.1336917221270787    0.12316364715441336    
  0.11044903722739562    0.09966560064700283    0.09283626991628983    0.11516442077710326    0.11374741457355105    
  0.11374574468342712    0.11516456563401302    0.11836339689942665    0.12316557178845491    0.128430952498608    
  0.13197534602454086    0.13197610859753892    0.12843316078861725    0.12316365431723644    0.11836265268682306    
  0.11516442077710326    0.14175598284524343    0.14605085480832058    0.14794061034509176    0.1460509872374366    
  0.14175511261515292    0.13714410621135886    0.13369164768137476    0.13197605315160724    0.1315308499828137    
  0.13197610541858742    0.13369173983961355    0.1371438771070704    0.14175598284524343    0.1641978369026106    
  0.17934626852415414    0.18915682914762796    0.1891595789589742    0.17934628179834952    0.16419773022568393    
  0.14899730326042723    0.1377553119562219    0.13197603750938566    0.13197532757898245    0.137752738708635    
  0.1489999506051578    0.1641978369026106    0.17307604031110704    0.20106978739056278    0.22376776660341613    
  0.23254470888195333    0.22376346041495349    0.2010710814835884    0.1730780779691942    0.14899730284591672    
  0.13369163757427044    0.1284309445917045    0.1336949429357564    0.14899727724933615    0.17307604031110704    
  0.1641981326420942    0.20107400645309043    0.23738369596864453    0.2598257030383473    0.2598288061154981    
  0.2373842475180096    0.20107106070781555    0.16419772108578012    0.13714410571353278    0.12316557066549712    
  0.1231638974054335    0.13714281309300563    0.1641981326420942    0.14175620887955914    0.1793457752753935    
  0.22376237405434476    0.2598290442828721    0.27371493469639246    0.2598288179329558    0.22376345533782993    
  0.17934629130002425    0.14175511048568396    0.11836337438495781    0.11044647172811677    0.11836346743563926    
  0.14175620887955914    0.1151643043786791    0.14605026628444132    0.18915850529988454    0.23254578992357944    
  0.25982906856711707    0.25982570898140905    0.23254469224821778    0.18915959888232173    0.14605097843253592    
  0.11516456257751331    0.09966563796389763    0.09966731956015772    0.1151643043786791    0.0928357654394012    
  0.11374615420273324    0.1479415929999077    0.1891585074429835    0.22376236309829795    0.2373836807335494    
  0.2237677681797301    0.18915683076910114    0.14794061735866332    0.11374573691062417    0.09283739103403833    
  0.0859278552327002    0.0928357654394012    0.07897679144238912    0.09054603346786731    0.11374614921482053    
  0.14605025499513227    0.1793457850593429    0.20107400980110138    0.20106980272616615    0.17934625714323338    
  0.1460508314028306    0.11374741741765917    0.09054432842180109    0.07897707754986008    0.07897679144238912    
  0.07441470616429569    0.07897679375615087    0.09283578222837502    0.11516429691075443    0.14175621546568454    
  0.1641981323763979    0.1730760418689572    0.16419784569497467    0.14175599193479166    0.11516442089271292    
  0.09283627585034757    0.07897679238488925    0.07441470616429569    0.08571865234406842    0.09169286860182295    
  0.10958581021719846    0.13852032641987735    0.17318245800771837    0.20219934859151512    0.2136020354072545    
  0.20220038890114878    0.17318338572291286    0.13851985750765522    0.10958798832573384    0.09169284256616524    
  0.08571865234406842    0.09169284022476053    0.09169228119997232    0.09882749765299577    0.11270213528765716    
  0.13152683483567293    0.15030072929186372    0.1621577795974045    0.16215580489031012    0.15030388645652235    
  0.13152296202116306    0.11270159998117371    0.09882644831073187    0.09169284022476053    0.10958798954880579    
  0.10861775268088444    0.10958727816906096    0.1127027355710204    0.11799657892138918    0.12467516872087013    
  0.13048192700044284    0.1327839466558517    0.13048080473553225    0.12467397932213448    0.11800177436276843    
  0.11270159828183611    0.10958798954880579    0.13851985069106548    0.1430705731964074    0.1430737309782603    
  0.1385173613900712    0.131527396009905    0.12467425227456826    0.12001702186451868    0.11774914805447172    
  0.11775118504075768    0.12001635244958708    0.12467398555910016    0.13152296808582614    0.13851985069106548    
  0.17318337689119007    0.19177505958662402    0.1990763492473456    0.19177467454210406    0.17318086776147554    
  0.1503042874308033    0.13047927585023575    0.11775119470760403    0.11331049576574159    0.11775116895018498    
  0.13048082363541347    0.1503039049307196    0.17318337689119007    0.20220039250682229    0.24141457104802544    
  0.26538627419342564    0.265383632409904    0.24142050442320517    0.2021970774795204    0.16215691031463925    
  0.13278481971522382    0.11775118015176118    0.11774913975797648    0.13278395605472698    0.16215578462035893    
  0.20220039250682229    0.21360203793058746    0.2728163519425249    0.31687746039707027    0.3320152657854105    
  0.3168716603495778    0.2728174206312141    0.21360322172656723    0.16215690454844855    0.13047927516949123    
  0.12001702648158756    0.13048193600626484    0.16215778724348068    0.21360203793058746    0.20219935621079002    
  0.27281650036899663    0.3353575564082922    0.36560266124228347    0.36561269971025906    0.33535088287287623    
  0.2728174003552999    0.20219706940208704    0.15030429067420195    0.12467424257015225    0.1246751590413302    
  0.15030072451728335    0.20219935621079002    0.17318245068260485    0.2414205659063428    0.3168691018345285    
  0.3656129022453728    0.37912884600501834    0.36561270399938134    0.3168716296406042    0.24142049955217537    
  0.17318087639948795    0.13152736513163707    0.1179965914335026    0.13152682926294995    0.17318245068260485    
  0.13852032280335946    0.19177023676531893    0.26538729305545644    0.33201062233797957    0.36561291795090395    
  0.36560266276324227    0.33201525676012156    0.2653836585849796    0.19177466308349914    0.13851736385844662    
  0.11270273144086045    0.1127021346932643    0.13852032280335946    0.10958579754881358    0.1430726952734526    
  0.19907769598633104    0.2653872815929361    0.3168690790727254    0.33535753661652284    0.31687744251596234    
  0.26538627713379925    0.19907635892070982    0.14307372275834981    0.10958728262911956    0.09882749522329154    
  0.10958579754881358    0.0916928697492129    0.10861872232773821    0.14307268771489715    0.19177023581968106    
  0.241420562663047    0.27281650141416963    0.2728163551040562    0.2414145786710012    0.19177505194085698    
  0.14307055402187202    0.10861775408230702    0.09169227520957379    0.0916928697492129    0.08571865234406842    
  0.09169286860182295    0.10958581021719846    0.13852032641987735    0.17318245800771837    0.20219934859151512    
  0.2136020354072545    0.20220038890114878    0.17318338572291286    0.13851985750765522    0.10958798832573384    
  0.09169284256616524    0.08571865234406842    0.10225809861030372    0.11032067402522762    0.13435338486690496    
  0.17324009606586716    0.21940864024708134    0.2570548202122652    0.27149828054379965    0.25705264506708964    
  0.21943895769913904    0.17323343716121137    0.13435170452816744    0.11032021545220407    0.10225809861030372    
  0.11032021737319868    0.1103209262896327    0.11870480128581361    0.13486175458306973    0.1566314718249115    
  0.17808727759068724    0.1918188730404473    0.19182673157353575    0.17808914442589588    0.1566070244215808    
  0.13486202908326825    0.1187108619009947    0.11032021737319868    0.13435169986458403    0.1343998830384996    
  0.13435711319412272    0.13486645992356794    0.13667471805743314    0.13963960454180618    0.1426721445211505    
  0.14403218624069805    0.14266646119577953    0.1396353228880429    0.13670202395960565    0.13486201394388853    
  0.13435169986458403    0.17323343732112656    0.18381996920732296    0.18381305683291815    0.17323092057503992    
  0.15663179770099916    0.13963500274205867    0.1270148863929865    0.12045636802981892    0.12045553241169422    
  0.12702116613035624    0.13963533571220077    0.15660703134024404    0.17323343732112656    0.21943896675027888    
  0.25242925239993114    0.26493795870872755    0.2524316338655947    0.21940858597565902    0.1780955665619231    
  0.14266863163882795    0.12045584978333797    0.11291732633173585    0.1204555184355514    0.1426664639335206    
  0.1780891708464977    0.21943896675027888    0.25705266105575775    0.31639530844026886    0.3472931808724482    
  0.3473065562934365    0.31643298029580386    0.2570444389888051    0.1918201950662675    0.14403565790606954    
  0.12045583854226186    0.12045634918332203    0.1440321974787448    0.1918267099875993    0.25705266105575775    
  0.2714982966897542    0.35075912647563173    0.3873851088464876    0.39124801662244363    0.3873152813997128    
  0.3507766371887122    0.27150255176743177    0.19182017623841333    0.14266862213498066    0.12701489551618728    
  0.14267214564923722    0.19181888536420472    0.2714982966897542    0.25705481674088404    0.3507735313729284    
  0.39272431002052244    0.3772497130959614    0.3773264285225567    0.3927004486611629    0.3507766261944254    
  0.2570444417890617    0.17809556564522075    0.13963499566746015    0.13963959856938785    0.17808726369284503    
  0.25705481674088404    0.21940861713260865    0.3164333770672075    0.3873137493989475    0.377326877843153    
  0.35338062967251094    0.37732643795516835    0.3873152724040807    0.31643297535264964    0.2194085951411403    
  0.15663177075988294    0.13667471216015564    0.15663146836014888    0.21940861713260865    0.17324008726436704    
  0.25242016347052304    0.3473110528287912    0.39122454423612274    0.3773269016009187    0.3772496999202176    
  0.3912480188881221    0.34730659026084393    0.2524316136991036    0.17323091993550987    0.1348664622334227    
  0.13486175489418495    0.17324008726436704    0.13435338128391947    0.18381420005919563    0.2649420418564543    
  0.3473110318810297    0.38731373998247076    0.3927243065808846    0.3873850931313197    0.347293193027958    
  0.2649379667565881    0.18381305400224732    0.13435711936173253    0.11870479372584858    0.13435338128391947    
  0.11032067392803915    0.1344032059552391    0.18381418259595428    0.25242017138887646    0.31643335920162347    
  0.3507735742061618    0.3507591122098042    0.31639531926304876    0.2524292441836847    0.18381994755295597    
  0.13439987779593668    0.11032092632003283    0.11032067392803915    0.10225809861030372    0.11032067402522762    
  0.13435338486690496    0.17324009606586716    0.21940864024708134    0.2570548202122652    0.27149828054379965    
  0.25705264506708964    0.21943895769913904    0.17323343716121137    0.13435170452816744    0.11032021545220407    
  0.10225809861030372    0.119331926059258    0.12957808017124559    0.16024544660936985    0.20946504839636002    
  0.2659060285223472    0.3088519654707303    0.32404881997662754    0.30882468655155426    0.26604229401925056    
  0.20943959178777755    0.16021548489755189    0.12958147880139384    0.119331926059258    0.12958146805423063    
  0.1295858134319083    0.13959724714360733    0.1588062927650973    0.18452552440814599    0.2093608603959795    
  0.22513474079914822    0.22518581207750057    0.20937606342279227    0.1844166724748871    0.1588191504909011    
  0.1396312373951329    0.12958146805423063    0.16021547632245117    0.1610107382810202    0.16025223546382708    
  0.15883608850806336    0.15818140728970723    0.1589616753262615    0.1604197941388024    0.16120398765252963    
  0.16038417783908043    0.15894392018394954    0.1582874866533656    0.1588191467785668    0.16021547632245117    
  0.20943958503878926    0.22530173014724608    0.22524936899688588    0.20942478281509816    0.18452518153767247    
  0.15893147166001667    0.13994166842356898    0.13011764978336043    0.13011210526134792    0.1399762850061413    
  0.15894394861920905    0.18441668381819182    0.20943958503878926    0.26604226346997917    0.30903420530375814    
  0.32432135031253173    0.3090610426001829    0.2659071906471627    0.20940127433048036    0.16041381605854232    
  0.1301090363464003    0.12005362579596414    0.13011208850351338    0.1603841941594077    0.20937608256955428    
  0.26604226346997917    0.30882468848968714    0.3711286579725016    0.38978790346381453    0.3898572199445003    
  0.371272706407774    0.30880611773596    0.22513405116878038    0.16122176596963925    0.13010903051382358    
  0.1301176290642613    0.16120399963846826    0.22518580099276211    0.30882468848968714    0.32404882949179914    
  0.38947016217318614    0.3681220168358783    0.3389554718524389    0.3678653145051613    0.389533853557073    
  0.3240907990129159    0.22513404340009155    0.16041380767357308    0.13994166400929592    0.1604197994041056    
  0.22513475024682728    0.32404882949179914    0.3088519675407651    0.38953857744712506    0.33871742808248706    
  0.24217105967032534    0.24238016199643633    0.33866369100756316    0.389533839599049    0.308806121387044    
  0.20940125858072053    0.15893146436866448    0.15896166989596616    0.20936083005651146    0.3088519675407651    
  0.26590600372415396    0.37127316649692765    0.36786533518290637    0.24237967861253196    0.1791418276389399    
  0.2423801532232258    0.3678653039759312    0.37127270283036606    0.2659072203024194    0.18452515255600538    
  0.1581814207114495    0.18452551279747606    0.26590600372415396    0.20946504521733095    0.3090170460411357    
  0.3898502040053051    0.3389037279509811    0.2423797013594992    0.24217107348304873    0.3389554629275649    
  0.38985724067676647    0.30906103157839365    0.20942479248306395    0.1588360867512434    0.1588063071991213    
  0.20946504521733095    0.16024543704717928    0.22524884401295692    0.32436338143978727    0.3898501866077927    
  0.36786534152660577    0.33871744284037464    0.3681220087205693    0.3897879100207402    0.32432135266039736    
  0.22524936415533042    0.16025223949548323    0.13959724181682087    0.16024543704717928    0.12957807646335076    
  0.16102869980475798    0.2252488383834411    0.3090170267558634    0.37127311049556233    0.38953859448181055    
  0.38947015764498755    0.37112865046859567    0.30903420262049985    0.22530170625658977    0.1610107375674886    
  0.12958581000966002    0.12957807646335076    0.119331926059258    0.12957808017124559    0.16024544660936985    
  0.20946504839636002    0.2659060285223472    0.3088519654707303    0.32404881997662754    0.30882468655155426    
  0.26604229401925056    0.20943959178777755    0.16021548489755189    0.12958147880139384    0.119331926059258    
  0.130436355403486    0.14207042314506213    0.17714295934570834    0.23301254111723177    0.29487787913616814    
  0.3381405607249373    0.3517419853561807    0.3380759193209512    0.2951152559391137    0.2329787152170736    
  0.17706817236479527    0.14208088830899385    0.130436355403486    0.14208088013822973    0.142093813585831    
  0.15327772832440945    0.17463539560854027    0.20313969999318118    0.2301962073419303    0.24686323863928908    
  0.24697752834635597    0.23022872989690174    0.20294677377825363    0.1746553416107079    0.15335588644471496    
  0.14208088013822973    0.17706816023424865    0.17814152962290664    0.17715033727273297    0.17468600174626456    
  0.17251555879874564    0.17232710220813904    0.1731512135858511    0.17357844891425836    0.17307101753241053    
  0.17229691259891036    0.1727015525421721    0.17465534219589282    0.17706816023424865    0.23297872205098138    
  0.2515547657735459    0.25143837386279094    0.23294543799438938    0.20313963242368305    0.17227710367574875    
  0.14956815034246826    0.13787545833049655    0.13786277987142995    0.14964427814245385    0.1722969412674093    
  0.20294679479561895    0.23297872205098138    0.29511525535285893    0.34110055912026244    0.3560143086736344    
  0.34116550345918806    0.29487822682045767    0.2302627675929429    0.17314391632078152    0.13785241546398305    
  0.12625136837296838    0.1378627591944816    0.17307103074941171    0.23022874166537804    0.29511525535285893    
  0.33807591479483323    0.39058736971587577    0.38961261807251885    0.389739540898937    0.390812717520675    
  0.33807341450306966    0.24685057280767497    0.1736230913439732    0.13785239858082748    0.1378754341352634    
  0.1735784760623558    0.24697750868848617    0.33807591479483323    0.3517419757549944    0.3875096730776657    
  0.3110433485960801    0.25976298228522643    0.31067337305473003    0.38758227210735174    0.3518565573220059    
  0.24685058133696514    0.17314390246714667    0.1495681558999195    0.17315123244875757    0.24686325515582222    
  0.3517419757549944    0.3381405516796161    0.38763420022817896    0.2591855269448737    0.13410220003356213    
  0.1343088155682324    0.25915791361195767    0.3875822650846627    0.33807340374134665    0.23026277376473578    
  0.17227707680833623    0.1723270897414968    0.23019619933971666    0.3381405516796161    0.2948778836565781    
  0.39081188611103146    0.31067502469513364    0.134308822749556    0.07466070432202374    0.13430881824868549    
  0.3106733683013501    0.3908127070367018    0.294878251833915    0.20313960975459436    0.17251555415835676    
  0.20313968717234687    0.2948778836565781    0.23301253810211084    0.34109879428019046    0.3896860990687102    
  0.2597335627523638    0.1343088335576705    0.1341022099802705    0.2597629879039279    0.3897395618627372    
  0.34116548488203136    0.2329454246365154    0.17468601498945951    0.17463541350643513    0.23301253810211084    
  0.1771429388473099    0.25142559587919827    0.35612991237836683    0.3896861293876546    0.3106750429243159    
  0.2591855225901975    0.31104336041147507    0.3896126352698081    0.3560143178984092    0.25143837261611496    
  0.1771503348751044    0.15327771895884848    0.1771429388473099    0.14207042020929386    0.17818658890865113    
  0.2514255992597229    0.3410988089169715    0.39081185566418314    0.38763422037373424    0.38750965113486224    
  0.39058735881057915    0.34110052166982807    0.25155475452852083    0.1781415199175159    0.14209381517170958    
  0.14207042020929386    0.130436355403486    0.14207042314506213    0.17714295934570834    0.23301254111723177    
  0.29487787913616814    0.3381405607249373    0.3517419853561807    0.3380759193209512    0.2951152559391137    
  0.2329787152170736    0.17706817236479527    0.14208088830899385    0.130436355403486    0.13043600780271467    
  0.14207077949303298    0.17714255121286268    0.23301300696985905    0.29487737346453685    0.3381411106234784    
  0.3517414162437759    0.33807646399805746    0.2951147456907359    0.23297918478825205    0.17706776280107261    
  0.14208125560692605    0.13043600780271467    0.1420812477121453    0.14209344919779934    0.15327810461564134    
  0.17463499561299714    0.20314012925986455    0.23019575355375657    0.2468637204483829    0.246977047264518    
  0.2302291886454034    0.20294634466714837    0.1746557548348503    0.15335550598212097    0.1420812477121453    
  0.17706775252474868    0.1781419289605189    0.17714993082779415    0.17468641210279182    0.172515154627276    
  0.17232749885668938    0.17315081385681313    0.17357885944862153    0.17307061887252181    0.1722973156923135    
  0.1727011450099938    0.174655748333276    0.17706775252474868    0.23297917872653195    0.2515542842888499    
  0.2514388524710035    0.23294497360224997    0.20314005951209146    0.17227670263262773    0.14956852265515766    
  0.13787510046200976    0.1378631316395924    0.14964391162018373    0.17229734512266176    0.20294636412337838    
  0.23297917872653195    0.2951147274040952    0.341101106132112    0.3560137365504714    0.34116605347717915    
  0.29487771767912263    0.23026322745357064    0.17314351634412495    0.13785277825145223    0.12625102053744547    
  0.13786312284521804    0.17307063205688727    0.23022920210599726    0.2951147274040952    0.3380764704941433    
  0.39058679402843804    0.38961320872666344    0.3897389549708055    0.3908133089760031    0.3380728608697285    
  0.24685105051987347    0.17362268216494262    0.13785275879887623    0.13787508290426867    0.17357887681350384    
  0.24697702621505463    0.3380764704941433    0.35174141328055786    0.3875102445142475    0.3110428282256025    
  0.25976346542512824    0.3106728320529696    0.38758287959161236    0.35185599531563755    0.24685106333974766    
  0.17314350385741906    0.14956853321320943    0.17315083570936293    0.2468637229684464    0.35174141328055786    
  0.33814110636550776    0.38763361615888187    0.25918602518549894    0.13410183986228233    0.13430918251778112    
  0.2591574083881493    0.38758286704579087    0.3380728504194196    0.23026323826663644    0.17227668672645843    
  0.17232748436686687    0.23019574130794737    0.33814110636550776    0.2948773663167132    0.390812468116928    
  0.31067449064663005    0.13430919954204643    0.07466042371299966    0.13430918100754227    0.31067283524327205    
  0.39081329429369754    0.2948777353730784    0.2031400289923133    0.17251515320809713    0.20314012178616522    
  0.2948773663167132    0.23301301223343102    0.3410982396482773    0.38968669918408144    0.25973306901948706    
  0.1343092142876404    0.1341018428327447    0.25976347490603663    0.3897389768061885    0.34116604554086355    
  0.23294497257881563    0.17468641928090775    0.17463501145293095    0.23301301223343102    0.17714254066678323    
  0.25142607649179205    0.356129337758048    0.3896867333642329    0.31067449768225636    0.2591860114228844    
  0.31104282729926913    0.389613228167269    0.3560137585043327    0.25143884927508753    0.17714993267946763    
  0.15327810080589419    0.17714254066678323    0.14207078286396435    0.17818617632956615    0.25142606314894866    
  0.34109824855010873    0.3908124508698215    0.38763363031638537    0.3875102385564349    0.39058676867056213    
  0.3411010749465848    0.2515542811742793    0.17814192453951724    0.14209345067048337    0.14207078286396435    
  0.13043600780271467    0.14207077949303298    0.17714255121286268    0.23301300696985905    0.29487737346453685    
  0.3381411106234784    0.3517414162437759    0.33807646399805746    0.2951147456907359    0.23297918478825205    
  0.17706776280107261    0.14208125560692605    0.13043600780271467    0.11933226258337433    0.12957773220649216    
  0.16024583747230495    0.20946461368755093    0.2659065180737411    0.30885144799613384    0.3240493786679624    
  0.30882417607437973    0.26604278502280304    0.20943915883249725    0.16021586772495675    0.12958113150647543    
  0.11933226258337433    0.1295811196832484    0.12958616162199071    0.13959688899944434    0.15880666984271868    
  0.1845251078098579    0.2093612845702884    0.22513428228386648    0.22518627381352527    0.20937562849022676    
  0.18441708300678192    0.1588187694930831    0.13963159048733279    0.1295811196832484    0.16021586233492507    
  0.16101035399892424    0.160252616541185    0.1588357048301927    0.1581817924623874    0.1589612913174382    
  0.16042017410162673    0.16120360452564975    0.16038456484394037    0.15894354486841603    0.15828787094842903    
  0.1588187634478772    0.16021586233492507    0.2094391481954783    0.22530218128916818    0.2252489112370427    
  0.209425215801388    0.18452477410691295    0.15893184518684023    0.13994130645161793    0.13011799153026787    
  0.1301117637244053    0.1399766472857219    0.1589435587071408    0.18441709460791936    0.2094391481954783    
  0.2660427649518174    0.30903368376437457    0.32432190508331155    0.30906051405238805    0.2659076828922376    
  0.20940082632291326    0.160414199654162    0.13010869435019745    0.12005396093531936    0.13011174261810296    
  0.16038457366753667    0.20937564805147368    0.2660427649518174    0.30882416586859807    0.3711292325491921    
  0.38978731091092    0.389857805263315    0.371272137220487    0.308806645804474    0.22513359396389374    
  0.16122215376683313    0.13010868418874066    0.13011797253903828    0.16120361159771934    0.22518626317443954    