#     DFTpy    
  CRYSTAL 
    
  PRIMVEC    
  6.703241379310345    0.0    0.0    
  0.0    6.703241379310345    0.0    
  0.0    0.0    6.703241379310345    
  PRIMCOORD    
  8    1    
  Si    0.0    0.0    0.0    
  Si    1.6758103448275863    1.6758103448275863    1.6758103448275863    
  Si    0.0    3.3516206896551726    3.3516206896551726    
  Si    1.6758103448275863    5.027431034482759    5.027431034482759    
  Si    3.3516206896551726    0.0    3.3516206896551726    
  Si    5.027431034482759    1.6758103448275863    5.027431034482759    
  Si    3.3516206896551726    3.3516206896551726    0.0    
  Si    5.027431034482759    5.027431034482759    1.6758103448275863    
  BEGIN_BLOCK_DATAGRID_3D    
  3d_datagrid_density    
  BEGIN_DATAGRID_3D#0    
  29    29    29    
  0.0    0.0    0.0    
  6.703241379310345    0.0    0.0    
  0.0    6.703241379310345    0.0    
  0.0    0.0    6.703241379310345    
  0.08573821555690293    0.1502157277362566    0.34795544036949    0.4453972225803119    0.315152428850423    
  0.16818586959746618    0.08522944340607352    0.04642914502353715    0.029119918529123625    0.021357921521371448    
  0.017803534940927266    0.016230868312803903    0.015558102114635819    0.015299294092991305    0.015226404388888046    
  0.015299282942086783    0.015558097204186175    0.016230867651093005    0.017803532468093422    0.021357925009106098    
  0.02911993908648338    0.046429120278511565    0.08522946277874358    0.16818584388782762    0.3151524176817091    
  0.4453971704348888    0.34795540451751367    0.15021572989757878    0.08573821555690293    0.15021571296588015    
  0.221218748946722    0.3946823662065777    0.4376277516375453    0.2973562436955806    0.1596308074690961    
  0.08256213933439162    0.046055991594802954    0.029453078378441234    0.021828995171953643    0.018219134102278847    
  0.01652529094022967    0.015733847129608146    0.01539832523417009    0.015299279382597081    0.015398331170668437    
  0.015733844218631533    0.01652528577633498    0.01821913037211008    0.021828989137887486    0.029453079139361057    
  0.04605598389436468    0.08256214436243259    0.1596308380275425    0.29735625529949383    0.4376277711548289    
  0.39468233986769846    0.22121879478557893    0.15021571296588015    0.34795537688655853    0.3946822889423121    
  0.45370891737676045    0.38893075851723635    0.2480535867636728    0.13742040764640656    0.07573654276560662    
  0.04521940335478312    0.030496459678051265    0.023222092148782254    0.019447387105520537    0.01741595410497093    
  0.016296812506884428    0.015733855981876363    0.015558111380189643    0.015733859062620977    0.016296814396152572    
  0.017415951031408625    0.019447407005356708    0.023222093179507748    0.0304964589654614    0.0452194140197475    
  0.07573655862061311    0.13742036640097482    0.24805362984217963    0.3889308048013443    0.45370891451461764    
  0.39468231947847027    0.34795537688655853    0.4453972965168946    0.43762774476707883    0.3889307652900307    
  0.2887165985527436    0.18387555784182164    0.11003533116062833    0.06735829436591696    0.04452937340799214    
  0.03237488744219526    0.025583622412707157    0.02153864330848856    0.019005815868259297    0.017415953573675463    
  0.016525286126057255    0.01623086582947687    0.01652529383455945    0.01741594194343784    0.019005827385165246    
  0.021538645461814325    0.025583628383437147    0.03237488677485601    0.044529385791317315    0.06735829356095085    
  0.11003533937864157    0.18387551904739338    0.2887166336577909    0.3889307634376146    0.4376277062917078    
  0.4453972965168946    0.3151524382945152    0.29735628757316707    0.2480535901378271    0.18387555874252626    
  0.12629795046702746    0.08536567732951414    0.05977736378927798    0.04452950067470378    0.03516885128016445    
  0.02896831362920807    0.024626477621322227    0.021538646324593697    0.01944738232555182    0.01821913581864422    
  0.017803532020839518    0.018219128995931286    0.019447389757790787    0.021538630700304626    0.02462648544004807    
  0.02896831333063521    0.035168861285547935    0.04452950725113766    0.059777371409692075    0.08536568435790512    
  0.1262979291373621    0.18387553538656137    0.24805358781575748    0.2973563085327134    0.3151524382945152    
  0.1681858678337799    0.1596307917845555    0.13742041885915462    0.11003533528009203    0.08536569991270622    
  0.0667451693786783    0.053966943445665626    0.04521929366045312    0.03864824513593288    0.0333188359039725    
  0.028968327555501064    0.02558363036640882    0.02322209184923521    0.021828993311455273    0.02135792120175156    
  0.02182900712993734    0.02322208944532925    0.02558362528814053    0.02896831203357825    0.03331883665404104    
  0.03864822268101457    0.045219304796948225    0.053966937012583795    0.06674519361610907    0.08536568227860157    
  0.11003532219176387    0.13742043392596073    0.15963078130429148    0.1681858678337799    0.08522940486901003    
  0.0825621588469091    0.07573652078947295    0.06735830532689963    0.059777349577831304    0.05396696775180955    
  0.04968176710214341    0.046056109774773014    0.042386508197180844    0.038648235104114956    0.03516885015104255    
  0.032374895446234675    0.030496471191280565    0.02945308612505825    0.02911992253053557    0.029453085956934435    
  0.03049646475160752    0.03237488035259748    0.03516886053585341    0.038648227692624916    0.0423865113360337    
  0.046056095349887444    0.049681773386918565    0.05396696282757336    0.05977736851584629    0.06735831471829896    
  0.07573652782269706    0.0825621695283843    0.08522940486901003    0.04642915351657344    0.046055955029497005    
  0.04521945134586113    0.04452935964704883    0.044529504821731826    0.0452192920489577    0.04605612759408034    
  0.046429011499931075    0.04605610558043999    0.045219291451412354    0.04452950276365452    0.04452937816835791    
  0.04521940532787912    0.046055987268091084    0.046429132566633904    0.04605598649182354    0.04521940486992562    
  0.044529382881644625    0.044529505106614624    0.04521930112421907    0.046056107464958834    0.046429007054283704    
  0.0460561124959694    0.04521927437997157    0.04452951729156141    0.044529353899271776    0.045219438310898745    
  0.04605596111057605    0.04642915351657344    0.029119902018958265    0.02945310634630747    0.030496443982038903    
  0.0323749077362026    0.035168826178101194    0.038648245527327554    0.042386506298571956    0.04605612305139102    
  0.04968176331013553    0.053966963359045134    0.059777368714969165    0.06735829542338237    0.07573655325366963    
  0.08256212444948482    0.08522944180173411    0.08256212844139764    0.07573656532051505    0.06735829940326778    
  0.05977737568628657    0.053966946683359364    0.04968177594426982    0.04605609969715829    0.042386507386913026    
  0.03864824363798799    0.03516882669709161    0.03237490971984893    0.030496455806917334    0.029453118697100898    
  0.029119902018958265    0.021357937976458574    0.02182896419773156    0.02322211879910562    0.02558362140354271    
  0.02896834443995054    0.033318820302868306    0.038648250801490196    0.045219271722034035    0.05396695793189812    
  0.06674518556312466    0.08536566416030594    0.11003535677423816    0.13742036533903654    0.15963081781870841    
  0.16818583231763265    0.15963084983323308    0.13742037492937387    0.11003533815695876    0.08536568205251928    
  0.06674519584802646    0.053966943860414306    0.045219286480645694    0.038648243283281605    0.03331883109294853    
  0.02896832991236283    0.025583614685264832    0.023222132190923846    0.021828967973817927    0.021357937976458574    
  0.017803513349643443    0.018219153768866597    0.019447378109216262    0.021538668558995423    0.0246264520972613    
  0.028968319628730293    0.035168844945480206    0.04452951504488376    0.05977735766461381    0.08536566468326699    
  0.12629798592695674    0.1838754941419468    0.24805362412813423    0.29735623293086705    0.31515247491907156    
  0.297356214384001    0.24805357927231486    0.18387550907826708    0.1262979771099435    0.08536566777332098    
  0.059777360873279874    0.044529516094805335    0.035168853852898536    0.028968321264850726    0.024626460259568203    
  0.021538666923969635    0.019447373837057882    0.01821915082987867    0.017803513349643443    0.016230886931462844    
  0.016525259416706975    0.017415979695845706    0.019005806830571847    0.021538662557113192    0.025583600231157355    
  0.03237490775952831    0.044529357611335266    0.06735830864365379    0.11003532916772384    0.18387554601023842    
  0.28871660148663736    0.3889306930580999    0.4376278261638364    0.44539715039068445    0.43762783773573327    
  0.38893067745667464    0.2887166234615795    0.1838755355441621    0.11003533275932227    0.06735829054595867    
  0.044529374000955114    0.032374898687561944    0.025583606416128037    0.02153865503430758    0.01900581341281455    
  0.017415975013165698    0.01652526120870688    0.016230886931462844    0.015558069129643966    0.015733871910720284    
  0.016296790670871544    0.017415977194196356    0.019447369972703594    0.02322211521061462    0.030496460500502028    
  0.04521942495485596    0.07573654624472752    0.13742040237396702    0.248053603812663    0.3889307400948486    
  0.45370888811290844    0.3946823108745105    0.34795548563644896    0.3946822323705511    0.4537089719555393    
  0.3889307184180478    0.248053633968017    0.13742038178534252    0.07573653224569252    0.04521943047664693    
  0.030496462984173463    0.02322211114084567    0.019447381667880674    0.017415965356247738    0.016296798823915618    
  0.015733870005639347    0.015558069129643966    0.015299305592866779    0.015398312643068538    0.015733878855455775    
  0.0165252615692244    0.018219138708028035    0.021828974186198502    0.029453104202437148    0.04605597404277239    
  0.08256213276158765    0.1596308265500829    0.2973562649123389    0.4376278966159371    0.3946822301245359    
  0.22121884812867534    0.15021566929049937    0.22121881223518805    0.3946822619288154    0.43762785200932763    
  0.2973562519908641    0.15963084101751443    0.08256211736745903    0.04605598074229562    0.029453082543711782    
  0.021828972798827707    0.018219140911550236    0.016525262534680677    0.01573387298046437    0.015398315925894317    
  0.015299305592866779    0.015226370121620222    0.015299304878965468    0.015558086876322326    0.016230885259954465    
  0.01780352036495708    0.021357941164173937    0.029119921069547756    0.046429143194087245    0.08522944679978407    
  0.16818585027741076    0.3151524735222071    0.44539718631048447    0.3479554529593937    0.15021566736129524    
  0.08573826867446599    0.15021566440811565    0.347955377040707    0.44539712612215604    0.3151524490404091    
  0.16818584859334074    0.08522943619631536    0.04642914267347164    0.02911992426472744    0.021357934248525678    
  0.017803521901165884    0.016230885884958426    0.01555807873251192    0.015299307669150919    0.015226370121620222    
  0.0152993044452248    0.015398303810297723    0.01573387716175603    0.016525262191937267    0.018219151082978925    
  0.02182897259843355    0.02945308899624841    0.04605596498580266    0.08256213598544579    0.15963084221876983    
  0.29735623550826407    0.4376278347795862    0.3946822466673412    0.22121882950522817    0.15021567833385097    
  0.2212188310619819    0.39468232008868454    0.4376278462582106    0.2973562464606272    0.1596308553060093    
  0.08256212971213873    0.046055981021933166    0.029453085009371504    0.0218289812153215    0.01821913846404674    
  0.01652526833625624    0.01573387479520885    0.01539832001078944    0.0152993044452248    0.015558082487503703    
  0.01573387257792985    0.016296798704589346    0.01741597751207445    0.01944738158856112    0.023222112826475846    
  0.030496464295401753    0.04521941712717038    0.07573655364944783    0.13742036452379464    0.24805364824623471    
  0.3889306681338317    0.45370889431567574    0.3946822365167038    0.34795549287727745    0.3946822629120052    
  0.45370897434978885    0.3889306886555755    0.24805365178457298    0.13742037542036437    0.07573654553904774    
  0.04521941489229504    0.03049645977237409    0.023222115765828284    0.019447379252688617    0.017415973703586426    
  0.016296803660291702    0.015733853550070395    0.015558082487503703    0.01623088084763416    0.016525266753711902    
  0.017415972209140596    0.01900580818320201    0.021538664680257624    0.02558360330417469    0.032374886641910405    
  0.044529369878619676    0.06735827885330146    0.11003535141793738    0.1838755401107758    0.28871667957553093    
  0.38893062545255114    0.4376278224482218    0.4453971467401515    0.43762782848155213    0.3889306580595157    
  0.2887166992330326    0.18387550675442152    0.11003536251061298    0.0673582941471732    0.0445293872406045    
  0.03237488510197088    0.025583611065049715    0.021538650882360174    0.01900582419055048    0.017415962724994977    
  0.01652528218230794    0.01623088084763416    0.01780352421773818    0.018219146522188697    0.01944738719937694    
  0.02153864793332341    0.024626472151402182    0.028968311571671068    0.035168846317392116    0.04452950162907653    
  0.059777380663991644    0.08536567310042105    0.12629799423980914    0.18387549089020938    0.2480536292390236    
  0.29735620956582515    0.31515250253021965    0.29735620461197027    0.248053637838395    0.18387547727813444    
  0.1262980180441957    0.0853656468514764    0.05977738437879061    0.04452949749608339    0.035168856486265505    
  0.02896831270152014    0.02462646509251374    0.02153864504973509    0.019447379045339417    0.01821915237522428    
  0.01780352421773818    0.021357925054920953    0.02182898317636232    0.023222118772005914    0.02558361834656395    
  0.02896832376725967    0.03331883128342242    0.038648219407775505    0.04521929602991697    0.05396692894774155    
  0.06674520595608473    0.08536565327801396    0.11003537697734539    0.13742032702787976    0.15963087117649102    
  0.16818579038045708    0.1596308780026756    0.1374203322544687    0.11003538348195799    0.08536564698240362    
  0.06674521578898744    0.05396691447650366    0.04521931003662678    0.03864821730818106    0.03331884865825185    
  0.028968324001629842    0.025583619627145202    0.023222106398949477    0.02182897843052734    0.021357925054920953    
  0.029119906714227577    0.029453086632911848    0.03049647427211997    0.03237488657768746    0.03516885364814139    
  0.038648236671688006    0.04238651839318348    0.04605609641274925    0.04968179445425431    0.053966921744845804    
  0.059777403798912734    0.06735826596873024    0.07573657216040344    0.0825621102158655    0.0852294926096093    
  0.0825620950061364    0.07573657944829974    0.06735826302972775    0.0597773959515223    0.05396692762117316    
  0.04968179529795107    0.04605608194547386    0.04238653094467337    0.03864823406647398    0.03516884868784698    
  0.03237488892609748    0.03049647170741033    0.02945309728875399    0.029119906714227577    0.046429126367583354    
  0.046055987330696636    0.04521942436599668    0.0445293711621129    0.044529494912132005    0.045219304243648534    
  0.04605609971387617    0.04642902244684152    0.04605608697644584    0.04521929417239796    0.044529470017431516    
  0.0445294129520166    0.045219387667447514    0.04605601251832819    0.04642912241490871    0.04605600832496724    
  0.04521937620315405    0.04452941163641651    0.04452948125615252    0.0452193211696197    0.046056086466285236    
  0.04642902653756228    0.04605609960407847    0.04521929785594347    0.04452949798055073    0.04452940244950882    
  0.04521940180690538    0.046055980740980135    0.046429126367583354    0.08522943597487967    0.08256213456660083    
  0.07573655016709074    0.0673582920619149    0.059777356146354946    0.053966940315304024    0.04968178653014231    
  0.046056094786785816    0.04238653725010517    0.03864822044753801    0.03516886950727726    0.03237487653831526    
  0.030496488251423905    0.02945307115742134    0.029119939905983983    0.02945305960742705    0.030496481836737945    
  0.032374887556644194    0.03516887040370852    0.03864820862407979    0.04238653138072506    0.046056074972328616    
  0.04968179264563931    0.05396693567017924    0.059777369745307854    0.06735828141638045    0.07573654765325395    
  0.08256214400999319    0.08522943597487967    0.16818584521132224    0.159630798159896    0.13742040762651597    
  0.11003536934830176    0.08536565846247171    0.06674520537290063    0.05396693584741889    0.04521930619283919    
  0.03864821700986463    0.03331884528327151    0.02896829724065913    0.0255836412712549    0.023222076808397944    
  0.021829008895755914    0.02135791512015555    0.021829004030409754    0.0232220791699651    0.025583641110953573    
  0.028968307257177736    0.033318854329055396    0.03864821666340354    0.045219316599296414    0.05396692831729426    
  0.06674520611145335    0.0853656593270458    0.11003535547763882    0.13742041876727248    0.1596308103727963    
  0.16818584521132224    0.31515246544965747    0.2973562563222924    0.24805361806458315    0.18387551328884177    
  0.1262979375173412    0.08536566155626038    0.05977739023920735    0.04452949190673037    0.0351688509465192    
  0.028968297952429573    0.02462649577682638    0.0215386335814133    0.019447398546672514    0.01821912593155111    
  0.017803546330281476    0.018219129009469523    0.019447391968938146    0.02153862036076065    0.024626492605660792    
  0.028968295114353785    0.03516886218135166    0.044529488028273355    0.059777376213348395    0.08536566956537554    
  0.12629795892767015    0.18387554162436123    0.24805360736342127    0.2973562484279313    0.31515246544965747    
  0.4453972197384585    0.437627712951649    0.38893073197041916    0.28871663690113225    0.1838755311268121    
  0.1100353379245197    0.06735826859288468    0.04452937837641346    0.03237488542261781    0.025583626013485745    
  0.021538635221825662    0.019005831798642955    0.01741593712524993    0.01652529879038103    0.01623085393080587    
  0.016525301080957965    0.017415936986763955    0.01900583652675095    0.021538650091155808    0.025583643032832372    
  0.032374880866160805    0.044529387306043326    0.06735827322954262    0.11003536224855295    0.18387549078480883    
  0.2887166105689005    0.38893071563611725    0.4376278310917491    0.4453972197384585    0.34795539109381507    
  0.3946822849588597    0.45370893136571355    0.38893073756051755    0.2480535869821301    0.13742037934988957    
  0.07573655631805061    0.04521941883471848    0.03049647963744994    0.02322208132580109    0.019447401424668394    
  0.017415949830456738    0.01629682140897661    0.01573384271648884    0.015558110590526747    0.015733847733222776    
  0.016296817077070987    0.017415948609594868    0.019447404795084722    0.02322208869076088    0.030496471825311414    
  0.04521940977583809    0.07573657995878555    0.13742037734819432    0.24805362005214512    0.38893077294698336    
  0.4537089508868562    0.3946823355426261    0.34795539109381507    0.15021570926561856    0.22121876991138212    
  0.3946823636183113    0.43762777199396075    0.297356328257534    0.15963082930642863    0.08256212122379833    
  0.046055993947156766    0.02945307427305061    0.021828988772983313    0.01821913264951861    0.01652529874643789    
  0.0157338337977648    0.015398342101014352    0.01529928157279283    0.015398334577263752    0.015733849051512    
  0.016525292079923055    0.018219121328023627    0.02182900328822669    0.029453063982265784    0.04605599273482499    
  0.08256213239668617    0.15963082471707937    0.2973562113636486    0.4376278420685381    0.3946823492948272    
  0.22121876856877706    0.15021570926561856    0.08573821555690293    0.1502157277362566    0.34795544036949    
  0.4453972225803119    0.315152428850423    0.16818586959746618    0.08522944340607352    0.04642914502353715    
  0.029119918529123625    0.021357921521371448    0.017803534940927266    0.016230868312803903    0.015558102114635819    
  0.015299294092991305    0.015226404388888046    0.015299282942086783    0.015558097204186175    0.016230867651093005    
  0.017803532468093422    0.021357925009106098    0.02911993908648338    0.046429120278511565    0.08522946277874358    
  0.16818584388782762    0.3151524176817091    0.4453971704348888    0.34795540451751367    0.15021572989757878    
  0.08573821555690293    0.1502157048179169    0.22121878223816135    0.3946823693135656    0.43762777185261664    
  0.2973562442600838    0.15963082904552348    0.08256212297913401    0.04605599303174047    0.02945306769284817    
  0.02182898986269805    0.018219139304532114    0.016525286382415495    0.015733842867445374    0.015398341279175817    
  0.015299287605847088    0.015398330969821091    0.015733836014406432    0.016525297967261446    0.018219119922945927    
  0.021828998442988436    0.02945307891218224    0.04605598281210497    0.08256213315726044    0.15963083675107828    
  0.2973562202731301    0.4376277984874105    0.39468230147993866    0.22121878119337673    0.1502157048179169    
  0.2212187763247345    0.2919625045091682    0.43317631683240043    0.43307011752182306    0.2885523639759238    
  0.1586492291998634    0.08540923490914608    0.04968191587377116    0.03277567354119097    0.024540780343138256    
  0.020270642147476085    0.01795812497771277    0.01662653855738144    0.015845772984012636    0.015398324793331093    
  0.015217701352206767    0.015305235122917298    0.01584493932523984    0.017238226828778156    0.02040383238896427    
  0.027280511790459202    0.04238662640694532    0.07560146141466773    0.14577027431078535    0.27299967652113744    
  0.41742427088422707    0.42255575609267954    0.28794951937724256    0.2212187763247345    0.39468231985460717    
  0.4331762219469735    0.46474305840799085    0.3855579397721673    0.24993282606809325    0.14533823760011025    
  0.08524469376471536    0.053966802323304204    0.037802608198499225    0.028947616211031344    0.02366504699055883    
  0.020308697617758054    0.01808364790299554    0.01662654934870721    0.0157338554331589    0.01530524357384588    
  0.015285453793025329    0.01577066939639067    0.017073499402161137    0.019934688780755917    0.02594430849536468    
  0.038648125093597704    0.06557158139838341    0.12075206234410547    0.22125069064467204    0.35648309716823273    
  0.44253526205176297    0.4225556886439519    0.39468231985460717    0.43762775927938335    0.43307013341940237    
  0.3855579250754005    0.2927316599287914    0.19641719038471273    0.1267835910864573    0.08435100711579609    
  0.05977751396630243    0.045099868470769    0.03549374333660491    0.02871577194959824    0.023805891634080152    
  0.020308697142174238    0.01795811464639523    0.016525286410247152    0.01584494600694614    0.015770661666932546    
  0.016294738393076342    0.017610985332353883    0.02023184149257352    0.025289351749726623    0.03516895532649855    
  0.054702908835244056    0.09235859636277839    0.1588422617097632    0.25605322939554337    0.3564830375528147    
  0.41742426650229064    0.43762775927938335    0.2973562964767892    0.2885523418514802    0.24993284109884875    
  0.19641718043653433    0.1465658903483097    0.10941911945505868    0.08435120045258271    0.06735811748152723    
  0.05470302267761909    0.04427829990620319    0.03559842178064484    0.028715770265344633    0.023665039415017006    
  0.020270639770406596    0.018219124261609588    0.017238224791000793    0.017073496232050525    0.01761097818062479    
  0.018912490579774184    0.021248722234079136    0.025289439331957774    0.03237479827802007    0.04509999204593025    
  0.0676705534426909    0.10496626108936455    0.15884224097997723    0.22125070225285431    0.2729996432551163    
  0.2973562964767892    0.15963076686187058    0.15864926308535032    0.14533823686686684    0.12678364015314464    
  0.1094191213027765    0.09578406063191966    0.08524450251638253    0.075736717007516    0.06557142873164482    
  0.05470086444095173    0.04427830877696313    0.035493744064548166    0.028947620558219388    0.024540773375319198    
  0.021828987667027774    0.020403833558597897    0.0199346809781777    0.020231847283243762    0.02124871673597264    
  0.02305598430288128    0.02594423108869609    0.030496574341193086    0.03780250307824213    0.04960804092184026    
  0.06767053433197821    0.09235860359732753    0.1207520833544381    0.1457703065289166    0.15963076686187058    
  0.0825621460698436    0.08540919433574543    0.08524473554239531    0.08435100363440183    0.08435120736015149    
  0.08524451702251226    0.08540942165507344    0.08256194736613057    0.07560160238237394    0.0655714423997543    
  0.05470302500926854    0.045099873553015084    0.03780260509691467    0.03277568729233119    0.029453074985540735    
  0.027280515515524816    0.025944314013580966    0.025289346294273218    0.025289433882168134    0.025944243452924363    
  0.027280587280812778    0.029452978531147367    0.03277577976876934    0.037802497403246725    0.0451000058683515    
  0.054702878952533805    0.06557160417091487    0.07560142687150542    0.0825621460698436    0.046055937866564554    
  0.04968193711101789    0.053966799513098275    0.05977753839119308    0.06735810046077081    0.07573674129628473    
  0.08256195963168045    0.08522963450687103    0.08256195440886241    0.07573669929282396    0.06735813145462992    
  0.05977751189179047    0.05396680826229214    0.04968189947492443    0.046055987495544994    0.04238663218498727    
  0.03864812386098215    0.035168948434951816    0.03237479497905009    0.03049656831937972    0.029452983647074743    
  0.029120022583070497    0.029452977267107387    0.03049656589254341    0.032374774636377626    0.03516897833300544    
  0.03864809854484    0.042386668916618735    0.046055937866564554    0.02945309645106419    0.032775659083630226    
  0.0378026404327333    0.04509984804619745    0.05470304375614854    0.0655714168022396    0.07560162064066125    
  0.08256196946842492    0.08540939537127945    0.08524453340085152    0.08435117934112688    0.08435103068834612    
  0.08524467769032293    0.08540924548661617    0.08256210787204588    0.07560146996641487    0.06557157526710185    
  0.054702901954343346    0.045099991833810804    0.03780251371384993    0.032775777240909874    0.029452982110914402    
  0.02728060917438006    0.02594422688981211    0.02528944032777195    0.025289325054810925    0.025944350185109172    
  0.027280501924980577    0.02945309645106419    0.02182895481207528    0.02454079291383035    0.0289476025865896    
  0.03549377632376733    0.044278293377521385    0.054700893065242534    0.06557142722238288    0.07573672922118192    
  0.085244528680745    0.09578406360769862    0.10941913337647859    0.12678360806673244    0.145338253277206    
  0.15864920831261986    0.1596308446767228    0.14577025364676138    0.12075209103282941    0.09235856544998128    
  0.06767057348859506    0.049608019198763835    0.03780250311950678    0.03049657376434338    0.02594422760088716    
  0.02305598532197042    0.02124869062141985    0.020231867564642216    0.019934673138133366    0.020403850957217994    
  0.02182895481207528    0.018219158574991078    0.020270607434411746    0.023665081318381097    0.02871574659022735    
  0.03559844465722536    0.044278274298904574    0.054703044919685986    0.06735812224212685    0.08435119105812625    
  0.10941912211613476    0.14656585895909788    0.19641719624941528    0.24993282217459772    0.2885524494990878    
  0.29735622843780235    0.2729997505833164    0.22125063378462204    0.15884228131780975    0.10496626631822024    
  0.06767055596181083    0.0450999948674425    0.032374789295776064    0.025289447192411656    0.021248704272638145    
  0.01891249693274201    0.01761096683795299    0.017073515718761884    0.017238203515061307    0.018219158574991078    
  0.016525270380533287    0.017958138358820444    0.020308667073766825    0.023805906576714064    0.02871574905582604    
  0.035493746448501895    0.04509985757164922    0.05977751911492486    0.08435103218681048    0.12678360919229895    
  0.1964172369935355    0.2927316183207379    0.3855579606808668    0.43307007445746637    0.4376277466241069    
  0.41742421397163537    0.35648307641529337    0.25605312609413694    0.15884230948976993    0.09235858702548672    
  0.05470289136310095    0.0351689619905652    0.025289344313852376    0.020231856636487865    0.017610958751393967    
  0.016294763663096897    0.01577064707467604    0.015844971553122054    0.016525270380533287    0.01573386088732443    
  0.016626523479363577    0.018083671524124    0.020308674930442368    0.023665067551741064    0.028947605963353815    
  0.03780262715728359    0.05396680329106157    0.08524469504777249    0.14533825124129343    0.24993281283996738    
  0.3855580044773269    0.4647429021413975    0.4331763505024852    0.3946822786024219    0.42255575292587316    
  0.44253521610407565    0.3564830715703917    0.22125065048328077    0.12075210289157491    0.06557157660439429    
  0.03864811666109935    0.025944336455770326    0.019934669194371785    0.017073516138863744    0.015770643295559356    
  0.015285484386747122    0.015305213777007113    0.01573386088732443    0.015398302449053628    0.01584579403057945    