#     DFTpy    
  CRYSTAL 
    
  PRIMVEC    
  1.4548530800024064    -2.5198794521122365    0.0    
  1.4548530800024064    2.5198794521122365    0.0    
  0.0    0.0    2.7385038399310337    
  PRIMCOORD    
  1    1    
  Si    0.0    0.0    0.0    
  BEGIN_BLOCK_DATAGRID_3D    
  3d_datagrid_density    
  BEGIN_DATAGRID_3D#0    
  13    13    13    
  0.0    0.0    0.0    
  1.4548530800024064    -2.5198794521122365    0.0    
  1.4548530800024064    2.5198794521122365    0.0    
  0.0    0.0    2.7385038399310337    
  0.06051382354358527    0.11104816886715117    0.2765684481767345    0.38708761299577943    0.3213822854454289    
  0.23586706738174779    0.2053954713029896    0.23586705217605    0.3213822805448225    0.3870876281788642    
  0.27656843613096155    0.11104818997552086    0.06051382354358527    0.11104817368655077    0.11095078384923987    
  0.22526842312373532    0.37022298933033765    0.35757184141914805    0.26314410675959415    0.20586326726660176    
  0.20583001415222282    0.2631837608425096    0.3575411361507425    0.3701509655391825    0.2252900257144336    
  0.11104817368655077    0.27656845026467475    0.22526839024848896    0.27678338512801964    0.37013004730395344    
  0.3672956669768753    0.2789408040016469    0.20647104454474202    0.18202807000267748    0.2064717022762457    
  0.2789222451988547    0.36740550977930625    0.3701509790036126    0.27656845026467475    0.38708760747409904    
  0.37022298329010367    0.3701300336150511    0.38695586942389437    0.35752117271123285    0.27903793770414403    
  0.20662764657910032    0.1692912955172827    0.16926726815829574    0.20666697825477967    0.2789222505827284    
  0.35754117337487396    0.38708760747409904    0.32138228519366563    0.3575718415765659    0.36729567194947094    
  0.35752119232063445    0.32154125051729665    0.26317027602140974    0.2063990893359071    0.16927780414450078    
  0.15685194026427268    0.16926727847545003    0.20647170592436945    0.2631837960137186    0.32138228519366563    
  0.2358670720669899    0.2631441312838288    0.2789408086674606    0.2790379549812836    0.2631702751230467    
  0.23572914061049527    0.205841750095538    0.1820995526117531    0.16927781382361737    0.16929129578983246    
  0.18202808263460368    0.20583004968336233    0.2358670720669899    0.20539546696696295    0.20586324882030285    
  0.2064710440051264    0.2066276603063179    0.206399070993601    0.20584175417103487    0.20552917923662506    
  0.20584173905892497    0.20639905759262522    0.20662765434799416    0.20647103737261877    0.2058632702984162    
  0.20539546696696295    0.23586707921615538    0.20583002333567857    0.18202810088796811    0.16929129502120363    
  0.16927782161436838    0.18209956136611058    0.2058417537396494    0.2357291381964103    0.26317027272824656    
  0.27903793183697206    0.27894082828802613    0.26314412901548406    0.23586707921615538    0.32138229097658993    
  0.2631837840359776    0.20647170570001888    0.1692672785226546    0.15685194349109235    0.16927780780723994    
  0.20639908436604143    0.2631702861528192    0.32154125782995063    0.3575211901944508    0.36729567797457174    
  0.35757183981118246    0.32138229097658993    0.38708759503959667    0.3575411171983508    0.2789222556188531    
  0.20666697274943782    0.16926726341059867    0.16929129452592212    0.20662763436788728    0.279037915743155    
  0.35752116699259057    0.3869558990047688    0.3701300433920046    0.3702229999199496    0.38708759503959667    
  0.2765684264826692    0.37015096303780615    0.3674055139928181    0.2789222603127208    0.20647171010529602    
  0.18202808285557034    0.20647103688868837    0.2789408004006886    0.36729564627390626    0.37013004145722656    
  0.27678339797369905    0.22526841388698593    0.2765684264826692    0.11104816721449408    0.2252900356513745    
  0.3701509551626587    0.3575411474518714    0.26318377108578517    0.20583003803328465    0.20586325564335137    
  0.26314410511907577    0.3575718062086077    0.3702229571225963    0.22526838481797198    0.1109507956019327    
  0.11104816721449408    0.06051382354358527    0.11104816886715117    0.2765684481767345    0.38708761299577943    
  0.3213822854454289    0.23586706738174779    0.2053954713029896    0.23586705217605    0.3213822805448225    
  0.3870876281788642    0.27656843613096155    0.11104818997552086    0.06051382354358527    0.10557374330142365    
  0.1627256101302781    0.31409166787032705    0.3829420433623803    0.3047570792359083    0.2225547186055926    
  0.19409484918509584    0.22255471497203058    0.3047570561740326    0.3829420300171221    0.31409166173190606    
  0.1627256264251034    0.10557374330142365    0.16272560654054996    0.1626004669346122    0.2714607331282405    
  0.37942450949643686    0.3424951518198039    0.24852111119213383    0.19460673497530626    0.19457508301038232    
  0.2485566972322353    0.34246333380829586    0.3793827042039715    0.2714581692107178    0.16272560654054996    
  0.3140916824460343    0.2714607082576184    0.3142973989768003    0.37934910442120473    0.35393596365200924    
  0.26401585461392024    0.1953507741451934    0.17252680085513822    0.1953518067735238    0.2640058991897877    
  0.35400848110325706    0.3793827062940731    0.3140916824460343    0.38294204085389516    0.37942448721274036    
  0.37934910812726735    0.3828214728486753    0.34245833131935177    0.26408584108430194    0.19561012317931906    
  0.16063659175800385    0.16062042633889    0.19563486991048115    0.26400590731900875    0.34246335958427887    
  0.38294204085389516    0.30475708423899367    0.34249516022310794    0.35393597793340903    0.34245834262052716    
  0.3048906275928781    0.24854091114390262    0.19529995709735545    0.1606268937938259    0.14897989845445853    
  0.16062044276263046    0.19535181194207324    0.24855671177840866    0.30475708423899367    0.22255472997389045    
  0.2485211317600578    0.26401586551346834    0.2640858520818497    0.24854091623090827    0.22244109978274038    
  0.19458793246412895    0.17257804275308275    0.16062688733058997    0.16063658980357567    0.17252679795806397    
  0.19457510728528413    0.22255472997389045    0.19409483678718567    0.19460672979881727    0.19535078482339788    
  0.19561012063351632    0.19529996401033906    0.19458795261081216    0.19420417658617467    0.19458793818073553    
  0.19529994573476897    0.19561012568655112    0.1953507830031401    0.19460674351343843    0.19409483678718567    
  0.22255472384134334    0.19457510370923922    0.1725268212066522    0.16063658002801637    0.1606269079687894    
  0.17257804520888145    0.19458793630206478    0.22244110347133036    0.24854091228298755    0.2640858525002348    
  0.2640158738806512    0.24852113415785332    0.22255472384134334    0.3047570796795491    0.24855671299038617    
  0.19535180153600237    0.16062044606037498    0.14897990395599747    0.16062688893592297    0.19529995703523156    
  0.24854092464397687    0.3048906284881516    0.34245833924297114    0.35393597158215334    0.34249516315622497    
  0.3047570796795491    0.3829420347257043    0.34246334361308883    0.26400590646293126    0.19563487275681268    
  0.1606204319275388    0.1606365892144807    0.1956101231556261    0.26408583369793726    0.3424583198070539    
  0.3828214987497772    0.3793491180824525    0.37942452990829934    0.3829420347257043    0.31409164162658376    
  0.3793826895430727    0.3540084810159599    0.2640059161488613    0.19535181634520982    0.17252680021539263    
  0.19535077923527033    0.264015856877415    0.3539359502816523    0.37934911147297307    0.3142974039144349    
  0.2714607309845015    0.31409164162658376    0.1627256156055661    0.2714581852970078    0.37938268597242336    
  0.3424633605320511    0.248556695319344    0.1945750982879975    0.19460673496894224    0.24852110570230174    
  0.3424951234965159    0.3794244873187341    0.27146071374457603    0.16260047809263178    0.1627256156055661    
  0.10557374330142365    0.1627256101302781    0.31409166787032705    0.3829420433623803    0.3047570792359083    
  0.2225547186055926    0.19409484918509584    0.22255471497203058    0.3047570561740326    0.3829420300171221    
  0.31409166173190606    0.1627256264251034    0.10557374330142365    0.2621306498060527    0.3075732900910952    
  0.3786709944020147    0.35416246142158886    0.26024603307909056    0.18904585405490526    0.1657202068179799    
  0.18904584168471328    0.26024601045870754    0.35416246733390816    0.37867095775262277    0.30757330551391043    
  0.2621306498060527    0.3075732900755917    0.30747015421571117    0.3651827989081224    0.3757033197617763    
  0.29755485479085736    0.2110287609910849    0.16618167170143894    0.16616821124056727    0.21104394571605226    
  0.29753801757312015    0.37569695633974004    0.36516203470477315    0.3075732900755917    0.37867098862893    
  0.3651827687338534    0.37878367143516534    0.37566787662283285    0.3107816510217839    0.22473207187510272    
  0.16707440996894077    0.1483862571765929    0.16707294164715245    0.2247342806262569    0.3107978804645877    
  0.37569695962518435    0.37867098862893    0.3541624654061407    0.3757033214748271    0.37566786986121853    
  0.35410753861512606    0.29754344183492176    0.2247573899791127    0.1675132545402573    0.13879554118001153    
  0.13879396516468587    0.1675169495098703    0.22473428933507983    0.29753803974405607    0.3541624654061407    
  0.2602460294589219    0.2975548556670433    0.3107816516331874    0.297543450372583    0.26030063387126606    
  0.21103452273001502    0.16705560754744309    0.13879586656488735    0.1292482893446541    0.13879397921085185    
  0.16707293024088102    0.2110439677335524    0.2602460294589219    0.18904584854233702    0.21102877903402123    
  0.22473208234513456    0.22475740636619865    0.21103450876905255    0.18899977183898842    0.16617747138129155    
  0.14840002960759952    0.138795871399523    0.13879552307237952    0.1483862724863685    0.16616824215730291    
  0.18904584854233702    0.16572019680537736    0.16618167066034778    0.16707441676086335    0.16751325774161063    
  0.16705560715446285    0.16617748020464737    0.16575902441475876    0.16617746917714024    0.167055603615489    
  0.16751325218997648    0.16707441234209633    0.16618168947726883    0.16572019680537736    0.18904584542753206    
  0.16616823497467686    0.14838627392723058    0.13879552339128318    0.13879589157377517    0.14840001706574033    
  0.16617748408634908    0.18899974731394376    0.21103452159178196    0.22475739421909366    0.22473207730510134    
  0.21102877202787013    0.18904584542753206    0.260246020051265    0.21104398001026756    0.16707292881063435    
  0.13879397483605124    0.12924829512063404    0.13879587029480492    0.16705561778697364    0.21103453225421923    
  0.2603006331787001    0.29754346625570605    0.31078166301798327    0.2975548573890409    0.260246020051265    
  0.35416245233397725    0.29753801224964216    0.22473428615963012    0.16751695330851318    0.138793964090995    
  0.13879552978641072    0.16751325681562407    0.22475738314054108    0.29754344033959224    0.3541075815868433    
  0.37566788903610265    0.3757033511744842    0.35416245233397725    0.3786709558585908    0.3756969502004414    
  0.31079788079132975    0.22473429197524455    0.16707294328922653    0.14838625544501147    0.16707440913871388    
  0.2247320671732559    0.3107816309748321    0.3756678767222086    0.37878367810495056    0.3651827904310548    
  0.3786709558585908    0.3075733088890537    0.36516204604188757    0.3756969370248563    0.2975380262829325    
  0.21104394923991845    0.16616821998585324    0.16618167155912553    0.2110287614129198    0.2975548156850793    
  0.3757033237358742    0.3651827856416963    0.30747019416193333    0.3075733088890537    0.2621306498060527    
  0.3075732900910952    0.3786709944020147    0.35416246142158886    0.26024603307909056    0.18904585405490526    
  0.1657202068179799    0.18904584168471328    0.26024601045870754    0.35416246733390816    0.37867095775262277    
  0.30757330551391043    0.2621306498060527    0.4066325055494692    0.4056283724538113    0.3725971162742252    
  0.2906901001773748    0.20404237852322507    0.14946582650445467    0.1321058809830817    0.14946582081143503    
  0.20404235883731656    0.29069011605953754    0.37259709186531986    0.4056283941783548    0.4066325055494692    
  0.40562834892805955    0.4056112593138002    0.38683191337639483    0.32280194353493735    0.23482424138339958    
  0.16602281582043024    0.13245431663165633    0.13245501142192814    0.16602452499210338    0.23482246884444916    
  0.3228015852199069    0.3868256112197582    0.40562834892805955    0.3725971147772477    0.3868318713031428    
  0.3726127882441168    0.3227938700398579    0.24653756281786865    0.1765205865677935    0.13332866567242985    
  0.11942516021779921    0.1333257025403308    0.1765218638642381    0.24653635894052942    0.322801608181318    
  0.3725971147772477    0.29069009562263426    0.3228019403768777    0.32279385731644694    0.29068876879369365    
  0.234822747318269    0.17652387966349822    0.13384495864214585    0.11256346170313003    0.11256423567275345    
  0.13384727857436882    0.17652187206989442    0.23482250258537218    0.29069009562263426    0.2040423797676499    
  0.23482425455983452    0.24653757318780153    0.23482276859862716    0.2040463459097776    0.1660230310544114    
  0.13332621555104726    0.11256495876782381    0.10553740073674892    0.11256423223503581    0.13332569980306824    
  0.1660245391188932    0.2040423797676499    0.14946582851112847    0.16602283661196998    0.17652059905203446    
  0.1765238942888463    0.16602303500921248    0.1494619782403183    0.1324553657515059    0.11942453949992944    
  0.11256496903959601    0.11256347016495985    0.11942515942037972    0.13245503171391168    0.14946582851112847    
  0.1321058683228664    0.1324543025011527    0.13332865963516352    0.1338449621463296    0.1333261971187669    
  0.13245537224387546    0.13210863775016649    0.1324553565849216    0.13332618729391746    0.1338449530461766    
  0.13332865716983508    0.1324543065708657    0.1321058683228664    0.1494658470682071    0.13245501832185727    
  0.11942518173633891    0.112563466085944    0.1125649710992939    0.1194245439801364    0.13245537135284596    
  0.1494619911119365    0.16602304142058244    0.1765238813477462    0.17652059674968962    0.16602283140201174    
  0.1494658470682071    0.20404237858971755    0.16602453413647061    0.1333257008893768    0.11256423925242219    
  0.10553740140765536    0.11256496137337789    0.13332620458354652    0.16602304899865458    0.20404635014411854    
  0.2348227668663095    0.2465375705237029    0.23482424810632466    0.20404237858971755    0.29069008874930136    
  0.2348224630347309    0.17652187704107322    0.13384727152057224    0.11256423143922535    0.11256346776137847    
  0.13384494859829746    0.17652387638440312    0.23482275733489538    0.29068878657755154    0.32279386330135945    
  0.3228019428501245    0.29069008874930136    0.37259708746575393    0.3228015832868802    0.24653635316123454    
  0.17652187893871937    0.13332570651868594    0.11942516863158839    0.133328655560284    0.17652058854728203    
  0.24653755734250737    0.3227938742787212    0.37261280986354    0.38683190991449257    0.37259708746575393    
  0.4056283579302623    0.38682562066422815    0.32280158490282973    0.2348224885029905    0.16602452522351116    
  0.13245503154329968    0.13245430622129264    0.16602281393163093    0.2348242122636754    0.32280191790330937    
  0.3868318757347433    0.40561129032719273    0.4056283579302623    0.4066325055494692    0.4056283724538113    
  0.3725971162742252    0.2906901001773748    0.20404237852322507    0.14946582650445467    0.1321058809830817    
  0.14946582081143503    0.20404235883731656    0.29069011605953754    0.37259709186531986    0.4056283941783548    
  0.4066325055494692    0.3857837688230181    0.3628186502480073    0.2996189304464704    0.2204753043513149    
  0.15496798552416105    0.11603054930498746    0.103580896438533    0.11603054495656633    0.15496796578035135    
  0.22047530766997644    0.29961892366365106    0.36281867414502017    0.3857837688230181    0.3628186351193771    
  0.3628236428928737    0.3194356388355469    0.24802066127823677    0.17739672479948987    0.12785116005495456    
  0.10390587142630789    0.10390770836625556    0.1278512328274467    0.17739770886208364    0.24801954802778994    
  0.3194372660018171    0.3628186351193771    0.2996189355520528    0.31943560450220143    0.29961611886618944    
  0.24802051724886862    0.1861542632179025    0.1353456308521211    0.1046864769534612    0.0947145428710276    
  0.1046844556905089    0.1353447839069788    0.18615373443448346    0.24801955459489225    0.2996189355520528    
  0.2204753112746739    0.24802065498718595    0.24802050992002422    0.2204784563162791    0.17739601194657278    
  0.13534430229118674    0.10513613416308362    0.08994951708095175    0.08994936631057981    0.10513884877946193    
  0.13534479215458164    0.1773977298644435    0.2204753112746739    0.15496798628649527    0.1773967199016284    
  0.18615426956584866    0.17739601618602624    0.15496662503685374    0.1278525808279085    0.10468696513411391    
  0.08994990079038824    0.08494149929922291    0.08994936807658141    0.10468445942507115    0.1278512468496339    
  0.15496798628649527    0.11603055540447983    0.12785117150775907    0.13534563555431164    0.1353443179659631    
  0.12785257722029006    0.11602981063332139    0.10390613052107923    0.09471306685686764    0.08994989920723027    
  0.08994951178480798    0.0947145440820653    0.10390772787501308    0.11603055540447983    0.10358088518477748    
  0.1039058689032606    0.10468647309723665    0.10513612429403588    0.10468696268110697    0.10390613596569376    
  0.10358255482989294    0.10390612745316895    0.10468694762676421    0.10513613045378    0.10468647732640401    
  0.10390588051678616    0.10358088518477748    0.11603054617858276    0.10390772280257353    0.09471455799585224    
  0.08994950892493639    0.08994991063809242    0.09471306919339262    0.10390613171318164    0.1160298094897696    
  0.12785257515212067    0.13534430867384165    0.13534563201770541    0.12785117351457398    0.11603054617858276    
  0.154967975859037    0.12785124088554917    0.10468445330603786    0.08994937134178656    0.08494150105300914    
  0.08994990294032297    0.10468696597095489    0.1278525824934238    0.15496662285856583    0.1773960189287441    
  0.18615426275139973    0.17739671271319682    0.154967975859037    0.2204752997300908    0.17739770965748325    
  0.13534479255201343    0.10513885516846186    0.08994936634516675    0.0899495110163249    0.10513612665134782    
  0.13534429615294594    0.17739601570961536    0.2204784820954297    0.24802052594036467    0.24802067333148653    
  0.2204752997300908    0.2996188996605486    0.2480195373031587    0.1861537242487815    0.13534478951223325    
  0.10468446434555967    0.09471453882303126    0.10468647274761683    0.13534562542593606    0.18615424306996184    
  0.248020521764476    0.29961613874407605    0.31943562880158677    0.2996188996605486    0.362818654473596    
  0.31943728336029026    0.2480195438293181    0.17739771919536837    0.12785122744153088    0.10390772348185781    
  0.1039058712831965    0.12785115554041304    0.17739669581151232    0.24802065708461127    0.3194356122815053    
  0.3628236584641043    0.362818654473596    0.3857837688230181    0.3628186502480073    0.2996189304464704    
  0.2204753043513149    0.15496798552416105    0.11603054930498746    0.103580896438533    0.11603054495656633    
  0.15496796578035135    0.22047530766997644    0.29961892366365106    0.36281867414502017    0.3857837688230181    
  0.31151856875114203    0.28955085927607976    0.2351068207035982    0.17309551552723046    0.1239890231739075    
  0.09502637868576648    0.08567360691899713    0.0950263687417794    0.12398900263257863    0.17309551626891184    
  0.23510679693877656    0.28955086830003635    0.31151856875114203    0.2895508449749438    0.2895507170229939    
  0.2515538199828894    0.1943627476000839    0.14074129888859685    0.10384668878569667    0.08598081792388759    
  0.08598214195559425    0.10384574908017566    0.14074179243726187    0.19436282818341866    0.25155335146064617    
  0.2895508449749438    0.235106823652785    0.2515537900711849    0.23510733959346747    0.194362387103033    
  0.14738957156502644    0.10936427390548949    0.08655736295316374    0.07913951320785124    0.08655654352774436    
  0.10936528193336134    0.14738844658564224    0.1943628401199198    0.235106823652785    0.1730955093094077    
  0.19436275623319774    0.19436239304678302    0.17309525154138797    0.14074151337393007    0.10936518678156838    
  0.08682360648948034    0.07553752103275173    0.07553846833702985    0.0868230646013893    0.10936529648458196    
  0.14074180470064934    0.1730955093094077    0.12398901397224432    0.14074130319294464    0.14738957672898265    
  0.14074150401237986    0.1239896332079953    0.1038460045871862    0.08655647718169308    0.07553853286738874    
  0.07179475735927511    0.07553847692010945    0.08655653799114942    0.10384575319076271    0.12398901397224432    
  0.09502637811763533    0.10384670738611643    0.10936428372100121    0.10936519883756672    0.10384600615797544    
  0.09502595519931648    0.08598217089635532    0.07913898458505397    0.07553853555211429    0.07553751350958209    
  0.07913952282718634    0.08598215739399101    0.09502637811763533    0.08567359586359204    0.08598081927396388    
  0.0865573671276263    0.0868236068248945    0.08655647694186391    0.08598218190296665    0.08567298494669942    
  0.08598216975490153    0.08655646830410604    0.08682360432274829    0.08655736687876894    0.08598083038504001    
  0.08567359586359204    0.09502637391233311    0.08598215886810105    0.0791395238816791    0.07553751226830314    
  0.07553854344997495    0.0791389776860786    0.0859821810931842    0.09502593915026629    0.10384601025941625    
  0.10936518899810767    0.10936427565703415    0.10384669855428073    0.09502637391233311    0.12398901925808695    
  0.10384576409489356    0.08655653780071576    0.07553847285219345    0.07179476000411229    0.07553852662990385    
  0.08655647948718435    0.10384600841574315    0.12398962890767114    0.14074151137372334    0.14738958169607583    
  0.1407412949200671    0.12398901925808695    0.17309550475005747    0.1407417910340669    0.10936529347992273    
  0.08682306800339583    0.07553847188052355    0.07553751665343982    0.08682360355175409    0.10936518768003342    
  0.14074150551782455    0.17309525947483664    0.19436239311146009    0.1943627628469664    0.17309550475005747    
  0.23510679497389333    0.19436282196135413    0.14738845301301629    0.10936529821664874    0.08655654834172662    
  0.07913951257453651    0.08655736490294326    0.1093642679959702    0.14738956559004876    0.1943623863339999    
  0.2351073421722028    0.25155380397446964    0.23510679497389333    0.28955086002926406    0.2515533559466616    
  0.19436282628687476    0.1407417995957109    0.10384575492094487    0.08598214642719264    0.08598082080548573    
  0.10384669226353299    0.1407412723141528    0.19436275601827274    0.2515538100735769    0.28955074585273927    
  0.28955086002926406    0.31151856875114203    0.28955085927607976    0.2351068207035982    0.17309551552723046    
  0.1239890231739075    0.09502637868576648    0.08567360691899713    0.0950263687417794    0.12398900263257863    
  0.17309551626891184    0.23510679693877656    0.28955086830003635    0.31151856875114203    0.28112380671604464    
  0.2611390037438516    0.21238769311475633    0.15730367407898574    0.11373041809633384    0.08804726625899978    
  0.07973585080633243    0.08804725626190543    0.1137304148637225    0.1573036826525617    0.21238768715013176    
  0.26113902863248234    0.28112380671604464    0.261139000674686    0.26114574749174724    0.22706498130876593    
  0.17624968614515893    0.12860292866149814    0.09584814992909371    0.08002406453227515    0.08002322265333751    
  0.0958476323156058    0.1286036768946472    0.17624736350513015    0.22706950800108094    0.261139000674686    
  0.2123876913704538    0.22706494503933913    0.2123849075959531    0.17625152010969955    0.1345349689705614    
  0.1006661941411518    0.08046898121833952    0.0739434685014656    0.08047096379026539    0.10066454939556876    
  0.1345384058118109    0.1762473728318453    0.2123876913704538    0.157303672820959    0.17624968159799656    
  0.17625151694905752    0.15730229033249116    0.1286032261461374    0.1006667059373158    0.08062870789875691    
  0.07070245326963982    0.07070018951011191    0.08062933707229762    0.10066455685364349    0.12860369454025605    
  0.157303672820959    0.11373041476598741    0.12860292768099976    0.13453497172196494    0.12860323265410828    
  0.11373102449458238    0.09584717605649197    0.08046967364541202    0.07069963167069888    0.0674061736107818    
  0.07070019010424858    0.08047096352448817    0.0958476495997166    0.11373041476598741    0.08804726682137445    
  0.0958481651401405    0.10066620021514215    0.10066671840268938    0.09584717959253601    0.0880488416968108    
  0.0800218108956169    0.07394714122414693    0.07069964238360044    0.0707024567100589    0.07394347962685141    
  0.08002324362804288    0.08804726682137445    0.0797358436796989    0.08002405278300843    0.08046897814456286    
  0.08062870966080418    0.08046966439826328    0.08002180875680356    0.07973768430510227    0.0800218034618502    
  0.08046965688377206    0.08062871018447186    0.08046897483919262    0.08002406673693574    0.0797358436796989    
  0.08804727300209297    0.08002322959441208    0.07394348975178042    0.0707024561216235    0.07069964647713645    
  0.07394714572773152    0.08002181674990644    0.0880488411292033    0.09584717848238568    0.10066670379585202    
  0.10066620655075925    0.09584816486797587    0.08804727300209297    0.11373041789753982    0.09584764596727942    
  0.08047096503053638    0.07070019313423172    0.06740617436490012    0.07069963541166853    0.08046966939771384    
  0.09584718336234137    0.11373102899719367    0.12860323600329518    0.13453497372478532    0.12860292412450083    
  0.11373041789753982    0.15730366541400767    0.12860366713853352    0.10066456118626707    0.08062933709236214    
  0.0707001843041961    0.07070245651380026    0.08062869956162753    0.10066669614678143    0.1286032277849554    
  0.15730230852094243    0.17625151842132789    0.1762496899696618    0.15730366541400767    0.21238767415981152    
  0.1762473673198092    0.1345384102146352    0.10066456089559044    0.08047097028364346    0.07394347823825083    
  0.08046897439416831    0.10066619308767129    0.13453496236016046    0.17625152695194765    0.2123849194836145    
  0.22706497700768216    0.21238767415981152    0.26113899983473743    0.22706951556766408    0.1762473611964842    
  0.12860368155498655    0.09584764018019741    0.08002323917213094    0.08002405697551251    0.09584814970204136    
  0.12860291371621627    0.1762496744067934    0.22706495275193084    0.2611457731777267    0.26113899983473743    
  0.28112380671604464    0.2611390037438516    0.21238769311475633    0.15730367407898574    0.11373041809633384    
  0.08804726625899978    0.07973585080633243    0.08804725626190543    0.1137304148637225    0.1573036826525617    
  0.21238768715013176    0.26113902863248234    0.28112380671604464    0.3115185594551418    0.28955086428906174    
  0.23510681762325394    0.17309551668456272    0.12398902026983646    0.09502637162908113    0.08567360112311648    
  0.09502636905537458    0.12398900813029154    0.17309551127077372    0.23510681279392512    0.28955087865805146    
  0.3115185594551418    0.2895508475932566    0.28955072262454207    0.2515538206010487    0.19436274860247485    
  0.1407412931418934    0.10384668918049741    0.0859808218375446    0.08598213997334511    0.1038457532038905    
  0.14074178577172464    0.19436282477865952    0.2515533482059885    0.2895508475932566    0.23510682353249326    
  0.25155379415110535    0.23510733027969447    0.19436237162606662    0.14738957370666186    0.1093642628806009    
  0.08655735659541967    0.07913951757634255    0.08655653971496267    0.10936528160304113    0.1473884530821941    
  0.194362827836196    0.23510682353249326    0.17309551762501954    0.19436273693986467    0.19436238693966465    
  0.17309524934397946    0.14074151900735854    0.10936518851112664    0.08682360757447885    0.07553751637515016    
  0.07553846660917701    0.08682306833071916    0.10936529698476825    0.14074179872393627    0.17309551762501954    
  0.12398902194437807    0.14074129666929824    0.1473895847465824    0.14074151862250112    0.1239896261724213    
  0.10384599552354638    0.08655647828062267    0.07553853353416931    0.07179475867041521    0.07553847240841374    
  0.08655654160664177    0.10384575817975367    0.12398902194437807    0.09502638116125936    0.1038467020935442    
  0.10936427343962225    0.10936519690784445    0.10384600578350997    0.09502595064336061    0.08598217301470996    
  0.07913897287634514    0.075538532978036    0.07553751894335513    0.07913951621579225    0.0859821578015969    
  0.09502638116125936    0.08567358975974125    0.08598081906444904    0.08655736243098258    0.08682360300588628    