#     DFTpy    
  CRYSTAL 
    
  PRIMVEC    
  5.141724137931034    0.0    0.0    
  0.0    5.141724137931034    0.0    
  0.0    0.0    2.832758620689655    
  PRIMCOORD    
  4    1    
  Si    0.0    0.0    0.0    
  Si    2.570862068965517    2.570862068965517    1.4163793103448274    
  Si    0.0    2.570862068965517    0.7081896551724137    
  Si    2.570862068965517    0.0    2.1245689655172413    
  BEGIN_BLOCK_DATAGRID_3D    
  3d_datagrid_density    
  BEGIN_DATAGRID_3D#0    
  23    23    13    
  0.0    0.0    0.0    
  5.141724137931034    0.0    0.0    
  0.0    5.141724137931034    0.0    
  0.0    0.0    2.832758620689655    
  0.05751667245151421    0.103128958035335    0.26193230415043894    0.4016339453574793    0.37501158680522617    
  0.30118954906041046    0.2677854661937288    0.28251204311519845    0.32954481839805805    0.3738714145836623    
  0.386200637471676    0.38341141821566166    0.3862006437336968    0.37387138583965557    0.32954483367059506    
  0.2825120957287375    0.26778544028329193    0.3011895506451073    0.3750116001109294    0.4016339701072998    
  0.2619323195055427    0.10312897708645978    0.05751667245151421    0.10312899919786635    0.1555565630403254    
  0.3038192554818146    0.4004456277991795    0.3547268111722912    0.28207836158243027    0.25062022901746983    
  0.26435118956195786    0.309777099749566    0.35728147341951433    0.3781574376635476    0.3801801116123263    
  0.3781573955141511    0.35728148205459137    0.30977714675118034    0.2643511998307389    0.2506202071976681    
  0.2820783523964967    0.35472685046986385    0.40044564880974437    0.3038192256618606    0.15555656324495884    
  0.10312899919786635    0.26193228739588387    0.30381918936097657    0.3774378878496974    0.3739670746981457    
  0.2995342964084621    0.23418117358695092    0.20805526644482372    0.2191692035856899    0.25839377524685225    
  0.30664849925083304    0.3398524158848097    0.35016295601397    0.33985246205552055    0.30664842271448145    
  0.25839378192063117    0.21916922023483404    0.20805527195997736    0.2341811652404564    0.2995343059389161    
  0.37396703797214037    0.3774378863749638    0.30381929129377727    0.26193228739588387    0.4016339755800366    
  0.40044556852706453    0.37396704340500486    0.3058429088567045    0.229685781120163    0.1786004773073143    
  0.15905852705771217    0.16696111326595808    0.1963942137984801    0.2360506062274031    0.26918272686311784    
  0.28196144339912205    0.26918276229515714    0.23605057348216574    0.19639423409240203    0.16696111975946368    
  0.1590585081596374    0.178600479413061    0.22968575568994964    0.3058428880933553    0.37396704823989896    
  0.40044555013038446    0.4016339755800366    0.37501158359589076    0.35472680339133117    0.2995343120378129    
  0.22968577769050288    0.17017730854032323    0.13323590071762598    0.11902696059785162    0.12415927047779327    
  0.14438836239618483    0.17248123433192863    0.19739325664698076    0.2074923230213428    0.19739327150870054    
  0.1724812057986342    0.14438840647254234    0.12415923976618003    0.11902697051837502    0.13323588840586523    
  0.1701773337626874    0.22968577377751406    0.2995343084530143    0.3547268236909975    0.37501158359589076    
  0.3011895925713152    0.2820783738164879    0.23418119496198728    0.17860049964181668    0.13323589830700344    
  0.10518167293286886    0.09415520706178737    0.09739362235850858    0.11147309889112395    0.1313504325431464    
  0.14904684926444436    0.15614353379087714    0.14904686472423836    0.1313503955914199    0.11147313320639621    
  0.09739362585373133    0.09415520602034763    0.10518165797321137    0.13323590796898868    0.17860049390522167    
  0.23418121715838874    0.2820783651994961    0.3011895925713152    0.26778549401397517    0.2506202093304025    
  0.20805524981964915    0.15905853868838055    0.11902696831810193    0.09415519979442823    0.0841099481215435    
  0.08621812547986513    0.09746709292162484    0.11371645392722014    0.12820237115251393    0.13395898753769306    
  0.12820241307624153    0.11371639593210343    0.09746713128946284    0.08621813172888948    0.08410993832929822    
  0.09415519545597795    0.1190269632511368    0.15905850500032534    0.2080552562353466    0.2506201970756701    
  0.26778549401397517    0.28251211299108253    0.2643511494000803    0.21916927799238872    0.16696110167879277    
  0.12415927775516843    0.0973936010377247    0.08621814428486604    0.08781689425609378    0.09909387391236225    
  0.11560517170579836    0.13042060759566    0.13640094990218868    0.13042062849591346    0.1156051705483217    
  0.0990938997317137    0.08781692411516036    0.08621812632206272    0.09739362143531667    0.12415926254309821    
  0.16696111393403096    0.21916925568388151    0.26435118701715576    0.28251211299108253    0.32954482078659814    
  0.3097771127049407    0.2583937759990396    0.19639423034691084    0.1443883922386781    0.11147312450091997    
  0.09746711764864005    0.0990938725718183    0.11270013468448539    0.13266612133715233    0.15067398980576482    
  0.15805830409262708    0.1506740045038683    0.13266607738437586    0.11270016738819928    0.09909387937467636    
  0.09746711644290192    0.11147311146566226    0.14438841173503905    0.19639419762255295    0.2583938064756393    
  0.3097770785769971    0.32954482078659814    0.3738713973905127    0.3572814018886192    0.3066485198271464    
  0.23605056858444745    0.1724812247069111    0.13135037322042392    0.11371642809017554    0.11560516569243744    
  0.13266610822067254    0.15804818232569    0.18111809600624287    0.1906239914639445    0.18111810364244885    
  0.15804818630917394    0.13266610357886194    0.11560518637489882    0.11371641070480998    0.13135039129460235    
  0.17248123040064015    0.23605058670104098    0.3066484803447412    0.3572814396117203    0.3738713973905127    
  0.38620064829912887    0.37815739170154444    0.33985244927006225    0.26918277505499655    0.19739324340558984    
  0.14904685121102987    0.12820238859425423    0.13042058810458773    0.15067398597154283    0.18111809112621022    
  0.20887477177864436    0.22029580901311932    0.2088748019166623    0.18111807245673842    0.15067402661493445    
  0.13042060287801552    0.128202392869138    0.1490468654016268    0.1973932476395025    0.2691827422695346    
  0.3398524256176278    0.3781573715812355    0.38620064829912887    0.3834114424423969    0.3801800644020988    
  0.35016297821055425    0.2819614065036912    0.20749236571624086    0.15614350120363454    0.13395902766078777    
  0.1364009287449797    0.1580583207814253    0.19062403002053283    0.22029581254318406    0.2324932875230519    
  0.22029579556693973    0.19062399826296722    0.1580583096040649    0.13640096126730078    0.13395898479793425    
  0.1561435217926648    0.20749234473999428    0.28196143445058036    0.35016295916538603    0.38018013209148327    
  0.3834114424423969    0.3862006633075457    0.37815738906546853    0.3398524141152482    0.2691827929118361    
  0.19739323371293152    0.14904685049297742    0.128202388418332    0.13042061897426824    0.150673984398398    
  0.1811180881078898    0.20887479028284997    0.22029580213559166    0.2088747984158213    0.18111806287289184    
  0.15067401527707602    0.13042060397579616    0.12820240909926486    0.1490468424958169    0.19739325084064413    
  0.2691827823685307    0.3398524278232955    0.3781573807574171    0.3862006633075457    0.3738713466775556    
  0.3572814059253651    0.3066485157692427    0.23605058953914215    0.17248121849347986    0.13135037795838986    
  0.11371644213142183    0.11560515701201415    0.13266610390778744    0.15804821048028858    0.18111806933846247    
  0.19062399959601134    0.18111810575939755    0.1580481719311275    0.13266610718529107    0.11560516869808432    
  0.11371642590586961    0.13135037360520818    0.17248122863632315    0.23605055010535822    0.30664846114428856    
  0.3572814753169372    0.3738713466775556    0.32954481610344405    0.30977713940137996    0.258393750780318    
  0.1963942619504489    0.14438839870980025    0.11147311774280062    0.09746713334799915    0.09909389293655037    
  0.1127001165055723    0.1326661062437151    0.15067398060815643    0.15805828178825926    0.1506739843540119    
  0.1326660848978171    0.11270015309574834    0.09909386946477958    0.0974671049305233    0.11147310912359178    
  0.14438841058556032    0.19639423299738776    0.2583937709485041    0.3097770759989161    0.32954481610344405    
  0.2825121184457148    0.26435112599342087    0.2191692849982646    0.16696108776608526    0.12415927167882239    
  0.0973936140253922    0.08621814167405932    0.08781689758859398    0.09909388180537522    0.11560519469856559    
  0.1304206414045068    0.13640093948719578    0.1304206387453924    0.11560517617018835    0.09909389237346188    
  0.08781689922257332    0.08621814037998836    0.09739360289981712    0.1241592725344179    0.1669611084448642    
  0.21916926806380438    0.2643512114322993    0.2825121184457148    0.2677854526262449    0.2506202213520407    
  0.20805521803739993    0.15905854070604328    0.11902695227852451    0.09415520939490903    0.08410994017473    
  0.08621814194508011    0.09746709242360811    0.11371642207330496    0.1282023717830228    0.13395899467907937    
  0.12820239096744881    0.11371640338627904    0.09746711714563985    0.08621813417506571    0.08410993486310778    
  0.09415519382773806    0.11902695262875464    0.1590585334213885    0.2080552351224844    0.2506202225613026    
  0.2677854526262449    0.3011895883696384    0.28207837839280303    0.2341812124213433    0.1786004953596535    
  0.13323591863807652    0.10518166785838985    0.09415521780427548    0.09739361817599111    0.11147310032427538    
  0.131350409455158    0.14904684984218386    0.15614351557030345    0.14904687543427397    0.13135039282509103    
  0.11147312178098306    0.09739364545410718    0.0941551965944938    0.10518165391150329    0.13323590172220084    
  0.17860049311151097    0.23418122184910417    0.28207837451650136    0.3011895883696384    0.37501160288281143    
  0.3547268244801542    0.29953433173562183    0.22968578009652132    0.17017729629096284    0.13323591607129734    
  0.1190269777058481    0.12415926898519446    0.1443883781252395    0.17248122301642682    0.1973932619387389    
  0.20749232306662657    0.1973932594752105    0.17248122319652737    0.14438841239644767    0.1241592704197904    
  0.11902696050657045    0.13323588953666984    0.17017730493248895    0.2296857796409924    0.29953429128195874    
  0.3547268367038683    0.37501160288281143    0.40163396166259474    0.4004455354769108    0.3739670830689426    
  0.30584284988442034    0.22968578401723144    0.17860047094564913    0.15905853072436751    0.16696111477492834    
  0.1963941863276217    0.23605060968239563    0.26918270973524594    0.28196144774848136    0.26918273348057015    
  0.23605058307894813    0.19639425493222623    0.16696112009296832    0.15905851819023908    0.17860047659054876    
  0.22968577038571586    0.3058428353756462    0.3739670744318556    0.40044554380632175    0.40163396166259474    
  0.2619323118087619    0.3038191939346436    0.3774378835853619    0.3739670959826602    0.29953428980393    
  0.23418120684602783    0.2080552368782352    0.21916922193960897    0.2583937596051121    0.3066484508805451    
  0.339852417460404    0.3501629287960538    0.33985243912312035    0.3066484256235284    0.2583937932158539    
  0.2191692254185048    0.2080552549381702    0.23418117317020598    0.2995342676403764    0.3739670053213254    
  0.37743790558068807    0.3038192256230741    0.2619323118087619    0.10312898336502054    0.15555657570812345    
  0.30381928498259503    0.4004455902123402    0.3547268597411483    0.2820783536132566    0.25062022678386475    
  0.2643511733137915    0.30977712738049984    0.3572814553764563    0.37815740034470713    0.3801801585824991    
  0.3781574279681406    0.3572814654389328    0.3097771523240023    0.26435121588292176    0.2506202011082833    
  0.28207839550028346    0.35472682976550585    0.4004455490877309    0.3038192732921659    0.15555655896326015    
  0.10312898336502054    0.05751667245151421    0.103128958035335    0.26193230415043894    0.4016339453574793    
  0.37501158680522617    0.30118954906041046    0.2677854661937288    0.28251204311519845    0.32954481839805805    
  0.3738714145836623    0.386200637471676    0.38341141821566166    0.3862006437336968    0.37387138583965557    
  0.32954483367059506    0.2825120957287375    0.26778544028329193    0.3011895506451073    0.3750116001109294    
  0.4016339701072998    0.2619323195055427    0.10312897708645978    0.05751667245151421    0.1032996298022026    
  0.1546844470795008    0.29775640942400816    0.38560005513465445    0.3324226122938498    0.2532687128225706    
  0.21300360011829916    0.21311349208092104    0.24368679179787348    0.2889457830821464    0.3266326363943879    
  0.34072729801041235    0.32663265052687707    0.2889457581865043    0.24368678793707338    0.21311351565477085    
  0.2130035490163107    0.2532687126718499    0.3324226095751071    0.3856000458113786    0.29775636722829635    
  0.1546844723617212    0.1032996298022026    0.15667077185626407    0.2088893248839368    0.3314826148843729    
  0.3812326831338845    0.31513571339403895    0.23835903973017494    0.20055223611144504    0.2005755207078828    
  0.22919056455898015    0.2720899372789597    0.3083631385899714    0.32213416596757355    0.3083631029232604    
  0.27208993409364446    0.2291906038862135    0.2005755308780204    0.20055224425851578    0.23835897123336292    
  0.3151357484895974    0.38123267367688324    0.33148263383786786    0.20888932228991666    0.15667077185626407    
  0.3098199544280794    0.3410211249726026    0.3833873760414644    0.3522262629717358    0.2690014606542526    
  0.20114023584107715    0.16963974111247065    0.16949138818848722    0.19296184643993344    0.22879253806824998    
  0.26014789963631874    0.2724892248212853    0.26014788579326864    0.2287924949643383    0.19296185863772972    
  0.16949141964647219    0.16963975039670465    0.2011402624288192    0.26900145515688145    0.352226250203544    
  0.38338731888895644    0.3410212028802814    0.3098199544280794    0.4168955841268622    0.4083152811200729    
  0.36741716572337146    0.29049759759587945    0.21151088778920227    0.15815925188510466    0.1341241666683724    
  0.13377123812564246    0.1510148908111558    0.17750060915937485    0.2014284619344193    0.2111895905864713    
  0.20142849009965727    0.17750056758396984    0.15101491845370388    0.13377121130800082    0.13412415202106603    
  0.15815924296376416    0.21151088396203244    0.2904975260851555    0.3674172095902207    0.4083152854225386    
  0.4168955841268622    0.383761836112007    0.3608395070503545    0.30029380149393564    0.22601657022333954    
  0.16341132679212553    0.12354609834573996    0.10552407564951283    0.10492836230941331    0.11701692378342722    
  0.1357342706059947    0.1529240424645346    0.16001772035834166    0.1529240577992466    0.13573425391774918    
  0.11701695304203648    0.10492838717558449    0.10552405691175429    0.12354610518603097    0.16341133122605528    
  0.22601658740296962    0.3002937585569183    0.3608395501261787    0.383761836112007    0.324426246397613    
  0.3028118517849795    0.24883685941401473    0.18656723130611    0.13582017725645537    0.10368213254854519    
  0.08901896745188077    0.08818525123499893    0.09719410651835737    0.11143484524703155    0.12456524376314448    
  0.12991926134445747    0.12456526422715526    0.11143482598235857    0.0971941344147667    0.08818524282044636    
  0.08901897597966642    0.1036821036999231    0.13582019770979795    0.1865672045383094    0.24883690093111116    
  0.3028118638488599    0.324426246397613    0.3112364227901174    0.2903573452098429    0.23852750360318842    
  0.17896528074248041    0.13040433601412746    0.09959639253799242    0.08542536272336772    0.08428535850183921    
  0.09237411304197948    0.10543069437282067    0.11750767097947132    0.12241089945503118    0.11750769891984585    
  0.10543065576730944    0.09237412569996221    0.08428537909524408    0.08542534512036229    0.09959639192712604    
  0.13040431087772292    0.17896526501889534    0.23852749349003927    0.2903573414826529    0.3112364227901174    
  0.34889072052532527    0.3263463781361272    0.2691396574280448    0.2017330780265177    0.1458845323199003    
  0.11025363974272544    0.09374527221697432    0.09222575285232892    0.10147526989955685    0.11640757119806992    
  0.13019904522380304    0.13586241571670338    0.13019904329946308    0.1164075812106125    0.10147530894656179    
  0.09222576602728207    0.09374525660130976    0.11025362686752255    0.14588451000800015    0.20173307942546495    
  0.26913960206821624    0.32634642944640224    0.34889072052532527    0.3999925081592816    0.3813944886181589    
  0.3258476127322161    0.24886724975460595    0.1791278655040861    0.13330435050085065    0.11201615520265601    
  0.11008726559975572    0.12229118546223235    0.14196892905301195    0.16005017953132902    0.1675035242242408    
  0.16005018916117927    0.14196891296848754    0.12229119864580772    0.1100872881870773    0.11201614451971867    
  0.13330436576435406    0.17912785503069537    0.24886725005525076    0.3258476299739762    0.38139448228679157    
  0.3999925081592816    0.3852675904792301    0.3885944146039386    0.3694830747373878    0.30242180547572023    
  0.2211993489225541    0.16318076245590865    0.13586933318018643    0.1334101850085861    0.14942699275053742    
  0.17562689841601534    0.19972334781618173    0.20959770193514077    0.19972334890164817    0.17562686496519916    
  0.14942702846525716    0.1334101991370367    0.13586931518244302    0.1631807537298702    0.22119934211371914    
  0.30242175192115767    0.3694831255647843    0.3885944408868549    0.3852675904792301    0.3028223258353039    
  0.33254679156908706    0.3714768897413197    0.33884767357315304    0.2566780653388524    0.1892798494952823    
  0.15672235525120626    0.15385521804188637    0.17326611629348115    0.2053087359042935    0.23483318559919825    
  0.24687853378477834    0.23483321523917366    0.2053087315394487    0.1732661262908946    0.15385525010224987    
  0.1567223288147588    0.1892798980222552    0.2566780646962496    0.33884768448710323    0.3714768641763809    
  0.3325468033023902    0.3028223258353039    0.2590306896507727    0.2978915281232545    0.36258289948514094    
  0.3502835003796285    0.27058474839893715    0.19973423008229285    0.1650244826315221    0.16207029250589805    
  0.18294211311062633    0.21736969901562148    0.24909927688404745    0.2620406886625745    0.2490992209092368    
  0.21736969531575628    0.18294211471109073    0.16207031783248704    0.16502446292741674    0.19973419240943832    
  0.27058478097328525    0.35028350755432885    0.36258289113147585    0.2978915774267514    0.2590306896507727    
  0.30282235664249735    0.3325467863912256    0.37147687570726595    0.33884768318574643    0.2566780670900363    
  0.1892798526230341    0.15672232987572968    0.15385523825265907    0.17326613277783293    0.20530875430406076    
  0.23483320937666494    0.24687854395804548    0.2348332334334255    0.20530873174698958    0.17326611097102468    
  0.15385522405478796    0.15672237554043697    0.18927985321797663    0.25667806993566716    0.33884769809599213    
  0.3714768732832537    0.33254675839468806    0.30282235664249735    0.38526755852518574    0.38859440554364383    
  0.3694831311409866    0.3024218126221591    0.22119934401915695    0.16318076205030935    0.13586931072988015    
  0.13341019258915635    0.14942697643467118    0.1756269188507628    0.19972333423349178    0.20959770486779358    
  0.19972337159736925    0.17562689339896922    0.14942701410747267    0.13341020427181605    0.13586932788833053    
  0.163180740372982    0.2211993763772857    0.30242176645674956    0.3694830527978224    0.38859448316989065    
  0.38526755852518574    0.3999925278990155    0.38139445777584785    0.32584760440963795    0.24886725784376296    
  0.17912788095532806    0.13330434178039327    0.11201618594613368    0.11008727514834052    0.12229117715949776    
  0.14196892640091108    0.16005018305789812    0.16750350897467725    0.1600501850979885    0.14196890569166493    
  0.12229118820589102    0.11008726818853823    0.11201616755732861    0.13330433926595803    0.179127852988965    
  0.24886723849157566    0.3258476161901067    0.38139445684178347    0.3999925278990155    0.34889072411279354    
  0.32634635525767813    0.26913964860871387    0.2017330847987978    0.14588449345154458    0.11025365548068987    
  0.09374525627428898    0.09222575082004436    0.10147528342269191    0.11640760237267987    0.13019905172590548    
  0.13586242522483474    0.1301990486817974    0.11640755850618356    0.10147531717820006    0.09222577881070582    
  0.09374524496113469    0.11025364958882035    0.14588452747404354    0.2017330781797319    0.2691396338031174    
  0.3263464328454103    0.34889072411279354    0.31123642322381395    0.29035733868849256    0.23852747518010115    
  0.17896526863988638    0.13040434351706762    0.09959638333985703    0.08542536028438323    0.08428536005187559    
  0.09237411517269875    0.10543068899976175    0.11750767548374715    0.12241089020694745    0.11750768570636251    
  0.1054306617138367    0.09237413192085867    0.08428535595703901    0.08542535183519853    0.09959638260694911    
  0.13040431062297023    0.17896525956010562    0.23852750958007554    0.29035732572325457    0.31123642322381395    
  0.3244262512823293    0.3028118309053422    0.24883686700163038    0.18656723488917445    0.13582016944760467    
  0.10368213911268528    0.08901897494130931    0.08818524869371193    0.097194105696254    0.11143486766434972    
  0.12456523400748723    0.12991925074576954    0.12456525175402684    0.1114348495681818    0.0971941400118419    
  0.08818525115736973    0.08901896440267962    0.10368211481633845    0.13582017974268668    0.18656722182532917    
  0.24883689172081536    0.3028118526482266    0.3244262512823293    0.3837618780846405    0.3608394789014621    
  0.3002938271965762    0.22601655277137542    0.1634113311707011    0.12354610226828674    0.10552408297866747    
  0.10492835829553165    0.11701694867890272    0.13573425939627173    0.15292405392218777    0.16001774072386113    
  0.15292405620920704    0.13573426026109328    0.11701695622950027    0.10492837691423669    0.10552405799980152    
  0.12354610562893381    0.16341132048470158    0.2260165706461423    0.300293793353096    0.36083952924704193    
  0.3837618780846405    0.4168955261408863    0.40831529634662317    0.3674171558392898    0.2904975280590729    
  0.21151091865252025    0.15815926622619614    0.13412413981885118    0.13377124671130436    0.15101486014835613    
  0.17750064977239366    0.20142845339036214    0.21118960681410986    0.20142847482614487    0.17750059044742497    
  0.15101494410105867    0.13377122322115367    0.13412414129577177    0.1581592425509137    0.21151089657235786    
  0.29049749990807217    0.3674171840298575    0.4083152951446924    0.4168955261408863    0.30981994480495395    
  0.34102111269039864    0.3833873751713059    0.35222629249011    0.269001418859296    0.20114028055554414    
  0.16963974896036058    0.16949138018692594    0.19296186775381316    0.22879250079792512    0.2601478851553704    
  0.27248922158225525    0.2601479297225954    0.2287924933564467    0.1929618753128447    0.1694914222296017    
  0.16963973062272958    0.20114026502742235    0.2690014284937951    0.35222624540988634    0.38338736434892096    
  0.3410211734419854    0.30981994480495395    0.15667073495861697    0.20888931950498102    0.33148262301503445    
  0.381232642505923    0.31513570546085795    0.2383590111968033    0.20055222653927077    0.20057552344607993    
  0.22919058425098457    0.2720899397767499    0.3083630987024683    0.32213418328504007    0.3083631313210665    
  0.27208993502436807    0.22919060635383087    0.20057552075610258    0.20055225682497746    0.23835903589515892    
  0.31513571776308075    0.38123260915381896    0.3314826246173218    0.2088893230403418    0.15667073495861697    
  0.1032996298022026    0.1546844470795008    0.29775640942400816    0.38560005513465445    0.3324226122938498    
  0.2532687128225706    0.21300360011829916    0.21311349208092104    0.24368679179787348    0.2889457830821464    
  0.3266326363943879    0.34072729801041235    0.32663265052687707    0.2889457581865043    0.24368678793707338    
  0.21311351565477085    0.2130035490163107    0.2532687126718499    0.3324226095751071    0.3856000458113786    
  0.29775636722829635    0.1546844723617212    0.1032996298022026    0.2590306931034707    0.2978915163599063    
  0.36258287201461    0.3502835148011947    0.2705847107126681    0.19973422834209614    0.16502448225958402    
  0.1620702939641778    0.18294211744117975    0.21736971007485836    0.24909924618277926    0.2620407003982727    
  0.24909924591974614    0.21736968224762307    0.18294212969455004    0.16207030382394214    0.16502446041340196    
  0.19973420235031925    0.2705847215311426    0.3502835130424845    0.3625828877698466    0.29789156310171505    
  0.2590306931034707    0.30282234997254054    0.33254681618839776    0.3714768712459916    0.3388477288334937    
  0.25667804405162    0.18927985533932928    0.15672232953950357    0.15385523753548827    0.17326611508257428    
  0.2053087669434914    0.2348331986929029    0.2468785379299266    0.23483320488648224    0.205308730996831    
  0.1732661363603557    0.15385525318630502    0.15672233073559536    0.18927986206123854    0.2566780801738106    
  0.33884772652024703    0.3714768426327004    0.33254679328268166    0.30282234997254054    0.38526761695785366    
  0.3885943629689713    0.3694831034671092    0.302421775815365    0.2211993655898062    0.1631807396905277    
  0.13586931766696106    0.13341018207423094    0.14942698766799714    0.175626905058269    0.1997233371144369    
  0.2095976926123926    0.19972337987120492    0.1756268793388511    0.14942702605852376    0.13341018435665214    
  0.13586934347660024    0.1631807193982373    0.22119937224168965    0.30242174979515896    0.36948305848138513    
  0.38859444891872824    0.38526761695785366    0.39999252436602134    0.38139446466680327    0.32584758500790195    
  0.24886729071434793    0.17912784912847296    0.13330436594706732    0.11201616121043803    0.1100872702052876    
  0.12229117889314049    0.14196891923009325    0.16005017702325128    0.16750352380490033    0.1600501769300972    
  0.14196889659353282    0.12229117641410742    0.1100872811366152    0.11201614717594623    0.13330436758338438    
  0.17912783160173143    0.2488672664668495    0.32584758708880124    0.38139447508411317    0.39999252436602134    
  0.34889071704469643    0.3263463745649459    0.26913963170130467    0.20173306929910081    0.1458844978701778    
  0.11025364937167904    0.09374525671994516    0.09222576315639264    0.10147528615823397    0.116407587791884    
  0.13019902310591414    0.1358624050087381    0.1301990633043551    0.11640757878712357    0.10147530226965323    
  0.09222576054072502    0.09374526562181408    0.11025362014491419    0.14588452261165205    0.20173308257880707    
  0.2691396128488972    0.3263464057095663    0.34889071704469643    0.31123636927932985    0.2903573443386401    
  0.23852748090853354    0.1789652833536437    0.13040431431298713    0.09959639597367878    0.08542535870997388    
  0.08428536909309015    0.09237411638339402    0.10543068987006902    0.1175076726481722    0.12241089335958    
  0.11750768441883551    0.10543066532412085    0.09237412949648352    0.08428537178128047    0.08542535780227706    
  0.09959637897071855    0.130404310455158    0.17896529570752404    0.2385275173000012    0.2903573694578197    
  0.31123636927932985    0.3244262572096876    0.30281184304575204    0.24883688475641325    0.18656723364629849    
  0.13582020490345637    0.10368212259126763    0.08901897747511357    0.0881852357252593    0.09719410231453597    
  0.11143487021279119    0.12456522285843916    0.12991927180000074    0.12456527835673806    0.11143482293602758    
  0.09719414290264845    0.08818525224603846    0.08901896413303292    0.10368211855634711    0.13582019068590004    
  0.1865672117840489    0.24883687168470664    0.3028118175541644    0.3244262572096876    0.383761853602654    
  0.36083948786404124    0.30029381556885604    0.22601655596442305    0.16341133559465387    0.12354610617530407    
  0.10552409216384531    0.10492836026278898    0.11701693503333462    0.13573425907528247    0.15292404026441578    
  0.1600177190278877    0.15292403538385266    0.13573425328667138    0.11701695670710438    0.10492838745393328    
  0.10552404368753841    0.12354611948950482    0.1634113116550245    0.22601656999543168    0.30029378402223506    
  0.3608395267665928    0.383761853602654    0.41689556148990553    0.4083152914967282    0.3674171944806548    
  0.29049755592284593    0.211510884111115    0.15815926557965598    0.13412415801581298    0.13377123519445963    
  0.15101488429062263    0.17750061925772206    0.20142847534777777    0.21118960625342445    0.2014284849789246    
  0.17750058227490972    0.1510149086189748    0.13377122404945743    0.1341241510911286    0.15815924901707093    