#     DFTpy    
  CRYSTAL 
    
  PRIMVEC    
  8.889892830139516    7.090753848648276e-07    1.1706213071724137e-06    
  7.09075553333793e-07    8.889895878679264    1.1834242919303447e-06    
  1.1706214568924138e-06    1.1834243191027586e-06    8.889895262487473    
  PRIMCOORD    
  16    1    
  Si    1.3117949491561807    7.578099516197235    3.1331531258516985    
  Si    7.578098504641953    1.3117977715337144    5.756740861994292    
  Si    1.3117962855103613    1.3117966137916108    1.311797075459136    
  Si    3.1331577275958815    3.133159028730273    3.1331587013817224    
  Si    7.578096348928878    3.1331533444817916    1.3117956049049246    
  Si    1.311794655996038    5.756745857370767    7.578099446866517    
  Si    3.133152171353235    1.311798040481929    7.578100162236416    
  Si    5.756740538532002    7.578101571454782    1.3117957117155574    
  Si    5.756740089375248    3.1331595519122417    7.578104302813623    
  Si    3.133154489409579    5.7567380486775    1.3117913983663312    
  Si    5.756737140993072    5.756742470770938    5.756740740234684    
  Si    7.578098756433918    7.578102944829671    7.5781012856718375    
  Si    3.133158076094271    7.578106968803003    5.7567410542766595    
  Si    5.756735825324575    1.311790911348716    3.1331556842310673    
  Si    7.578101934654711    5.756741657887763    3.133158912110416    
  Si    1.311791294799003    3.133156761053788    5.75673797425443    
  BEGIN_BLOCK_DATAGRID_3D    
  3d_datagrid_density    
  BEGIN_DATAGRID_3D#0    
  41    41    41    
  0.0    0.0    0.0    
  8.889892830139516    7.090753848648276e-07    1.1706213071724137e-06    
  7.09075553333793e-07    8.889895878679264    1.1834242919303447e-06    
  1.1706214568924138e-06    1.1834243191027586e-06    8.889895262487473    
  0.016063277044274907    0.01660300446530122    0.018131485865661615    0.0203434554697678    0.022727347607099515    
  0.024679538101890098    0.02571890515217786    0.02576182471901261    0.025193741459818206    0.02455818050413274    
  0.024291268601776595    0.02455821446318975    0.025193775513760085    0.025761882135182514    0.025718978381227046    
  0.024679630747399987    0.02272741113939027    0.020343515297059807    0.018131559654415333    0.01660305092583569    
  0.016063346128089816    0.01660310561454033    0.01813163339318126    0.020343628976982067    0.022727553896272783    
  0.024679781387460395    0.025719121993756682    0.025762009686846173    0.025193884210545827    0.024558292338364946    
  0.024291339137594004    0.024558282798728095    0.02519382213065484    0.02576191171475015    0.025719009676726683    
  0.024679654666617916    0.0227274319520801    0.02034352711010897    0.018131535390212356    0.016603007710716596    
  0.016063277044274907    0.016602990270252357    0.018939137511082338    0.022546086778003325    0.027047112792186807    
  0.03162860837753869    0.03522338131367257    0.03700898300878994    0.03692034597747512    0.03569686529760381    
  0.034372490162179255    0.03381784343452449    0.03437253019858109    0.03569690386858818    0.03692043798737592    
  0.037009086280191984    0.035223491315058496    0.031628698225165765    0.027047229391651235    0.02254617590948334    
  0.0189391911491423    0.016603054416344694    0.015521463761642372    0.01548221236889003    0.01617987142177323    
  0.017219357368922304    0.018187780419264502    0.0187760530798874    0.018884034685151235    0.01867036750010835    
  0.01840232846963424    0.01828599623197013    0.018402336377262244    0.01867034218019565    0.018883973374462872    
  0.018775986067363314    0.01818772170637531    0.017219282048021894    0.016179799497953645    0.015482142515977244    
  0.015521388170049765    0.016602990270252357    0.018131497437110972    0.022541434635477774    0.02887310287587345    
  0.036661433261846656    0.044565048564245806    0.05070955967710916    0.05365376231117021    0.05332410285550827    
  0.05099982812263528    0.048560008733763704    0.04754804706113423    0.04856006428812408    0.05099991702779425    
  0.05332425265954825    0.053653911648461484    0.05070974295623243    0.04456520446074751    0.03666156956005517    
  0.02887322554884062    0.02254150037255357    0.01813155261012089    0.015488646322544389    0.014211164301798548    
  0.013884940620631845    0.014104927652404578    0.014506761884707918    0.014837642733480432    0.014979133701817823    
  0.014948273136307163    0.01486066964327307    0.014819845946061868    0.014860683500977977    0.014948246375926715    
  0.014979093276887522    0.01483759219019874    0.01450672060645408    0.014104890127955124    0.013884892187343517    
  0.014211109603936754    0.015488582988172975    0.018131497437110972    0.0203434545427067    0.0270440687771569    
  0.03666975398716291    0.04862195307392634    0.06088162511108677    0.07044419675818173    0.0749959861705377    
  0.07433019776453013    0.07048595572724523    0.0665542398263999    0.06496329058453044    0.06655435001937757    
  0.07048608024986426    0.07433042486351558    0.07499620256765026    0.07044442928601853    0.06088186920264678    
  0.04862215571371448    0.03666991216227757    0.027044144559681616    0.020343524491575945    0.01619961433684177    
  0.01391967881565992    0.012883702370353847    0.012607566526532492    0.012700847002908371    0.012899001767137503    
  0.013053701111110653    0.013112329508824745    0.013116128011321502    0.013112223577388744    0.013116134540275343    
  0.013112312832965364    0.013053680642655505    0.012898972573955338    0.012700815387259404    0.012607538985587485    
  0.012883669292172018    0.013919630871106332    0.01619954898381811    0.0203434545427067    0.02272735726389466    
  0.03158893523363278    0.04452128075964286    0.060839609308494885    0.07776588253264323    0.09107365394171062    
  0.09742199322305495    0.09643331291397748    0.09098101354817775    0.08548402622181012    0.08328251898670892    
  0.08548414337479215    0.09098117826087325    0.09643357461607861    0.09742227118286333    0.09107400533965943    
  0.07776617492935721    0.060839850095394755    0.04452146544175087    0.03158902176718493    0.02272742758746925    
  0.017301971044177997    0.014276934119931311    0.012795214816718505    0.012256845854471779    0.01221704018320605    
  0.01236575136885944    0.012532692008629866    0.012635243808774907    0.012682570085497329    0.012697983174161424    
  0.012682596359361817    0.012635244190325072    0.012532671919455734    0.012365743388089085    0.012217021454947411    
  0.012256828323117218    0.012795186619368798    0.014276909264846304    0.017301908062216136    0.02272735726389466    
  0.024679562460806513    0.034992673188274884    0.05028098117072622    0.06985642354334232    0.09041408478886429    
  0.10670994602497617    0.1145440971811202    0.11340159189065914    0.10682269543973737    0.1001544744540133    
  0.09747230282819795    0.10015462006494953    0.10682293561173191    0.11340190672895029    0.11454450438719954    
  0.10671040813775497    0.09041443877988938    0.06985673979009462    0.050281194023442076    0.03499278928371462    
  0.024679641220615427    0.018463434840649717    0.015059936909770276    0.013426417897053063    0.012854569367478471    
  0.01283363589241463    0.013018406706394444    0.013213869997529925    0.013327715333712993    0.013372502250212762    
  0.01338557932054725    0.013372518025862078    0.013327732345485815    0.013213869752782123    0.013018411219244973    
  0.012833640056499656    0.012854566823054955    0.01342641487189833    0.015059913812168847    0.018463359678730383    
  0.024679562460806513    0.025718922595782567    0.0362527033513318    0.05207833674164769    0.07257214037963337    
  0.09427443830872188    0.11165092602717928    0.12013407531504365    0.11910874441319214    0.11232256229164844    
  0.10535227456694486    0.10251012797812857    0.10535240798345587    0.11232280310307997    0.1191090963371663    
  0.12013448997555894    0.11165136044668278    0.09427479678995063    0.07257242588702832    0.05207856618238719    
  0.0362528243635121    0.025719011041444806    0.019494596212719168    0.01622141267880162    0.014802672205782434    
  0.014472756307319664    0.014664586685395779    0.014985818785211498    0.015226440929746742    0.015314614733034958    
  0.015313479518058375    0.015306204212067832    0.015313495115880022    0.015314633859761884    0.01522644848398022    
  0.014985854067780502    0.014664613547171058    0.014472777928813345    0.01480266059434149    0.01622139633168139    
  0.019494535585204184    0.025718922595782567    0.025761826392782027    0.03513198508671436    0.049431732603116355    
  0.06808000950231347    0.08794792502612148    0.10402934235961996    0.11208250309977935    0.11138432397862658    
  0.10535536084752244    0.09907998180241796    0.09651169654402966    0.0990801235584108    0.10535557507334058    
  0.11138462618498478    0.11208284384186669    0.10402971811595568    0.08794825672411981    0.06808027201295762    
  0.049431942537841736    0.035132091364563967    0.02576189931244299    0.02042826095477436    0.017901161589190834    
  0.017165777079148924    0.017459971460719387    0.018151303753279804    0.018759914243034335    0.019058040718888225    
  0.019049640417318117    0.018929018786302203    0.018870350206434437    0.01892907246713556    0.01904968261683078    
  0.019058096404410082    0.01875998396390837    0.018151370805134088    0.017459994993395206    0.017165780364299887    
  0.017901137211804787    0.02042819793744948    0.025761826392782027    0.02519374270269752    0.03229461499136888    
  0.04345735946307521    0.05817403817894418    0.07398364880343823    0.0869564187672655    0.09367602453079878    
  0.09341608957055902    0.0888111354572641    0.0839267129745125    0.081917570113961    0.08392682577587805    
  0.08881127422784894    0.09341631389778957    0.09367627836935545    0.08695668748164036    0.0739839365243226    
  0.058174276063424867    0.043457540428708565    0.032294714204148964    0.02519381513764513    0.02154161001213832    
  0.020414170425409064    0.020972269372051395    0.022461335650574205    0.02409653809602624    0.025226373310666517    
  0.02559290347364871    0.025354280086109876    0.024954987524681414    0.024781623715429718    0.024955081608107398    
  0.025354337230051795    0.02559300066566336    0.02522645599610944    0.02409663254611908    0.02246136871239378    
  0.020972271826888163    0.020414134823224267    0.02154154236781876    0.02519374270269752    0.024558201110628564    
  0.028810556514423696    0.036198337318273204    0.04626183625475939    0.05727519045435427    0.06646216653580463    
  0.07141637158547522    0.07154811555574751    0.06856077581929888    0.06525705659855638    0.06388508500561026    
  0.06525715825589154    0.06856084646638633    0.07154828561573172    0.07141656833887276    0.06646237284665575    
  0.05727536790016681    0.046262013713796936    0.03619849347602826    0.02881065817593041    0.024558279012780865    
  0.023188235267539072    0.024170920142835485    0.02686239647811543    0.030401495949868764    0.03365084929287036    
  0.035641891341211776    0.03605799035675545    0.035330883991512574    0.034371780809048326    0.03395871008443292    
  0.03437187516250707    0.03533098238850458    0.03605808998989915    0.03564202543065759    0.03365092644028963    
  0.03040153616310093    0.02686237819719266    0.02417088175982476    0.023188146680495736    0.024558201110628564    
  0.024291273920435584    0.025616473369644767    0.02946751051328666    0.03534379566487766    0.04206712785155606    
  0.04783715695039911    0.051111364089410416    0.051474594116367275    0.04984976492969606    0.04792163111672463    
  0.04710776659186796    0.047921700217078554    0.0498498280181778    0.05147467112230755    0.051111493713635    
  0.047837310251469436    0.042067277198399415    0.03534394111190089    0.029467646363476013    0.025616580919458978    
  0.024291372598925883    0.02561662838611796    0.02946769026997185    0.035343974745468694    0.04206728901336726    
  0.047837285243889895    0.05111139988762809    0.05147454218575652    0.04984964832682715    0.047921521411721006    
  0.047107636474948394    0.04792163266726492    0.04984980165217682    0.05147467621124026    0.05111150436160148    
  0.04783731776019828    0.042067281203756454    0.03534390530459841    0.029467586878685118    0.025616501952896793    
  0.024291273920435584    0.02455822207580662    0.023188154084215647    0.024170849800556633    0.026862335306537855    
  0.03040145885945028    0.03365085700315766    0.03564197279184241    0.036058058124834765    0.03533099889090901    
  0.03437192462785055    0.03395881488303795    0.03437195486591157    0.03533103849738344    0.03605814008094565    
  0.03564203691562237    0.0336509273868815    0.030401541733777973    0.026862428537042456    0.02417095695616857    
  0.02318826601485567    0.024558364270874797    0.02881081376551599    0.036198674087657375    0.046262228653428834    
  0.057275592492814366    0.06646250742472519    0.07141661728972261    0.07154824168044638    0.06856073477415296    
  0.06525701699378259    0.06388504121862958    0.06525713157302974    0.06856089610810538    0.07154836682759103    
  0.07141665140781862    0.06646247893543743    0.05727543423470419    0.0462620352497205    0.03619848880977979    
  0.02881062563555687    0.02455822207580662    0.025193801572545117    0.021541580055381853    0.020414134774452513    
  0.02097226913631055    0.02246135034498013    0.024096590324518847    0.02522645012819391    0.025593001917106478    
  0.025354380425802875    0.0249550974001161    0.024781703010720742    0.024955132207188625    0.025354391240145262    
  0.02559303377886786    0.025226476875836904    0.024096636525422717    0.02246140665032657    0.02097234544897244    
  0.020414248854484767    0.021541711262601425    0.025193982593896467    0.03229499854771772    0.043457914978672914    
  0.05817476797665988    0.07398448112369112    0.08695718899568976    0.09367668155088936    0.09341655965827306    
  0.08881136510679456    0.08392684092807493    0.0819176761556023    0.08392693854439415    0.08881139465288229    
  0.09341651998825151    0.09367649311202461    0.08695694260973787    0.07398409654137188    0.05817435465331346    
  0.043457578596907694    0.03229471525972595    0.025193801572545117    0.025761910882228168    0.020428245883635884    
  0.017901163304231544    0.01716579383068827    0.01745998821857146    0.018151345974068204    0.018759979513125857    
  0.019058103583888576    0.01904973138012564    0.018929103821749917    0.018870435065226007    0.0189291208674557    
  0.01904972656833362    0.019058132049844936    0.018760008384260837    0.018151382051069594    0.017460057601247057    
  0.017165867729783228    0.01790125894656191    0.02042840199781287    0.02576215402276291    0.03513251612484953    
  0.04943252788725104    0.06808108851358896    0.0879492241231199    0.10403072395106043    0.11208373843994748    
  0.11138530224703941    0.10535601629682209    0.09908041969619065    0.09651198517718734    0.09908039730711259    
  0.10535587596532171    0.11138501140782947    0.1120832002283045    0.10403008715472216    0.08794852157055183    
  0.0680804270627978    0.04943202568362848    0.035132136328962386    0.025761910882228168    0.02571903218393022    
  0.01949459454263939    0.016221421123268326    0.014802669313931397    0.014472775716285028    0.01466460499686033    
  0.014985856620008535    0.015226474438286532    0.015314672137977658    0.015313528611655065    0.015306257029418104    
  0.015313536555161012    0.015314678665877225    0.015226501674152688    0.01498588313181526    0.014664651519462129    
  0.014472827901722298    0.014802760491928154    0.01622153872412436    0.019494756258241056    0.02571931061930731    
  0.036253367117168894    0.05207935192857648    0.07257352490339072    0.0942762113681061    0.11165282098456518    
  0.12013586877411171    0.11911016908896783    0.1123236572498292    0.1053530271969179    0.10251070900895061    
  0.10535295499413341    0.1123232946718089    0.11910957466822697    0.12013499554395772    0.11165178517259548    
  0.09427515574653332    0.07257264478545201    0.052078705099110806    0.03625288782423591    0.02571903218393022    
  0.024679683703564107    0.018463435054986925    0.015059944952906572    0.013426425282918002    0.012854567002506988    
  0.0128336467681236    0.013018408674572778    0.01321389740647148    0.013327748164395472    0.013372532668065228    
  0.01338562179580883    0.013372551796939386    0.013327759093610565    0.013213918215555818    0.013018451170561805    
  0.012833701753787705    0.012854627197632409    0.013426503342659827    0.0150600722534935    0.018463615605261666    
  0.024679989000343246    0.03499338577102159    0.05028209375832716    0.06985798819679241    0.09041605493872276    
  0.10671213507135785    0.11454618796951706    0.11340333453966674    0.10682401863560806    0.10015547139513398    
  0.09747308581024881    0.10015530855796446    0.10682353203695458    0.11340250723163564    0.11454510385801507    
  0.10671087295854544    0.09041482216746982    0.06985697004375645    0.05028134140583427    0.03499285464993455    
  0.024679683703564107    0.022727453625284093    0.017301964247921527    0.01427693307110746    0.012795206013172184    
  0.012256844475882883    0.012217035396819521    0.012365755276217123    0.012532672383509136    0.012635264463273305    
  0.012682598870501677    0.01269800058955808    0.012682623367010603    0.01263528875411231    0.01253273051339522    
  0.012365803515920568    0.012217093004321581    0.012256914748499362    0.012795300195078567    0.014277072967756719    
  0.017302161357959485    0.02272778202525374    0.031589615096851605    0.04452233909124755    0.06084109793612225    
  0.0777677370676392    0.09107572271929679    0.09742396549550465    0.09643504565955527    0.09098233332301746    
  0.08548506128291596    0.0832833201759724    0.08548485268226176    0.09098180631888583    0.09643418171310977    
  0.09742284364002574    0.0910744738809872    0.07776652575753905    0.0608401080532253    0.044521616347732114    
  0.031589109841207046    0.022727453625284093    0.02034354429262853    0.01619961427722749    0.013919664126104214    
  0.01288368832064884    0.012607542549032933    0.012700812210312287    0.012898967509175161    0.013053678085091175    
  0.013112317225561172    0.013116136549852648    0.013112248933040218    0.013116188255571511    0.01311237908673581    
  0.013053771991342344    0.0128990673456395    0.01270093045711241    0.012607659999475317    0.012883811761330792    
  0.01391981881694032    0.016199802166509673    0.020343835266456792    0.027044648360884847    0.03667065370652386    
  0.04862317191798068    0.06088316771587461    0.07044588859980849    0.07499765617648814    0.07433167463382212    
  0.07048711924600201    0.06655514358602212    0.0649639852218581    0.06655496113310223    0.07048658822857157    
  0.07433090262736561    0.07499664684964925    0.07044482482471018    0.06088213715312814    0.04862233995092257    
  0.0366700263392594    0.02704421067252774    0.02034354429262853    0.0181315604702756    0.015488626864865485    
  0.014211132677206265    0.013884899068539088    0.01410488374952756    0.014506701816688356    0.014837585246894363    
  0.01497906980642917    0.01494825479916954    0.01486067747363806    0.014819873933555569    0.014860748954777727    
  0.014948351701280371    0.014979223202510635    0.014837749895647446    0.014506887421556173    0.014105068603974811    
  0.013885080194153994    0.014211315475901785    0.015488826475382307    0.018131823316470536    0.022541902238473927    
  0.02887378435669804    0.03666232537773718    0.044566151865251515    0.050710795145668786    0.05365497994354999    
  0.05332517975964429    0.051000706765359165    0.048560664936601945    0.04754858562318738    0.048560500671666056    
  0.05100031040797902    0.05332461873274023    0.05365422697723894    0.050710007996267806    0.04456540028060268    
  0.03666171159222296    0.028873300232358377    0.02254154934598475    0.0181315604702756    0.016603047153622295    
  0.015521423701148087    0.015482157327060691    0.016179796934929574    0.01721926581864871    0.01818768450729082    
  0.018775958485383906    0.018883936000583388    0.01867033342277843    0.018402325449760375    0.018286046410605203    
  0.018402443343473296    0.018670499977601136    0.018884199192355365    0.01877624597911279    0.018187993230232506    
  0.017219555973135053    0.016180064533282464    0.015482395108917473    0.01552164099318713    0.01660328438403637    
  0.01893950657340508    0.022546580673960523    0.027047738788820875    0.03162933695938021    0.03522420017339437    
  0.037009783725912744    0.03692107034890224    0.03569744298388813    0.03437294683117923    0.03381820005252444    
  0.034372848185349116    0.035697163743379515    0.03692065547291899    0.03700928517858377    0.03522366115703288    
  0.03162883601095961    0.02704730939668459    0.02254623299944544    0.018939210842021294    0.016603047153622295    
  0.01606332039001962    0.016603043140929256    0.018131541596743933    0.02034350592409331    0.02272739111900246    
  0.02467958938739014    0.025718932565464973    0.025761845232718475    0.025193781364624593    0.024558269194363793    
  0.024291409942981238    0.024558456876434535    0.025194102132333016    0.025762297043561616    0.02571947418392614    
  0.02468012436316031    0.02272787076193068    0.02034390952244153    0.018131876489120628    0.016603298575995618    
  0.016063556624527936    0.016603297765262738    0.018131837723949665    0.0203438522691098    0.022727812725949433    
  0.024680055179709594    0.025719410059158888    0.02576226621533292    0.025194107734913356    0.02455848110874781    
  0.02429149523706783    0.02455841685635133    0.025193927934302533    0.025762016931980457    0.025719096498157967    
  0.024679714593172555    0.022727488368505255    0.020343579385251855    0.01813158510068757    0.0166030516112618    
  0.01606332039001962    0.016603044207017834    0.018939199801999842    0.022546176352270457    0.027047207918760054    
  0.03162867116684308    0.035223443564037143    0.037009020455615674    0.03692036631060724    0.03569692153946476    
  0.03437261317855157    0.033818060504142516    0.03437290271955176    0.03569744825195683    0.03692114229090917    
  0.03700989810236747    0.03522431059877699    0.031629445683120906    0.02704783824368278    0.02254663925349935    
  0.018939527000230466    0.016603305570690334    0.015521658315988075    0.015482386091475933    0.01618004018562421    
  0.01721951890844261    0.01818795861591947    0.018776221671730344    0.018884186682222987    0.018670508441398358    
  0.018402448395128286    0.018286091585040177    0.018402419609650604    0.01867041140721731    0.018884032956547187    
  0.01877603725716108    0.01818776267744083    0.01721932278271501    0.01617984466041592    0.015482190988270028    
  0.015521438626933866    0.016603044207017834    0.018131570582666408    0.02254153978110005    0.0288732339767694    
  0.036661577467242856    0.0445651693668223    0.050709653440092976    0.053653801137612055    0.053324126208754145    
  0.05099988666671837    0.04856013922791593    0.04754835657364947    0.04856061795915831    0.05100072451270124    
  0.053325315420101715    0.053655169589715154    0.05071103728387412    0.04456634929335764    0.036662498645877215    
  0.028873882765259287    0.0225419484766825    0.018131854280496656    0.015488848482172104    0.014211323728589121    
  0.01388506424238389    0.014105047442770304    0.01450687124516809    0.01483774158797076    0.014979223476309563    
  0.014948362234464536    0.014860757933352776    0.01481990811917633    0.014860740626449478    0.014948283405510479    
  0.014979133231618154    0.014837625646234857    0.01450674122141338    0.01410492085097848    0.013884928602026801    
  0.01421115168620912    0.015488639595371377    0.018131570582666408    0.02034356416439574    0.027044209222425182    
  0.03666995727310756    0.048622170068321896    0.060881803660994306    0.07044433106329065    0.0749960455343076    
  0.07433021726005813    0.07048600569830406    0.06655438376547107    0.06496365307762834    0.06655507709105009    
  0.07048716338870091    0.07433189071930149    0.07499796339053695    0.07044624127648817    0.060883481598390805    
  0.048623422266159726    0.03667079408357064    0.027044720250603952    0.0203438839312983    0.01619984140034485    
  0.013919830836257545    0.012883805363357096    0.012607647229305708    0.012700920247135709    0.012899068750230783    
  0.013053762453639442    0.01311238233882574    0.013116178934693577    0.013112262277414832    0.01311615454770091    
  0.013112336586802395    0.013053716492751544    0.012898994574619568    0.012700832501526    0.01260756610069942    
  0.01288370305481373    0.01391968671189685    0.016199620212932468    0.02034356416439574    0.02272748614438776    
  0.031589117797880976    0.044521545287055604    0.06083991310444606    0.0777661268188766    0.09107384790282208    
  0.09742203445637349    0.0964332842870294    0.09098099250889523    0.08548412246328566    0.08328286217379355    
  0.08548494055739461    0.09098243091900497    0.09643535194777789    0.0974244028923337    0.0910762066868729    
  0.07776814565313753    0.06084143107624892    0.04452255129859888    0.03158969832337017    0.02272783069097625    
  0.01730220549265063    0.014277084404387665    0.012795306079269587    0.01225691307449239    0.012217104760138417    
  0.012365811671564935    0.012532729778655913    0.01263528588158698    0.012682618454753504    0.0126980154445827    
  0.012682623479767943    0.01263526006466239    0.01253268928904265    0.012365753338389827    0.012217041984632365    
  0.012256850440467468    0.012795223094662531    0.014276956628787108    0.017301990125411948    0.02272748614438776    
  0.02467971856617576    0.034992890868055855    0.050281298310679456    0.06985677673940861    0.09041438503562536    
  0.10671018161827077    0.11454414197678264    0.11340150374509532    0.10682258734210448    0.10015446585352998    
  0.0974725974464739    0.10015532435871663    0.10682413917579328    0.11340370886997397    0.11454669693562153    
  0.10671272401577395    0.09041654667206864    0.06985837947684792    0.050282342429946135    0.0349935003661466    
  0.024680069556891313    0.018463673149567157    0.015060089291267391    0.013426512967297693    0.012854632499174795    
  0.012833694660205503    0.013018451256320764    0.013213912504863033    0.01332774883438408    0.013372535615931826    
  0.013385608686761575    0.01337255041694843    0.013327744166517615    0.013213879123336537    0.013018411846402693    
  0.01283365087728543    0.012854578568863361    0.013426441754051461    0.015059967964024272    0.018463455182920894    
  0.02467971856617576    0.025719078603085397    0.036252932021791244    0.052078671345469285    0.0725724991421017    
  0.09427479035869582    0.11165114197255838    0.12013409824492866    0.11910857418056843    0.11232236584925599    
  0.10535212908656494    0.102510234459917    0.10535290620572099    0.11232376902731621    0.11911061415367258    
  0.12013643542989119    0.11165340439310448    0.09427670452270098    0.07257394132490935    0.052079623105881316    
  0.03625348782792679    0.02571940182920365    0.019494820087810925    0.016221568126894122    0.014802762896655887    
  0.01447282450082391    0.014664665019329507    0.014985877712173253    0.015226485147768202    0.015314663917553584    
  0.01531352460571016    0.015306246083490373    0.015313519686494973    0.015314648274875057    0.01522645029841433    
  0.014985852920802577    0.014664610205229155    0.014472781547773012    0.014802681014116383    0.0162214420196345    
  0.019494626482301085    0.025719078603085397    0.025761965488264125    0.03513219862739696    0.04943202338615955    
  0.06808035487720088    0.08794825137444731    0.10402953359844537    0.11208248768708637    0.1113841292184601    
  0.10535508284173405    0.09907972783792676    0.09651161025537648    0.09908031374827476    0.10535616059881134    
  0.11138568405336118    0.11208423247646944    0.10403124329669462    0.08794971447604977    0.068081453086332    
  0.049432760375278245    0.03513262360734781    0.02576222413892683    0.02042845371148678    0.01790129577604544    
  0.017165875578357623    0.01746006259222567    0.018151403132244528    0.0187600009812536    0.019058123594882286    
  0.019049720987686966    0.018929083818562984    0.018870404278066747    0.0189290869493982    0.019049676012273385    
  0.019058086309618662    0.018759953169406866    0.018151335448036272    0.017459981003806267    0.01716580241969394    
  0.017901182525893025    0.020428283623248198    0.025761965488264125    0.025193852629626506    0.032294786513462306    
  0.043457615446954895    0.0581743231867568    0.0739839109999932    0.08695655109501658    0.09367598538120589    
  0.09341586904872466    0.08881081676037976    0.08392640750721739    0.08191735522094773    0.08392680306608429    
  0.08881149180602137    0.09341683743187125    0.0936770703270548    0.08695760807879598    0.07398486992511497    
  0.058175048163749195    0.04345809261743935    0.03229508795019857    0.025194051414947155    0.02154176916414575    