#     DFTpy    
  CRYSTAL 
    
  PRIMVEC    
  1.8343799704378168    -3.1772393091849938    0.0    
  1.8343799704378168    3.1772393091849938    0.0    
  0.0    0.0    3.4528961459999996    
  PRIMCOORD    
  1    1    
  Si    0.0    0.0    0.0    
  BEGIN_BLOCK_DATAGRID_3D    
  3d_datagrid_density    
  BEGIN_DATAGRID_3D#0    
  17    17    15    
  0.0    0.0    0.0    
  1.8343799704378168    -3.1772393091849938    0.0    
  1.8343799704378168    3.1772393091849938    0.0    
  0.0    0.0    3.4528961459999996    
  0.09545847379632381    0.16018462246699267    0.3621813560602119    0.4863272944499939    0.36449415004215    
  0.200005615630065    0.10283126812131765    0.060629184177484904    0.04922747050639184    0.06062918548938739    
  0.10283123976076346    0.2000056263812215    0.3644941757077471    0.4863272692485722    0.3621814508423083    
  0.1601846316410118    0.09545847379632381    0.16018461627457833    0.16016606175833686    0.3005471059589242    
  0.4728128631755619    0.43090617891256083    0.2618018279385172    0.13582378061973913    0.07355958542196832    
  0.05016024047312218    0.05015505841556904    0.07356579623407805    0.13581450764313763    0.26181848654298806    
  0.4309012411342541    0.4727438709410437    0.30059685714423173    0.16018461627457833    0.3621813614430141    
  0.3005471606894472    0.3622627645614834    0.4727697109115215    0.45065448727797813    0.29939034948983184    
  0.1628427033644442    0.08613809240004916    0.05242094710072955    0.04318983677456972    0.052421640301892135    
  0.0861368548958135    0.16284504997269061    0.2993653113961672    0.45074650870768196    0.472743826698293    
  0.3621813614430141    0.48632719042965955    0.4728128402324394    0.47276966347476496    0.486279458416416    
  0.4308752392207125    0.29943747455490405    0.17337420852212743    0.09412692068425542    0.05467862309036667    
  0.039339066758419416    0.039332457983195256    0.054686425721205766    0.09411653031356558    0.17340150899931348    
  0.29936534089257616    0.430901163415072    0.48632719042965955    0.36449410773321783    0.4309062014193246    
  0.4506544888365954    0.43087520724789063    0.3645548660931396    0.2618254249871122    0.16280605794918732    
  0.09412631254802502    0.055613856033741506    0.03767227555435771    0.032585358367950124    0.03767164465465002    
  0.05561503464416264    0.09411654279426768    0.1628450550931211    0.2618186154712965    0.36449410773321783    
  0.20000558832077392    0.26180179050102104    0.299390356424122    0.29943746086300516    0.2618253639350607    
  0.19994994498554214    0.13581389635833557    0.08616266507245594    0.05468026323340783    0.0376727014222021    
  0.030540406200372273    0.030541792169982287    0.03767161628433707    0.054686434290341396    0.08613682290765637    
  0.13581447903487162    0.20000558832077392    0.10283127999709865    0.1358237999109232    0.16284268398026502    
  0.17337419471332058    0.16280605705078655    0.1358139017344448    0.10287215143330215    0.07356374245137337    
  0.05240318804492669    0.03933592166658773    0.03258558351458607    0.03054041053154509    0.03258537300275222    
  0.03933246160441779    0.05242163662562481    0.0735657987299808    0.10283127999709865    0.060629148946905916    
  0.07355959503922302    0.086138067766298    0.09412690025069599    0.09412628434450739    0.0861626891324255    
  0.07356373644823941    0.06059868741231088    0.050157193707011806    0.043206356585774916    0.039335910148323494    
  0.03767269738795107    0.037672268358461804    0.039339051486560965    0.04318982222090788    0.05015504594219366    
  0.060629148946905916    0.04922748016123516    0.050160259805387075    0.05242094212945351    0.05467861963547448    
  0.05561384606654493    0.05468029078571948    0.052403196612199054    0.050157190894681125    0.0492548796218229    
  0.050157194432281386    0.052403192407464896    0.054680296464521175    0.05561385988417677    0.054678637314450586    
  0.05242093970155198    0.05016024021331252    0.04922748016123516    0.0606291690499095    0.050155044708019715    
  0.04318983286099054    0.03933905080772644    0.03767226589845231    0.037672716240871186    0.03933592384931601    
  0.04320634765468816    0.050157183831614716    0.06059868951058569    0.07356372560430878    0.08616264691157836    
  0.09412627980931339    0.09412694861063561    0.08613809017819997    0.07355957182438314    0.0606291690499095    
  0.10283125404145703    0.07356582138118181    0.05242164609423398    0.039332456446636146    0.03258536328808193    
  0.030540430529754647    0.032585590626819996    0.03933592083748511    0.052403185727830995    0.07356373191543678    
  0.1028721472009113    0.13581388508364964    0.1628060296665219    0.1733742542297871    0.16284270158119887    
  0.13582378935104075    0.10283125404145703    0.20000556260028457    0.13581450585016944    0.08613683347310613    
  0.054686419181882905    0.037671632781866894    0.03054181328186377    0.030540409316692874    0.03767269750907684    
  0.05468026599375693    0.0861626672971308    0.13581389406427422    0.1999499324533827    0.26182539512562214    
  0.2994375273818133    0.29939041789015897    0.26180180388282287    0.20000556260028457    0.36449408507209274    
  0.261818557121415    0.16284503810820508    0.09411652213874047    0.05561504006506357    0.03767164562187881    
  0.03258536434646115    0.03767226784969548    0.05561386030490929    0.09412629564606868    0.16280604445112573    
  0.26182541384844144    0.36455489791168105    0.430875332262298    0.4506544797878721    0.4309061348777004    
  0.36449408507209274    0.48632721151068525    0.4309012624510575    0.29936533171630786    0.17340150844741536    
  0.09411651019019263    0.054686419288300626    0.039332466035759135    0.03933904967964907    0.054678625978579934    
  0.09412694760475127    0.1733741913503828    0.2994374547609311    0.43087526072000837    0.4862795520137449    
  0.47276968479788034    0.4728126571531876    0.48632721151068525    0.3621813801124829    0.47274384995405777    
  0.45074644427739496    0.2993653244925614    0.16284505499884797    0.08613683873555017    0.052421654707414826    
  0.04318982910883576    0.05242095223951224    0.08613809345229403    0.16284266746397924    0.2993903843210832    
  0.4506544783927255    0.4727696710818346    0.36226275340231534    0.30054708770544125    0.3621813801124829    
  0.16018459606752475    0.3005968523842064    0.47274375167087135    0.4309012696031604    0.26181853499170954    
  0.1358144924966226    0.07356580528713906    0.050155037100758665    0.050160238266588296    0.07355958825342603    
  0.13582376704859664    0.26180184601436196    0.43090620130254387    0.47281267929570836    0.30054710128784523    
  0.16016606376587983    0.16018459606752475    0.09545847379632381    0.16018462246699267    0.3621813560602119    
  0.4863272944499939    0.36449415004215    0.200005615630065    0.10283126812131765    0.060629184177484904    
  0.04922747050639184    0.06062918548938739    0.10283123976076346    0.2000056263812215    0.3644941757077471    
  0.4863272692485722    0.3621814508423083    0.1601846316410118    0.09545847379632381    0.16971734390553517    
  0.2407993067642953    0.417152579418017    0.47745193530471913    0.3385205323599839    0.18495169411084242    
  0.09624631617452878    0.0575221748265319    0.04699827474216461    0.05752217836122833    0.09624628870074267    
  0.1849516907028295    0.338520533220114    0.47745195222887876    0.4171525888514627    0.24079931514448769    
  0.16971734390553517    0.24079932133574888    0.24074418573919287    0.3691487098435031    0.48429934453858625    
  0.40548752007366407    0.2417624687256641    0.12636861912156339    0.06941737364475614    0.047852538661467214    
  0.04784732946826038    0.06942373516972453    0.12635938958951726    0.24177892752953972    0.4054751766611722    
  0.4842599318227706    0.36916891342234803    0.24079932133574888    0.4171526005520729    0.3691487284373459    
  0.41725490868265747    0.4842561858828345    0.4272351175576572    0.2767986290366114    0.15103764111995113    
  0.08095994100878835    0.04993316046703802    0.0413955696022019    0.049933050067357196    0.08096041881765664    
  0.15103585501490605    0.27678796743311135    0.4272905265189008    0.48425995139576794    0.4171526005520729    
  0.4774518807259911    0.4842993659476279    0.4842561998415054    0.4773954938512364    0.4054676008908955    
  0.27683667767701137    0.16067784758905038    0.08828085589925909    0.052022833754259416    0.037817106918010705    
  0.03781317845638361    0.05202769104399584    0.088274701301383    0.16069527568613415    0.27678800655970437    
  0.4054751391764043    0.4774518807259911    0.33852051618350926    0.4054875578009036    0.4272351270315484    
  0.4054675121182857    0.33858164191881146    0.24177463259749907    0.1510107651664611    0.08828019152797362    
  0.05288537389454535    0.03626657699464457    0.03153143978526942    0.036266107901030874    0.052885631958263304    
  0.08827470198107921    0.15103585545847414    0.2417790373152117    0.33852051618350926    0.18495167724833864    
  0.24176244403246439    0.27679863732761295    0.27683667025060293    0.24177455790214936    0.18490364864502845    
  0.12636248767165809    0.0809781589433937    0.05202393444040867    0.03626639759192186    0.02962191701076277    
  0.02962279796877543    0.036266083356274056    0.05202769552979056    0.0809603928067308    0.12635938780475922    
  0.18495167724833864    0.09624631445122624    0.12636865713466738    0.1510376265887424    0.16067782777399728    
  0.15101077951445413    0.1263624827984738    0.09628176879757064    0.0694200749778188    0.0499201092754388    
  0.03781541067608514    0.03153180120625142    0.029621919819909324    0.03153144821013731    0.0378131766358094    
  0.049933051905733855    0.06942373664919872    0.09624631445122624    0.057522167374060545    0.06941739552589181    
  0.08095991260489534    0.08828082910106985    0.08828018105528944    0.08097817342349663    0.06942007233339839    
  0.05749569571462075    0.04785032255009165    0.0414068943370998    0.03781540313724122    0.03626640271394236    
  0.03626656851692428    0.037817091899679564    0.04139555172037526    0.04784732109550849    0.057522167374060545    
  0.046998284258606644    0.047852552941813814    0.04993315203658927    0.05202284262454769    0.05288536515071196    
  0.05202396742512059    0.04992012354787191    0.047850332054913326    0.047021338903234795    0.04785033539020535    
  0.0499201087292796    0.0520239684314285    0.052885380028177    0.052022843040347086    0.04993316365112805    
  0.04785254249594032    0.046998284258606644    0.05752216899762314    0.04784731941912489    0.04139555785819641    
  0.03781709208281356    0.03626657443706074    0.03626641137706925    0.03781541042993795    0.04140688889718854    
  0.04785032136672683    0.05749569520920091    0.06942007373865147    0.080978150053213    0.08828017131847972    
  0.0882808525192362    0.08095993870408794    0.06941737172623627    0.05752216899762314    0.09624630892684194    
  0.06942374634461185    0.04993305383137951    0.037813165114425756    0.031531436317577814    0.029621926589160047    
  0.03153180821429125    0.037815414623619016    0.04992011045154953    0.06942007167647579    0.09628176335904574    
  0.12636249382104908    0.15101075558215915    0.16067785943848092    0.15103764582987045    0.12636865539334496    
  0.09624630892684194    0.18495166894927562    0.12635939823779116    0.08096039199811964    0.052027683957332475    
  0.03626608604133112    0.02962281677777866    0.029621916078259723    0.03626639488722469    0.052023939033627085    
  0.08097815976340579    0.12636247296027475    0.18490363060405926    0.24177459921887673    0.27683674266793046    
  0.27679868624011106    0.24176245315369618    0.18495166894927562    0.3385204302752162    0.24177898348880753    
  0.15103585195405583    0.08827468921232189    0.052885630436181094    0.036266109668417444    0.03153144144689243    
  0.03626656937467752    0.05288537361215945    0.08828019168217295    0.15101072941603183    0.24177457442829683    
  0.3385816215141487    0.4054676194250687    0.42723511071515574    0.40548751504289465    0.3385204302752162    
  0.4774518319271085    0.4054751101476306    0.2767879851795717    0.16069526193899442    0.08827468069174975    
  0.05202768451558715    0.03781318529047169    0.03781709585736691    0.052022838769329255    0.08828086459061958    
  0.16067780017228414    0.2768366480200103    0.4054675736883114    0.4773955266390666    0.4842562303956275    
  0.4842991817318158    0.4774518319271085    0.4171525724916049    0.48425992141817886    0.4272905142369705    
  0.2767879710042148    0.1510358475930167    0.08096042325159282    0.04993306031709893    0.04139556335417337    
  0.04993316644242759    0.08095994693553762    0.15103760657884432    0.276798681250225    0.4272351103093492    
  0.48425615245694836    0.41725497684351925    0.36914870211706174    0.4171525724916049    0.24079926883326014    
  0.36916897379015    0.4842598189235699    0.40547512359651366    0.2417789735293899    0.1263593883367377    
  0.06942372734108238    0.04784731539177782    0.047852536716728636    0.06941737974045702    0.12636863102138154    
  0.24176243768990283    0.4054875363139877    0.4842991802569584    0.36914866857842565    0.24074421004213808    
  0.24079926883326014    0.16971734390553517    0.2407993067642953    0.417152579418017    0.47745193530471913    
  0.3385205323599839    0.18495169411084242    0.09624631617452878    0.0575221748265319    0.04699827474216461    
  0.05752217836122833    0.09624628870074267    0.1849516907028295    0.338520533220114    0.47745195222887876    
  0.4171525888514627    0.24079931514448769    0.16971734390553517    0.3858889215890395    0.42792075608292085    
  0.47941741385896386    0.4138791088856571    0.26742710204624165    0.14700592007861862    0.07959125341413549    
  0.049526033908122    0.041231892180312146    0.04952603849885281    0.07959123269303092    0.1470059506548898    
  0.26742713055472683    0.4138791186317922    0.4794174242513436    0.42792076264146894    0.3858889215890395    
  0.42792076443786314    0.42786856777884175    0.4735004797047836    0.45259728430884727    0.3266552257018133    
  0.19044334469833507    0.10259664218669316    0.058843063014880244    0.04189100190673425    0.041888304646063176    
  0.058845725348188195    0.10259341254922012    0.19044884469920387    0.32664982213019234    0.452587204617914    
  0.47349852014899113    0.42792076443786314    0.4794174996894005    0.473500365686557    0.4794779649771116    
  0.452574661646204    0.3483036095540135    0.2177442391262551    0.12136866881244218    0.06782881356613865    
  0.043524333268913896    0.03673509622723892    0.04352474739540099    0.06782879805167856    0.12136739545424038    
  0.21774338760141537    0.3483167427774446    0.45258720347189463    0.4794174996894005    0.4138791060643485    
  0.45259730179417157    0.4525746596440178    0.41385065224205575    0.3266524167327089    0.21775763348615432    
  0.12871650487991143    0.07350971965905377    0.04519167510932369    0.0338373262668445    0.03383618197161386    
  0.0451927892795966    0.07350838659657084    0.12872115012560295    0.2177433620932969    0.32664979140925016    
  0.4138791060643485    0.267427139321246    0.3266553108448111    0.34830358952844015    0.3266523983394175    
  0.26745365528303555    0.19044350274351113    0.12136008251607018    0.07351013580295505    0.04587972850445296    
  0.03257040199304062    0.0287194508547747    0.03257003208281344    0.04588008853263812    0.07350839169971353    
  0.12136740482018019    0.19044893264814297    0.267427139321246    0.1470059085028867    0.19044336058880482    
  0.21774429489252553    0.21775762421765255    0.1904434897200964    0.1469873509490637    0.10259637841293663    
  0.0678340633791359    0.04519170894303719    0.032570317091307005    0.027143558301579575    0.027144477102099777    
  0.03257001364245606    0.04519280457808073    0.0678287648086411    0.10259338802057548    0.1470059085028867    
  0.07959126230524485    0.10259665141461766    0.12136866414179218    0.12871645878965535    0.12136006877635828    
  0.10259637150333425    0.07960477969103932    0.05884325378702481    0.04352090602551693    0.033836638426002416    
  0.028719968594466176    0.027143559734382042    0.028719461337425607    0.03383617683621961    0.04352473724418173    
  0.058845730508576034    0.07959126230524485    0.04952602941114011    0.05884308527578699    0.06782879489250913    
  0.07350969787694958    0.07351013527099756    0.06783409310794437    0.0588432539884695    0.04951606240565168    
  0.04188997359821315    0.0367384402685124    0.033836645843208245    0.03257031520545589    0.03257040403180485    
  0.03383732549722763    0.036735084871519275    0.0418882879256559    0.04952602941114011    0.0412319002720503    
  0.0418910331463079    0.04352432082379801    0.04519168216192333    0.04587971629474133    0.04519172977564888    
  0.04352090975502113    0.04188997195096723    0.041240673086154235    0.04188997694091192    0.04352090276760995    
  0.04519173207037995    0.04587973368426774    0.045191678969149676    0.043524322013986004    0.041891012907376735    
  0.0412319002720503    0.04952603021796403    0.04188829169282263    0.03673509360392545    0.03383731890004177    
  0.032570398855049504    0.03257032782240904    0.0338366377558243    0.03673842738491825    0.041889965557864915    
  0.04951606432025731    0.05884325733028123    0.06783405377238712    0.07351011634749172    0.07350970602901863    
  0.06782881371567827    0.05884306785739418    0.04952603021796403    0.0795912419501449    0.05884574521234128    
  0.04352474838577071    0.03383617669197042    0.028719448736840614    0.02714356807227915    0.02871996300029803    
  0.033836648064515064    0.043520914235327814    0.05884325895660084    0.07960476141798214    0.10259639265768114    
  0.12136004605477223    0.12871647432157637    0.12136865773536308    0.10259665409942695    0.0795912419501449    
  0.14700590549570472    0.10259340667948219    0.06782877629168106    0.0451927855643167    0.032570019071839845    
  0.027144493342337744    0.027143559636908194    0.03257031567586048    0.045191708009102015    0.06783408518116381    
  0.10259636747398042    0.14698733659758206    0.19044347920781132    0.217757652497806    0.21774429488575991    
  0.19044335189137232    0.14700590549570472    0.2674270689925032    0.19044892069852198    0.12136737325671759    
  0.07350839153819841    0.04588008717090625    0.032570039693685535    0.028719455991063274    0.03257039711306842    
  0.04587972373667516    0.07351014034753248    0.1213600371237034    0.1904434542125816    0.2674536521092895    
  0.326652433591451    0.3483036431157252    0.32665521643214357    0.2674270689925032    0.41387910059518696    
  0.3266497929928266    0.21774340796948144    0.12872115478544627    0.07350838496784763    0.04519279354143742    
  0.03383618709921782    0.03383732202108209    0.045191667548770874    0.07350971702693332    0.1287164659942596    
  0.21775759580097517    0.3266523883453738    0.41385059211290687    0.45257465588632245    0.452597120929481    
  0.41387910059518696    0.47941734590557716    0.4525871041107124    0.34831671461976893    0.2177434051750518    
  0.12136738786049613    0.06782878699781761    0.04352476172575044    0.036735088794355296    0.04352432237326657    
  0.06782880478285264    0.12136863421378605    0.21774427271716212    0.3483035885268404    0.4525746012656193    
  0.4794780396036997    0.4735003248777219    0.47941734590557716    0.42792070707632207    0.47349853952835186    
  0.4525871078906401    0.32664981827190265    0.19044884835422732    0.10259341271458364    0.05884572818887356    
  0.04188828809020787    0.04189100979583638    0.05884307828235784    0.10259663125957473    0.19044336752518945    
  0.326655250263225    0.4525971790881102    0.47350041015419714    0.4278685691913222    0.42792070707632207    
  0.3858889215890395    0.42792075608292085    0.47941741385896386    0.4138791088856571    0.26742710204624165    
  0.14700592007861862    0.07959125341413549    0.049526033908122    0.041231892180312146    0.04952603849885281    
  0.07959123269303092    0.1470059506548898    0.26742713055472683    0.4138791186317922    0.4794174242513436    
  0.42792076264146894    0.3858889215890395    0.45664883857741906    0.4441779246165706    0.38879305631253946    
  0.2861392705382424    0.17909788474638652    0.10270861717846225    0.05964167353594152    0.039643349019284325    
  0.03398808279910637    0.03964334340655987    0.0596416499880127    0.1027086235732374    0.17909785691821273    
  0.28613924158952725    0.38879301997889587    0.4441779580006083    0.45664883857741906    0.44417791466468787    
  0.44416968378191507    0.40915536268337893    0.3258408336291732    0.2187897120763167    0.13004526883839926    
  0.07454369252629733    0.04592735712733369    0.03442772864368859    0.03442679791345712    0.04592794127485212    
  0.07454321904232783    0.1300461986282802    0.21878884488837175    0.3258389805656454    0.4091552091430076    
  0.44417791466468787    0.38879303031319673    0.40915541861851445    0.38880199077510347    0.32583703133823244    
  0.23408803143973303    0.14725218437294804    0.08654356173489673    0.05192239869346892    0.03552634993858719    
  0.03082994915036249    0.03552679258492383    0.0519220968019519    0.08654340812031683    0.14725179616456627    
  0.23409047325500523    0.3258389394645805    0.38879303031319673    0.2861392367489741    0.32584087617794644    
  0.3258369888006491    0.28613578348682644    0.218789810555265    0.14725382611677174    0.09119946406665334    
  0.05567251653066769    0.03665273653902255    0.028748893954800264    0.028748693870782504    0.036652804621736    
  0.055672446113615506    0.0912002733680592    0.14725175940283186    0.2187888846082315    0.2861392367489741    
  0.17909786564532257    0.2187897166052738    0.23408806074433722    0.21878981231487757    0.17910066326368837    
  0.13004523147340455    0.08654226074425406    0.05567292643441088    0.03711697168325132    0.027818738003353105    
  0.02506134174738063    0.027818416484803887    0.03711727330570623    0.055672457699605514    0.08654341321071628    
  0.13004625876498235    0.17909786564532257    0.10270860121225481    0.130045288723388    0.1472522150696678    
  0.14725382088452174    0.13004521673330768    0.1027062372993635    0.07454399044454893    0.051922780558212325    
  0.03665282601498615    0.02781827706953752    0.023904299108928318    0.023904704554600687    0.027818396397830264    
  0.03665281205895846    0.051922071842726195    0.07454321493779993    0.10270860121225481    0.05964166563443913    
  0.07454369570779515    0.08654355855805337    0.0911994476458638    0.08654225583400431    0.07454400346324616    
  0.0596433544634155    0.045927171403531024    0.03552610859560932    0.028748864476254    0.025061725221916003    
  0.023904297171686482    0.025061349332880796    0.02874868842263871    0.03552678915799043    0.04592795664654396    
  0.05964166563443913    0.03964334241673517    0.04592736463374212    0.051922387766752086    0.055672509140439946    
  0.05567291112308305    0.051922787187107994    0.04592717600934623    0.039642194213972255    0.03442776664603974    
  0.030829923315055706    0.028748866909690148    0.02781827769681011    0.02781873856217619    0.028748886840082123    
  0.030829928573867574    0.034426798686778844    0.03964334241673517    0.03398808874117104    0.03442773614121498    
  0.03552634343270663    0.03665274418811933    0.037116971067036514    0.036652854319218456    0.03552611707078197    
  0.03442775930905089    0.033988357804384944    0.03442776488637238    0.03552610761529709    0.03665284821682573    
  0.03711698917193277    0.03665275435544383    0.035526343351581356    0.03442773233835255    0.03398808874117104    
  0.03964334384958977    0.03442680443847584    0.030829933720623977    0.028748884982075854    0.027818730052161574    
  0.02781828906939045    0.028748858522468626    0.030829912741551224    0.034427758658115024    0.03964218500301793    
  0.045927163240873245    0.05192277218706039    0.05567290636662475    0.05567252888916706    0.05192239320707173    
  0.045927363228505796    0.03964334384958977    0.059641669587804244    0.04592795846918659    0.035526797081446626    
  0.028748680908488304    0.025061339950994414    0.023904305585000896    0.02506172227602811    0.02874887187559434    
  0.035526119929384925    0.04592717346212419    0.05964334902303561    0.07454399334558133    0.08654224599812878    
  0.09119943973261743    0.08654356104852967    0.0745436939269012    0.059641669587804244    0.10270860621792231    
  0.07454322123913094    0.051922077767489624    0.03665280405924214    0.027818413153851446    0.02390471036174323    
  0.023904300378967316    0.02781827748160922    0.03665283807249465    0.05192279000738546    0.07454399259029174    
  0.10270623656248426    0.13004522801660454    0.14725384498780575    0.1472521871028915    0.13004528217611291    
  0.10270860621792231    0.17909784877188575    0.13004626295476612    0.08654338805671544    0.05567244916285865    
  0.03711726989858011    0.027818424324766198    0.025061347450224244    0.027818731983015946    0.03711697792300108    
  0.05567292004579823    0.08654223221083694    0.13004521809480832    0.17910070656591356    0.21878983317679254    
  0.23408807897894518    0.21878968792965098    0.17909784877188575    0.28613920212560456    0.21878883758408332    
  0.14725176344470417    0.09120030032071552    0.05567244534907879    0.03665280513372889    0.02874869418052847    
  0.028748881820188303    0.03665273592526739    0.055672525182951    0.09119944436287808    0.1472538021420065    
  0.21878979704345186    0.28613569606264366    0.3258370047275693    0.3258407912690104    0.28613920212560456    
  0.3887929918686488    0.3258389379602397    0.2340904575424569    0.1472518109767994    0.08654341354788767    
  0.05192208567732276    0.035526795664254075    0.030829934070144085    0.03552635086080468    0.051922391675682106    
  0.08654355078146642    0.14725220784930398    0.2340880429046007    0.32583698922549725    0.3888020603469371    
  0.40915535447790097    0.3887929918686488    0.44417788756120746    0.4091552887950563    0.32583886471991597    
  0.218788824146365    0.13004621537564673    0.0745432210699368    0.04592794909237864    0.03442680048168026    
  0.034427725082851954    0.04592735949893581    0.07454368474936987    0.13004525664373145    0.21878966611426603    
  0.32584075224657644    0.40915536716614764    0.4441695811349285    0.44417788756120746    0.45664883857741906    
  0.4441779246165706    0.38879305631253946    0.2861392705382424    0.17909788474638652    0.10270861717846225    
  0.05964167353594152    0.039643349019284325    0.03398808279910637    0.03964334340655987    0.0596416499880127    
  0.1027086235732374    0.17909785691821273    0.28613924158952725    0.38879301997889587    0.4441779580006083    
  0.45664883857741906    0.2942433466461739    0.2758751164427331    0.226687349885531    0.16359294444950295    
  0.10658778800283035    0.0662606463364268    0.04239418181589399    0.030655054007633787    0.027216219370265325    
  0.030655052668907393    0.04239416324531662    0.06626064284504467    0.10658776356404381    0.16359294462919213    
  0.22668733091857365    0.27587514476551595    0.2942433466461739    0.27587510852840014    0.2758736320614691    
  0.24212300939220777    0.18625421573884604    0.12739983413309372    0.08086901193820124    0.05082945152488955    
  0.0344098637560063    0.027478528218659377    0.0274782023139956    0.034410066443663186    0.050829120774513036    
  0.08086968887450964    0.1273989115398663    0.18625522217515814    0.24212169362238004    0.27587510852840014    
  0.2266873374143738    0.24212303390144319    0.22668761726861772    0.18625528319576096    0.13549955011844422    
  0.08994408634677598    0.05745843043409201    0.037920274393340885    0.028127644122638264    0.025222366958636985    
  0.028127788786287418    0.0379203586768562    0.05745823890679931    0.08994404962309539    0.13549977052355078    
  0.18625517346213033    0.2266873374143738    0.16359293130495522    0.1862542521294263    0.18625525674887702    
  0.16359157209190583    0.12739999330972265    0.08994336124767431    0.05998111369039892    0.040062652488752556    
  0.02878639864358655    0.02387520051289635    0.02387536939391754    0.02878601511819274    0.04006293383969206    
  0.0599808483593632    0.08994402233113448    0.1273989293350589    0.16359293130495522    0.10658778177782847    
  0.12739983884572673    0.13549956704159052    0.12739999897742232    0.10658778730756942    0.08086955513159698    
  0.05745855454036458    0.04006284194798851    0.029056708441579104    0.023264953951238333    0.021490060465215833    
  0.023264991359100932    0.029056816977705856    0.04006293424278458    0.057458236845509526    0.08086971782138803    
  0.10658778177782847    0.06626062298862723    0.08086902174998023    0.08994413067807674    0.08994335059464491    
  0.08086953712470717    0.06626020638810105    0.05082923333629863    0.03792010902468552    0.028786317260977988    
  0.023264888485669145    0.020728656114269283    0.020728555432234477    0.023264975058300663    0.028786025608669583    