#     DFTpy    
  CRYSTAL 
    
  PRIMVEC    
  1.7556044975451033    -3.0407961877445495    0.0    
  1.7556044975451033    3.0407961877445495    0.0    
  0.0    0.0    5.9358443487586205    
  PRIMCOORD    
  2    1    
  Si    1.7556044975451033    1.0135987292481832    1.4839610871896551    
  Si    1.7556044975451037    -1.0135987292481832    4.451883261568965    
  BEGIN_BLOCK_DATAGRID_3D    
  3d_datagrid_density    
  BEGIN_DATAGRID_3D#0    
  15    15    27    
  0.0    0.0    0.0    
  1.7556044975451033    -3.0407961877445495    0.0    
  1.7556044975451033    3.0407961877445495    0.0    
  0.0    0.0    5.9358443487586205    
  0.02806404610841395    0.029215905163989427    0.032748235214841936    0.038693289390991    0.04665475882466853    
  0.055418848725741814    0.06258524820052858    0.06537318680664621    0.06258527017746965    0.05541885228048092    
  0.04665475530987681    0.03869329864452606    0.0327482409489088    0.02921590193850257    0.02806404610841395    
  0.029215907923672964    0.029216770428341757    0.03156419398920669    0.03637677320497018    0.04356695482650786    
  0.0523976830809047    0.06097733080413576    0.06641606216723271    0.06641337544888226    0.06098102239917739    
  0.05239574123087729    0.04356827777874918    0.0363758196973317    0.03156496526744714    0.029215907923672964    
  0.032748247143697784    0.031564191791629934    0.03274815378654023    0.036375236114257484    0.042618792863576525    
  0.051234773368391606    0.06084476939802236    0.06872174437177696    0.07181530400561562    0.06872082817498892    
  0.06084382763230663    0.0512359082419102    0.04261864846053934    0.036375816587943546    0.032748247143697784    
  0.038693304604780626    0.036376792291984456    0.0363752306141771    0.03869455777494863    0.043567097302752524    
  0.05123671171371554    0.06099172488666435    0.07056762188706242    0.07670228137522263    0.0767026038756056    
  0.07056821244534466    0.06099260101281369    0.05123590711755235    0.04356828929438375    0.038693304604780626    
  0.046654767648141776    0.0435669491812802    0.04261879859951023    0.04356710021195582    0.04665471267483485    
  0.052394511187840116    0.06084496440412833    0.07056692729856058    0.07870314422488593    0.08196069255524348    
  0.07870347641956148    0.0705682305294994    0.06084384520140152    0.052395723221460584    0.046654767648141776    
  0.05541883513494206    0.052397680709212406    0.051234773346249964    0.05123669101613443    0.05239449815328542    
  0.055421394653329625    0.06097822475361728    0.0687222428311425    0.07670175662581251    0.08196380021032326    
  0.08196067967730213    0.07670259308691593    0.0687208232742261    0.060980997739114334    0.05541883513494206    
  0.06258526693896149    0.06097734892782003    0.06084478358098736    0.06099172416720624    0.06084496837016054    
  0.060978229457418216    0.06258364864749888    0.0664144569862528    0.0718141481401632    0.07670175329404025    
  0.07870312422164641    0.07670227009444033    0.07181529465018748    0.06641338242797445    0.06258526693896149    
  0.06537318517708296    0.06641605064715456    0.06872175725625959    0.07056763286114705    0.07056692418412842    
  0.0687222560347142    0.0664144704107551    0.06537471534000103    0.066414484936501    0.06872225985674577    
  0.07056692714624162    0.07056763751147622    0.06872175453751127    0.06641605592565246    0.06537318517708296    
  0.06258526881706955    0.06641337537209724    0.07181530464249399    0.07670226500974076    0.07870312242157745    
  0.07670175271166901    0.07181415380845375    0.06641445484005788    0.06258365822240164    0.060978246319188883    
  0.06084496182590274    0.060991723542978535    0.06084476283892908    0.060977331216803536    0.06258526881706955    
  0.055418844742675964    0.060981005673505805    0.06872082724804604    0.07670258732543062    0.08196068174804012    
  0.08196379842134306    0.07670174087787511    0.06872225356383178    0.060978241329519345    0.05542138714572579    
  0.05239448725774284    0.05123671464471455    0.05123476796262141    0.052397681064587226    0.055418844742675964    
  0.046654778302596595    0.05239574439005167    0.06084383950461449    0.07056821981441512    0.07870348731459562    
  0.08196069189630764    0.07870311508683145    0.07056691487038814    0.060844987800080165    0.05239451560142224    
  0.046654705082647505    0.04356710986907377    0.04261880070213004    0.04356694437060635    0.046654778302596595    
  0.03869329954232638    0.04356828567140595    0.05123591049897159    0.06099258588789979    0.07056821347480581    
  0.07670260239918175    0.07670225783621774    0.07056764297744271    0.06099172749785968    0.051236699845698744    
  0.0435671021721486    0.038694564205268865    0.03637523976119815    0.03637676743605382    0.03869329954232638    
  0.032748244880537375    0.03637581723346615    0.042618650953445865    0.05123590669962541    0.06084384974428612    
  0.06872084265381927    0.07181527472132508    0.06872173821442686    0.06084477849349446    0.051234789712166925    
  0.04261878166338926    0.036375228142177876    0.0327481565870205    0.03156418951227356    0.032748244880537375    
  0.029215907352959734    0.03156496333311391    0.036375830432529295    0.04356828469644278    0.05239573865084029    
  0.0609810071689893    0.06641335764838996    0.06641604075115319    0.06097735457681163    0.052397682370421035    
  0.04356694016868541    0.03637677638559351    0.0315641941070893    0.029216768049156006    0.029215907352959734    
  0.02806404610841395    0.029215905163989427    0.032748235214841936    0.038693289390991    0.04665475882466853    
  0.055418848725741814    0.06258524820052858    0.06537318680664621    0.06258527017746965    0.05541885228048092    
  0.04665475530987681    0.03869329864452606    0.0327482409489088    0.02921590193850257    0.02806404610841395    
  0.028981963914239746    0.030286296510717386    0.03431307523105502    0.041187532558460214    0.05055707535017628    
  0.06098223238559259    0.06953486608220161    0.0728819758594295    0.06953330577007973    0.060981410783413834    
  0.05055688131052902    0.04118665956928149    0.03431228488068753    0.030286154841383073    0.028981963914239746    
  0.03028615564398988    0.03028590477919755    0.03226062334283632    0.036288885883963985    0.042320036244421926    
  0.04969896687359835    0.056850479289651264    0.061376489785213977    0.06137775170238708    0.056851459215645814    
  0.04969905745888713    0.04232115888209034    0.03628941185260392    0.032260862562847346    0.03028615564398988    
  0.03431228308172697    0.033675467422882015    0.03431246147347066    0.03628924711669123    0.03977095688694055    
  0.04459525938885338    0.04998142457783897    0.0544337943744362    0.05617731373595785    0.05443357396576852    
  0.04998126922771024    0.044594378528781176    0.03977034914934408    0.03628941265014672    0.03431228308172697    
  0.04118666434032429    0.04080871082300551    0.04080840609256665    0.041187074807793364    0.04232000022261872    
  0.04459408641439988    0.047871261044298966    0.05134796794997369    0.0536336824059084    0.05363308667721164    
  0.05134765481801458    0.047872699346137255    0.044594372950686086    0.04232117000464321    0.04118666434032429    
  0.050556891192989444    0.05179108714120093    0.05236042344773252    0.05179039931273782    0.05055765147501916    
  0.04969892634826758    0.04998125990995606    0.05134755685394289    0.052929409375696346    0.053618043147690995    
  0.0529304932312339    0.051347665844994006    0.04998128279792322    0.04969905013746047    0.050556891192989444    
  0.06098140510869572    0.06566867470987554    0.06886748015061518    0.06886841885705233    0.06566667948760763    
  0.060981516939175744    0.05685113435404717    0.05443396528404159    0.05363327328863087    0.053618481082593844    
  0.053618021621489965    0.053633083342131065    0.05443356913531529    0.05685144092441538    0.06098140510869572    
  0.06953330013713468    0.07938931789186042    0.08784296187104332    0.09125119002266825    0.08784592038392697    
  0.07938909194621589    0.06953328431660456    0.06137638794201351    0.05617685422955119    0.05363326471079051    
  0.052929392042160024    0.05363365197307641    0.056177314637394705    0.06137776204068165    0.06953330013713468    
  0.07288198425130403    0.08817970476659541    0.10368245527536786    0.11375074927694892    0.11374979725159563    
  0.10368049577244959    0.08818033353030566    0.07288248700475591    0.06137641447803482    0.05443397510829337    
  0.05134755444018397    0.05134797563524012    0.05443381068684141    0.06137648289070979    0.07288198425130403    
  0.06953486737791167    0.08817879729786268    0.10996379010890521    0.12831697237652495    0.1356253595538702    
  0.12831741669600594    0.10996266470315952    0.08818029441712602    0.06953328939563487    0.056851141181724366    
  0.04998126460066534    0.04787125774693773    0.04998143080669696    0.056850471454413944    0.06953486737791167    
  0.060982222885299094    0.07938953543238648    0.10368034382891257    0.12831623507571555    0.14437699903188678    
  0.14438213818013512    0.12831740406072328    0.10368048992126165    0.079389105970792    0.0609815122928109    
  0.04969888903074293    0.04459407950183773    0.044595246321654416    0.04969896796046108    0.060982222885299094    
  0.05055708988168172    0.06566758076257526    0.08784547414990217    0.11375185503137548    0.13562719973179105    
  0.14437699797532738    0.13562535527682615    0.11374979144731365    0.0878459360317414    0.06566669751725897    
  0.050557636447425135    0.04232000501412709    0.03977096333591029    0.04232003401892287    0.05055708988168172    
  0.041187540289849556    0.05179084368177628    0.06886861900325203    0.09124859657184729    0.11375186506979602    
  0.12831626624773365    0.1283169702422104    0.1137507660355779    0.09125118735831417    0.06886842923584745    
  0.051790395488625296    0.04118708708405227    0.03628924704498418    0.03628888326314569    0.041187540289849556    
  0.03431307757856004    0.040808447133232124    0.052361355797273655    0.06886862117954158    0.08784548011716461    
  0.10368036103304325    0.10996376178099734    0.10368243702711313    0.08784295550880764    0.06886749552663578    
  0.05236040835518905    0.040808399279564644    0.03431246265456455    0.03226062277477974    0.03431307757856004    
  0.030286295599265878    0.03367470427054141    0.040808452989416814    0.0517908423008998    0.06566757734043323    
  0.07938953746963227    0.08817878790355455    0.08817969422863409    0.07938932190691429    0.0656686816723319    
  0.05179108682787055    0.04080870269653562    0.033675466540973926    0.030285904264406947    0.030286295599265878    
  0.028981963914239746    0.030286296510717386    0.03431307523105502    0.041187532558460214    0.05055707535017628    
  0.06098223238559259    0.06953486608220161    0.0728819758594295    0.06953330577007973    0.060981410783413834    
  0.05055688131052902    0.04118665956928149    0.03431228488068753    0.030286154841383073    0.028981963914239746    
  0.03165349902601144    0.03341772176055669    0.03895261886753471    0.048700345672594736    0.06248841584587748    
  0.07818216202441973    0.09119564832374594    0.09634675347766374    0.09119548098314997    0.07818019077766959    
  0.062488533707109634    0.0486996194594102    0.03895223109284718    0.033417249788423274    0.03165349902601144    
  0.033417254933987325    0.03341663182399918    0.03554767312732059    0.03997770425147267    0.04682683784367948    
  0.05540954664696631    0.06378445957359105    0.06911406448871509    0.06911693568689053    0.06378353845367    
  0.055410954889512    0.0468265349509404    0.03997820530856893    0.03554727585472945    0.033417254933987325    
  0.03895222348387466    0.03867078244614471    0.03895152894450549    0.0399780357492445    0.042127040500925785    
  0.0454549155993619    0.04941099609379717    0.05279010118513148    0.054123265539540825    0.05278927301657485    
  0.04941152516678125    0.045453710162912615    0.04212732413215149    0.03997820092851721    0.03895222348387466    
  0.04869961646430476    0.050117409691866795    0.05011953030173085    0.048700039204281724    0.046826810454236326    
  0.045452492576799536    0.04505615166500109    0.04548905791253398    0.04598240131566669    0.045982138155173095    
  0.04548983691240141    0.04505596270248081    0.04545369581121829    0.04682654695556438    0.04869961646430476    
  0.06248854594967727    0.06853704525334627    0.07098454054478723    0.06853477028337632    0.06248766518897907    
  0.055411901602822757    0.04941045204758789    0.04548992129322338    0.043476208325781446    0.042865278394782345    
  0.04347589613772687    0.0454898345069716    0.049411545807024004    0.05541094611094993    0.06248854594967727    
  0.07818018896336261    0.092718460226157    0.10221188023681428    0.10221210337951057    0.09271979233244769    
  0.07817989242687409    0.06378447245421523    0.05278922815116139    0.045982179397251785    0.042863952358895695    
  0.042865272474573536    0.045982138937839416    0.052789269796452244    0.06378351604914013    0.07818018896336261    
  0.09119546795737134    0.1172193340973204    0.13938862016791934    0.1482997896074689    0.1393930993857452    
  0.11721699055472605    0.09119607559499879    0.06911453496906396    0.05412417218995684    0.04598216870356881    
  0.04347618875780524    0.045982372756670976    0.05412326245454277    0.06911694612000115    0.09119546795737134    
  0.09634677732376429    0.1331370765748122    0.170984095978182    0.19563252478004758    0.1956345795681406    
  0.17097986233414356    0.13314202312114587    0.09634646178400685    0.06911454821902972    0.052789232555605636    
  0.04548991521438805    0.04548906365762534    0.05279010192401443    0.06911405900278421    0.09634677732376429    
  0.09119566631269235    0.13314108308513228    0.18355934182353878    0.22600819444361336    0.24259276550974576    
  0.22601054806267717    0.18356197802125715    0.13314200386892885    0.09119609304970032    0.06378448425145936    
  0.04941047046654875    0.04505614293278264    0.049410997132974206    0.06378445832921513    0.09119566631269235    
  0.07818215502273854    0.11721722048308539    0.17098125643315032    0.226008758461641    0.2607229125912134    
  0.2607257823687586    0.226010526088582    0.17097984485729853    0.11721699370089121    0.07817989384221806    
  0.055411863699626564    0.04545249153720168    0.045454906923717134    0.05540954237434267    0.07818215502273854    
  0.06248843678079041    0.09271955431927972    0.1393916642420673    0.19563209628305542    0.24259368387274985    
  0.2607229276847346    0.2425927701884887    0.19563458472968503    0.1393931056340092    0.09271979890941555    
  0.06248765674205429    0.046826819135751464    0.042127052768872235    0.046826838996610824    0.06248843678079041    
  0.04870036524835351    0.06853520534565678    0.10221179237195462    0.1483007071810716    0.1956321064573178    
  0.22600880137560508    0.22600821540813254    0.19563252574232728    0.14829979168145074    0.10221211551692935    
  0.0685347678308869    0.04870004442988929    0.039978046429911956    0.039977699827602    0.04870036524835351    
  0.0389526159308937    0.05011878161980547    0.07098737976406617    0.1022117867020953    0.13939167389849358    
  0.1709812923211027    0.18355928813624234    0.17098408197483075    0.13938860519729884    0.10221189140352448    
  0.07098453331099668    0.05011952550237802    0.038951525163361374    0.0355476711402241    0.0389526159308937    
  0.03341773009898692    0.0386690726421101    0.05011879926639345    0.06853520134661546    0.09271956156457872    
  0.11721721246077403    0.1331410765936317    0.13313705089704436    0.11721933591240719    0.09271846089487865    
  0.06853703576767238    0.05011740083047438    0.038670782090145794    0.03341663119540463    0.03341773009898692    
  0.03165349902601144    0.03341772176055669    0.03895261886753471    0.048700345672594736    0.06248841584587748    
  0.07818216202441973    0.09119564832374594    0.09634675347766374    0.09119548098314997    0.07818019077766959    
  0.062488533707109634    0.0486996194594102    0.03895223109284718    0.033417249788423274    0.03165349902601144    
  0.035704070678958574    0.03821257849007065    0.04626178209182056    0.060923261943231895    0.08239823990957998    
  0.1074485079705345    0.12852356009876967    0.13692329288212857    0.12852677371363336    0.10744665274473347    
  0.08239647433467932    0.06092341260540158    0.04626177514509764    0.03821228004935916    0.035704070678958574    
  0.038212285943923244    0.03821296254422503    0.04095424836736668    0.046797404289508904    0.05610062643550363    
  0.06805973903238548    0.07987573106871106    0.08747950627141642    0.08747944589648178    0.07987429459060243    
  0.06806074956926395    0.05609990095132609    0.04679735805675962    0.040954073644122235    0.038212285943923244    
  0.0462617695913545    0.04618002415752074    0.046260400873895706    0.04679773896582216    0.048454377278512935    
  0.051595300771203514    0.05568096181240302    0.05927945214401027    0.06072924724749311    0.0592792754085564    
  0.05568079494327281    0.05159590732822138    0.04845487890384923    0.046797367642286335    0.0462617695913545    
  0.06092340873354376    0.06416985877124777    0.06417124260349122    0.06092395012314579    0.0561001664262806    
  0.05159670360877529    0.04858765207507388    0.047179754232898094    0.046724379476813925    0.046725287911191245    
  0.04718073654396937    0.04858717261734595    0.051595898450558446    0.056099905851445406    0.06092340873354376    
  0.0823964963776191    0.09447472793166507    0.099316856510013    0.09447528264487542    0.0823941481874195    
  0.06805982670773741    0.055679804422570936    0.0471804760548393    0.042498481675019066    0.041027600830587325    
  0.04249650364583542    0.04718073555635296    0.05568082043025973    0.06806075395732628    0.0823964963776191    
  0.10744663519252287    0.13575408242819548    0.1542295753620517    0.1542275273086762    0.1357549473594088    
  0.10745171767176907    0.07987531094952806    0.05927899615902856    0.04672476885325764    0.04102515224095266    
  0.04102757830878191    0.04672527067540465    0.059279287364282465    0.07987427646138344    0.10744663519252287    
  0.12852674760087202    0.17822169865523918    0.22038887394615642    0.23694254270202914    0.22039149468941469    
  0.17821747866979756    0.12852587596806272    0.08747809702922203    0.06073098849633466    0.04672476848580683    
  0.04249845095794169    0.04672436847051275    0.060729234870135276    0.08747947392307791    0.12852674760087202    
  0.1369233044389098    0.2056996129085128    0.2748908049113934    0.3167943541295427    0.31679911245188735    
  0.2749027096603758    0.20570116409317646    0.13692656825566812    0.08747812916276464    0.05927899211709317    
  0.047180472522196044    0.04717975638787207    0.05927946975840306    0.08747950504851837    0.1369233044389098    
  0.1285235934279019    0.20569881121274297    0.295598140891709    0.36152954896784345    0.38307776289602063    
  0.3615298545746584    0.29561259482892344    0.2057011427197363    0.12852588204717447    0.07987532913424762    
  0.055679817209350474    0.04858765181609604    0.055680976643696804    0.07987571817450426    0.1285235934279019    
  0.10744850089222821    0.178225234440702    0.27490112753677565    0.3615288530147664    0.4028231451528471    
  0.4028063711718725    0.36152986434743783    0.2749027116403427    0.17821750971807637    0.10745172123682324    
  0.06805978864134542    0.05159670773308349    0.051595294340647135    0.06805973909416393    0.10744850089222821    
  0.08239824752085    0.13575138239601178    0.22038867413378846    0.31678469006527277    0.3830689568244428    
  0.40282317817826385    0.38307776950811545    0.3167991143565727    0.22039150505147134    0.13575495908603594    
  0.08239415608934841    0.056100170532027226    0.048454386246065274    0.05610062565808184    0.08239824752085    
  0.06092328276618352    0.09447522002197539    0.1542305536997952    0.23695165455218364    0.3167847358875288    
  0.3615289122680495    0.3615295234392284    0.31679438584823    0.23694257054558424    0.15422757571038087    
  0.09447529034816142    0.06092394945372624    0.046797741677057955    0.0467973988135301    0.06092328276618352    
  0.04626177966254241    0.06417116563805468    0.09931840913708993    0.15423053891843988    0.22038872806223034    
  0.27490117269285225    0.29559812060347795    0.2748907751566539    0.2203888882167095    0.15422957980763    
  0.09931684224714075    0.06417122259697998    0.046260398684156726    0.04095424413916641    0.04626177966254241    
  0.03821258256025807    0.0461797887738685    0.06417117597221461    0.0944752169266726    0.13575137489387792    
  0.17822524299376977    0.20569878648588977    0.20569959632116463    0.17822170472419652    0.13575408510986184    
  0.09447470196694494    0.06416984760578905    0.04618002808419556    0.03821296423077844    0.03821258256025807    
  0.035704070678958574    0.03821257849007065    0.04626178209182056    0.060923261943231895    0.08239823990957998    
  0.1074485079705345    0.12852356009876967    0.13692329288212857    0.12852677371363336    0.10744665274473347    
  0.08239647433467932    0.06092341260540158    0.04626177514509764    0.03821228004935916    0.035704070678958574    
  0.040371103925033805    0.04379975341996447    0.05503986612188889    0.07611081998259855    0.10782817795266243    
  0.14558876136803714    0.17767098992772992    0.19046690266198063    0.17769630836042724    0.1455849701177561    
  0.10780709421226721    0.07611390262197437    0.05503982521605726    0.043800966501048866    0.040371103925033805    
  0.0438009674668108    0.04380258017195005    0.04743143146805426    0.05540329519607573    0.06831743497577766    
  0.08521836415571311    0.10218785725341895    0.11322342180364349    0.11322047220272512    0.10217276373475133    
  0.08522012552234569    0.06832946765221927    0.05540263186021184    0.04743020973625556    0.0438009674668108    
  0.055039829125311385    0.05507221522470752    0.055038261386768934    0.055402155530492554    0.05716473599802761    
  0.06089227389787312    0.06595377022679537    0.07050875648550198    0.0723792181302667    0.07051091814538497    
  0.06596085069662577    0.06089481660661485    0.05715183015738635    0.0554026355212758    0.055039829125311385    
  0.07611389357488739    0.08125063987593405    0.08124993333421437    0.07611418118626202    0.06831580864159151    
  0.06089769966712143    0.055667352490305695    0.052853065828449765    0.05179102881493337    0.05179028538223681    
  0.052853839533835906    0.055660213761352585    0.06089480083994463    0.06832947201034495    0.07611389357488739    
  0.10780711336938342    0.12693858541873915    0.1345902421402395    0.1269459954776898    0.10782274186319468    
  0.08521435657562985    0.0659540977550239    0.05285413949755446    0.04571974902505387    0.043526686900040634    
  0.04571883530255781    0.052853831844528215    0.06596088027978127    0.085220121424837    0.10780711336938342    
  0.14558496409322041    0.19050004504047202    0.21948647687661824    0.21947309853625693    0.19047483564151543    
  0.14559854878237397    0.10218536198889577    0.0705054607408259    0.051793223708360384    0.04352163191789478    
  0.04352666476914811    0.051790288033594464    0.07051093066145721    0.10217273324133327    0.14558496409322041    
  0.17769626694081792    0.2550222870670123    0.31644611148194923    0.3386047296323238    0.3164770552268505    
  0.25501126486457293    0.1776786799626096    0.11322676343338021    0.07237874373116357    0.05179323110404121    
  0.045719726827281405    0.05179102810679517    0.07237921057420874    0.11322046549050424    0.17769626694081792    
  0.19046691596029022    0.29477828265197337    0.3834337011444963    0.42089154997533235    0.42087453687519194    
  0.3834785257765528    0.2948005222763243    0.19046025976639652    0.11322677489225048    0.07050546460509746    
  0.05285413980978139    0.05285306731301981    0.07050877325511153    0.1132234305625442    0.19046691596029022    
  0.17767100868649638    0.2947998952743895    0.40352488198678654    0.4370864203311104    0.4309839950350609    
  0.43707635075840257    0.403555631671218    0.2948004811344185    0.177678704327022    0.10218537645386301    
  0.06595410042533582    0.05566735318184353    0.06595376879765483    0.10218788417249625    0.17767100868649638    
  0.14558874315146345    0.25502459285057133    0.3834743841655541    0.43707561797523287    0.4114019187507302    
  0.41140532112702544    0.4370763653892387    0.3834784992715474    0.25501130067842037    0.14559854055465934    
  0.08521430125814995    0.06089771315611067    0.060892280894511173    0.08521836238812504    0.14558874315146345    
  0.10782819869610338    0.19046676736488005    0.3164882569714109    0.4208060803182993    0.4310226118753896    
  0.4114018981238308    0.43098401858351937    0.42087456061826595    0.3164770641050162    0.1904748594135987    
  0.10782276417768014    0.06831582620877476    0.05716474013072381    0.06831743598900823    0.10782819869610338    
  0.07611084554299791    0.12695028806955416    0.21947619555306017    0.33864997152155696    0.4208061522201507    
  0.43707568630033694    0.4370864109953009    0.420891532194134    0.33860470392764463    0.2194731159678706    
  0.12694599650909175    0.07611418222150011    0.055402160478173236    0.0554032886877074    0.07611084554299791    
  0.055039862385359795    0.08124913799978913    0.13459138858923383    0.21947621438601508    0.31648830528979127    
  0.3834744080561803    0.40352484978983766    0.38343369359937607    0.31644612233352115    0.21948647765637266    
  0.13459023676814402    0.08124992422076663    0.05503826237505369    0.04743142639270673    0.055039862385359795    
  0.04379976100382117    0.05507640160983684    0.08124915856666934    0.1269502805750496    0.19046676038843235    
  0.2550245803013669    0.29479988465205437    0.29477825956785464    0.25502228285972034    0.19050006122364752    
  0.12693857059476363    0.08125063338408547    0.05507222813021171    0.043802581973389494    0.04379976100382117    
  0.040371103925033805    0.04379975341996447    0.05503986612188889    0.07611081998259855    0.10782817795266243    
  0.14558876136803714    0.17767098992772992    0.19046690266198063    0.17769630836042724    0.1455849701177561    
  0.10780709421226721    0.07611390262197437    0.05503982521605726    0.043800966501048866    0.040371103925033805    
  0.044533470272673535    0.04884801232374736    0.06314670859787483    0.09049183336188468    0.1325123339547349    
  0.18295755603678762    0.22561728624340013    0.2425130315557793    0.22572453841505877    0.18295493688908485    
  0.13242540901326533    0.09050807456279412    0.06315143548206484    0.048849644251495024    0.044533470272673535    
  0.04884965183157109    0.04885109968015645    0.053395465267854124    0.06354023870652767    0.08011332409623323    
  0.10220880819706359    0.12468668950623966    0.1392714342031448    0.1392739232243331    0.12461604312431827    
  0.10221126022814508    0.08017181711443122    0.06353085150518749    0.05338942242155192    0.04884965183157109    
  0.06315144225985118    0.06324200880974068    0.0631448912259291    0.06352384989251086    0.06571221992794649    
  0.07029076051243764    0.07662258359105119    0.08243220209341748    0.08480109733585853    0.08243063106179155    
  0.07666610886180499    0.07029520816100793    0.06565747603694684    0.06353085071738426    0.06315144225985118    
  0.09050806662228984    0.09733899796986933    0.09734599846236804    0.09051288266179883    0.08011010839441327    
  0.07030388134581972    0.06332597899821694    0.05945158365252214    0.05799542867183813    0.05799368418802058    
  0.05945718804048959    0.06328884579661911    0.07029518540212468    0.08017183160448883    0.09050806662228984    
  0.13242542034469276    0.1581395855196719    0.16841184203872686    0.15814395463684303    0.13250962230840155    
  0.10219483223065237    0.07662541916166782    0.05946607806546524    0.0502045329242417    0.04738535270353511    
  0.05020528908139362    0.05945718932892954    0.07666611930247352    0.10221126261879009    0.13242542034469276    
  0.18295493967629414    0.24253216299162764    0.27990837607186453    0.2798756570218994    0.24241379888278972    
  0.18298295606711454    0.12467813467028677    0.08241120129371052    0.05799852656329388    0.04737965447812341    
  0.04738533458731524    0.0579936973164325    0.08243063893196464    0.12461604960384652    0.18295493967629414    
  0.22572451409523184    0.3236674171613119    0.38989090471575905    0.4091117341815315    0.3900566089568608    
  0.32363060067977245    0.22563982715650552    0.13930136883344912    0.08479919159575121    0.057998530680245616    
  0.05020450308857505    0.05799544232468553    0.08480108158357809    0.1392739260295089    0.22572451409523184    
  0.24251301885604393    0.3683941521969908    0.435292772061179    0.4268739804770528    0.4267685088545577    
  0.4353374540395224    0.3685507763342168    0.24243920899334495    0.13930139115251688    0.08241120114231328    