#     DFTpy    
  CRYSTAL 
    
  PRIMVEC    
  3.2817225295937535    1.3729510959568967e-05    -3.4422413793103454e-13    
  -1.6408493746909132    2.8420620257402964    -6.734913793103449e-12    
  -5.660344827586209e-13    -1.3113879310344828e-11    5.39566174668308    
  PRIMCOORD    
  4    1    
  Si    8.169469048117496e-06    1.8947124594298594    3.034378962749079    
  Si    1.6408649854299466    0.9473632957981496    0.3365480495647133    
  Si    8.169470281039818e-06    1.8947124594290774    5.0591136572729    
  Si    1.6408649854352721    0.947363295819198    2.361282823765312    
  BEGIN_BLOCK_DATAGRID_3D    
  3d_datagrid_density    
  BEGIN_DATAGRID_3D#0    
  15    15    23    
  0.0    0.0    0.0    
  3.2817225295937535    1.3729510959568967e-05    -3.4422413793103454e-13    
  -1.6408493746909132    2.8420620257402964    -6.734913793103449e-12    
  -5.660344827586209e-13    -1.3113879310344828e-11    5.39566174668308    
  0.11795113345638855    0.1311847997913915    0.17532150527772386    0.2619113955212067    0.3998982320140797    
  0.5735955672525959    0.7241844530080269    0.7829914398582728    0.7241845094014595    0.5735955389211266    
  0.3998982600737634    0.26191140368719046    0.17532148641025544    0.13118477698170414    0.11795113345638855    
  0.13118477633773323    0.13118520590887245    0.15980508855286746    0.22483014986021135    0.3359269442959352    
  0.48621998168818104    0.6309689607667153    0.7126079281515794    0.7126888772835522    0.6309100190052249    
  0.4861630036426375    0.33597954729534507    0.2248372250863796    0.15979346043521803    0.13118477633773323    
  0.17532148202273404    0.15980512019432322    0.17530836700516716    0.2248272257734263    0.31362063857007916    
  0.4305054158842608    0.5228861979036311    0.5455056380470547    0.53865761207598    0.5455097097147394    
  0.5229936402470214    0.430498556281113    0.31356039282231984    0.22483726716929553    0.17532148202273404    
  0.2619113806413629    0.22483017167071864    0.2248271941216486    0.2619372304131725    0.3359196290558896    
  0.4304975082452061    0.47665085952176256    0.4133796272899643    0.3280202005165633    0.32800154564209566    
  0.413308233976278    0.47663631430198133    0.43049851883817    0.3359795348933968    0.2619113806413629    
  0.3998983037747039    0.3359270146757428    0.31362063994779904    0.33591955804881507    0.39995676811981895    
  0.4861526575403467    0.5229563570052226    0.4133675320870783    0.24776352661017234    0.1833806184505803    
  0.2478190983898016    0.41330831304023724    0.5229935770062547    0.48616306102468654    0.3998983037747039    
  0.5735954660017333    0.4862199968065488    0.43050548088830026    0.430497471851997    0.4861526278482154    
  0.5736274280169633    0.6309698194060259    0.5454945839918427    0.32802148390637764    0.1834039556132292    
  0.18338065367563725    0.32800156651377643    0.5455097242220559    0.6309099655276671    0.5735954660017333    
  0.7241845375625482    0.6309689033160933    0.522886227070746    0.47665085162040843    0.5229562811476679    
  0.630969750366322    0.7241293100600587    0.712742772330635    0.5386421503973378    0.3280214571286382    
  0.24776352970427276    0.32802022494170613    0.5386575389164884    0.7126889493193512    0.7241845375625482    
  0.7829915430339051    0.7126079659218238    0.5455056909957183    0.4133796224814266    0.41336753691490447    
  0.5454945052960709    0.7127426956527286    0.7828814812976542    0.7127426815853642    0.5454945300703611    
  0.41336755304373535    0.41337966321934944    0.5455056036079041    0.7126079314924758    0.7829915430339051    
  0.7241845548317648    0.7126889066642348    0.5386575944372213    0.32802021451415203    0.24776353819493876    
  0.3280214846763837    0.5386421662686166    0.7127427337275274    0.7241293699229344    0.6309697796242407    
  0.5229563366697352    0.47665094327993823    0.5228862083965116    0.6309689806963621    0.7241845548317648    
  0.5735954466246727    0.6309100678795897    0.545509753618704    0.3280015651107514    0.18338063991939216    
  0.18340400900418985    0.32802150111643735    0.5454945860707704    0.6309697300761888    0.5736273622903625    
  0.4861526587824488    0.4304975338403359    0.43050541957436367    0.48621989408469196    0.5735954466246727    
  0.3998982266393934    0.4861631233959711    0.5229935396593706    0.4133082477509262    0.24781912146024127    
  0.18338066189498922    0.24776354124405614    0.41336753837103707    0.522956319028651    0.48615258082573715    
  0.3999568229438453    0.335919583145528    0.3136206163995373    0.3359270118662477    0.3998982266393934    
  0.2619114109823489    0.3359795397823953    0.4304984855074433    0.4766362643791953    0.4133082671212895    
  0.32800161477564355    0.32802023795608365    0.4133796744241762    0.47665089446384634    0.4304975018539499    
  0.335919636978754    0.26193724641895744    0.22482722387561038    0.2248301447865474    0.2619114109823489    
  0.17532150104868247    0.22483728348434717    0.31356041084958947    0.43049851755698315    0.5229936411306997    
  0.5455096998958778    0.538657618553529    0.5455056237182528    0.5228862499738473    0.43050543337326713    
  0.313620674637253    0.22482720682390514    0.17530835509780682    0.15980510065948236    0.17532150104868247    
  0.13118477956550648    0.1597934600711093    0.22483725111166547    0.3359794586140256    0.4861630358789057    
  0.6309100143213953    0.7126889306395967    0.7126079160589904    0.6309688589913535    0.48621994418949777    
  0.3359269397776852    0.22483014018983502    0.15980505681102147    0.13118519082326424    0.13118477956550648    
  0.11795113345638855    0.1311847997913915    0.17532150527772386    0.2619113955212067    0.3998982320140797    
  0.5735955672525959    0.7241844530080269    0.7829914398582728    0.7241845094014595    0.5735955389211266    
  0.3998982600737634    0.26191140368719046    0.17532148641025544    0.13118477698170414    0.11795113345638855    
  0.1152304456170754    0.12756079339851195    0.1685514430704235    0.24833535028653034    0.37392364073455076    
  0.5302554272031719    0.6650857255740142    0.7177104379375688    0.6650145261045268    0.530235060413315    
  0.37397050234670276    0.2483397830405371    0.16853630735637984    0.12756253954430039    0.1152304456170754    
  0.127562546171796    0.1275582796308766    0.15544713358996604    0.21856917121532699    0.32466531727822856    
  0.46133497864461787    0.5793561215131947    0.6355823092414381    0.6356710649603079    0.5793556138635418    
  0.46127468725979004    0.32467455309083115    0.21859389475258018    0.15543866912237872    0.127562546171796    
  0.168536304398698    0.15289661457360207    0.16853397668775358    0.218584027493582    0.30682319600437113    
  0.4139296841114464    0.47095729962041216    0.4447894884731483    0.416863390319507    0.444804517524947    
  0.4710213516680919    0.41394952483887704    0.3067763740383936    0.21859393348126785    0.168536304398698    
  0.24833976764551227    0.21010618507790052    0.21009248694106317    0.2483555304530437    0.32464840007442175    
  0.41392919808122414    0.42248308693730735    0.3020753812815486    0.1948878588791289    0.19485898188048614    
  0.30201545143893    0.4224850789162197    0.41394948131461984    0.32467449869665316    0.24833976764551227    
  0.37397049608022354    0.30776672086652773    0.2853668296392548    0.3077681252809808    0.3739934984316969    
  0.46125643313710574    0.4710352375011292    0.30205283730493443    0.12497062679242507    0.07334681697505942    
  0.12501132132619924    0.30201548205616857    0.4710213349622763    0.4612747286740581    0.37397049608022354    
  0.5302349720199454    0.44316445570325497    0.3914152916797964    0.3914109382788278    0.4431427936373951    
  0.5302648652686898    0.5793651966326533    0.44477838707410394    0.19489504424746604    0.07335115582043167    
  0.0733468462913225    0.194858999145919    0.4448045507624205    0.5793555162130418    0.5302349720199454    
  0.6650146488782765    0.5841366345461102    0.5008539093733352    0.4678269049710649    0.500865229333437    
  0.5841472186863647    0.6650074239543616    0.6357242617774372    0.4168300970627909    0.19489503737794742    
  0.1249706074598758    0.1948878670247742    0.4168633168429842    0.6356711989682604    0.6650146488782765    
  0.717710486585295    0.6738445705541635    0.5727743980221357    0.4926193305673114    0.49264227672677985    
  0.5727751640514644    0.6739043166264773    0.7176256123372632    0.6357242028761451    0.4447783649777522    
  0.30205284581663555    0.3020754278564372    0.44478947358101667    0.6355823451823308    0.717710486585295    
  0.6650858191095819    0.6738620200239076    0.5943658406741515    0.4782511305542167    0.4248604586992007    
  0.47825009335359675    0.5943793257548602    0.6739043863982359    0.6650075073292323    0.5793652290279678    
  0.4710351661768165    0.4224831630164577    0.47095732787532224    0.5793561262319057    0.6650858191095819    
  0.5302552918694832    0.5840565598087686    0.5727754104747842    0.47825541865390914    0.38645943965871027    
  0.38646729198195956    0.47825009749895736    0.5727751775346939    0.5841472073003949    0.5302647854184116    
  0.46125642779308823    0.41392917760657527    0.4139297005264124    0.4613350176303842    0.5302552918694832    
  0.37392365073210526    0.44314014891110237    0.5009336480264449    0.4925968491158277    0.4248675152008158    
  0.3864594106503359    0.4248604409726668    0.492642283306613    0.5008652905723289    0.44314280769933684    
  0.37399353373611877    0.32464836671805314    0.3068231872630366    0.32466538741426515    0.37392365073210526    
  0.248335355741279    0.3078270343558628    0.3914083853207468    0.46777947958363747    0.4925968654300917    
  0.4782554226364398    0.47825111932574427    0.49261938839912583    0.46782697135012713    0.3914109510008525    
  0.3077681650288037    0.24835556869057202    0.21858403822437567    0.2185691863404201    0.248335355741279    
  0.1685514176186991    0.21010485347147842    0.2853069984959453    0.39140841077146754    0.5009336850943042    
  0.5727753613358336    0.5943658928170162    0.5727743491165022    0.5008539360528301    0.3914152386742404    
  0.2853668913760298    0.2100924965201978    0.16853396968851764    0.15544713370675117    0.1685514176186991    
  0.12756078160715706    0.15287714839728178    0.21010482710088588    0.3078269677029364    0.4431400415441299    
  0.5840565607064698    0.673862019815752    0.6738444138387835    0.5841366403139224    0.44316441161809644    
  0.3077666548610166    0.21010617734747802    0.15289654918515805    0.1275582695159198    0.12756078160715706    
  0.1152304456170754    0.12756079339851195    0.1685514430704235    0.24833535028653034    0.37392364073455076    
  0.5302554272031719    0.6650857255740142    0.7177104379375688    0.6650145261045268    0.530235060413315    
  0.37397050234670276    0.2483397830405371    0.16853630735637984    0.12756253954430039    0.1152304456170754    
  0.10801120088224805    0.11816422301078149    0.151564918793148    0.2152784461229827    0.31302751604585805    
  0.43188263958095807    0.5330975237177658    0.5725586179153349    0.5330237117786517    0.43186597515480574    
  0.31308314499789214    0.21527777160248157    0.1515527605254748    0.11816615389449878    0.10801120088224805    
  0.11816613948926705    0.11816258282362008    0.14233472083844922    0.19641999824617612    0.2859115789375885    
  0.39875564704662503    0.4940630731298294    0.5389908675979524    0.5390712298188023    0.49407346828059906    
  0.39870262431343195    0.28591292196079254    0.19644505956759795    0.14232819601474858    0.11816613948926705    
  0.15155277959139635    0.13751256609097437    0.15155074020507928    0.19643850774679292    0.2756625005730066    
  0.37260357635489444    0.4264249213654879    0.4066478081470231    0.3832604511145722    0.40666190645167855    
  0.4264799740469536    0.3726187476379393    0.27563312784567184    0.1964450612257945    0.15155277959139635    
  0.2152777792659785    0.18052429038065393    0.1805118168897184    0.21528881444477785    0.2858984618076797    
  0.37260026056471723    0.39282837499481016    0.2943359447254299    0.19849097709275673    0.19846313991555076    
  0.2942718362640574    0.392845839304847    0.372618725359468    0.2859128839884797    0.2152777792659785    
  0.31308314536443427    0.25240028007781934    0.23234309389569402    0.2524025043419446    0.3130887185533594    
  0.3986879794643878    0.4265025056216565    0.2943051376755528    0.1351341641333419    0.08462348205529163    
  0.13518012271435878    0.2942718907156465    0.4264799673447644    0.3987026552711446    0.31308314536443427    
  0.43186593133009377    0.3510573790880328    0.30644987522343475    0.30644891359525966    0.3510533642365924    
  0.4318868003159936    0.4940667025909988    0.40663864005638706    0.1984971282097027    0.08463096247524632    
  0.08462350478421315    0.19846313328529472    0.40666190336696784    0.49407341534905397    0.43186593133009377    
  0.5330237609213169    0.4551979407037923    0.39061584726824844    0.36720713157464024    0.39060870196394826    
  0.455207826675119    0.5330319114943499    0.5391091091642585    0.383229309419538    0.19849711822981816    
  0.13513414627159803    0.19849101331724914    0.3832603876540692    0.5390711703416274    0.5330237609213169    
  0.5725586768073526    0.5234945026396186    0.4584318956626855    0.415508319327399    0.4155389893807887    
  0.45843047237599394    0.5235223051334845    0.5725016538372291    0.5391091362661046    0.40663863339735157    
  0.2943051393029382    0.2943359708668746    0.40664774349390453    0.5389908830819379    0.5725586768073526    
  0.5330975818782918    0.5234922259655214    0.4839330264566811    0.43888874998733385    0.41847631707132416    
  0.43888878486098676    0.4839472823748174    0.5235223296443986    0.5330319168811501    0.4940667064294424    
  0.4265024771447074    0.3928284424954847    0.4264248846968413    0.49406308508800373    0.5330975818782918    
  0.4318825613701183    0.4551294702644577    0.45843087994051473    0.43889503233379906    0.4150723644040193    
  0.41506708042917373    0.43888882223676207    0.45843046809632393    0.4552077832589514    0.43188675836916857    
  0.398688008637369    0.3726002718011008    0.3726035427008491    0.39875566808582197    0.4318825613701183    
  0.3130275195943761    0.35104899043066856    0.3906681777437661    0.4155151240247112    0.41845957728366506    
  0.4150724017307235    0.4184763119753232    0.4155390301756697    0.3906087373691291    0.3510533662341748    
  0.31308873639152995    0.2858984035967862    0.27566248275571364    0.2859116036618247    0.3130275195943761    
  0.21527844037729799    0.25244917272590983    0.30644937412824175    0.3671514394618442    0.4155151368528471    
  0.43889503361541454    0.43888871700185655    0.4155084042064533    0.36720720541736007    0.3064489063419455    
  0.2524025522384801    0.21528883353843445    0.19643851742290377    0.19642000829363537    0.21527844037729799    
  0.15156490916208434    0.180520881100836    0.23229095426269145    0.30644941211844473    0.3906681821994133    
  0.45843076458388965    0.4839330777104725    0.4584318607883619    0.3906158322650837    0.3064498079295053    
  0.2323431247058768    0.18051181863823226    0.15155071459131858    0.14233472306731731    0.15156490916208434    
  0.1181642163021895    0.13749685253457655    0.18052087140516743    0.25244911959588073    0.3510489289142285    
  0.45512948276891757    0.5234922279043307    0.5234944087772989    0.45519791835168727    0.35105732045674515    
  0.2524002127809097    0.180524285627189    0.13751252304754472    0.11816258135692843    0.1181642163021895    
  0.10801120088224805    0.11816422301078149    0.151564918793148    0.2152784461229827    0.31302751604585805    
  0.43188263958095807    0.5330975237177658    0.5725586179153349    0.5330237117786517    0.43186597515480574    
  0.31308314499789214    0.21527777160248157    0.1515527605254748    0.11816615389449878    0.10801120088224805    
  0.09914353165103963    0.10684622574910795    0.13171514248275587    0.1779627890784905    0.24743315499166332    
  0.33073686482849124    0.40146638476804186    0.4292107631203044    0.4014287969416078    0.3307318742808954    
  0.24746869688918732    0.17795832448825916    0.1317129210462021    0.10684716018440045    0.09914353165103963    
  0.10684716281854591    0.10684792003639011    0.1264717456352406    0.16966880195584827    0.2409416002677197    
  0.33361372142718815    0.41981628535492865    0.46812209067657057    0.46817784892944436    0.41981374023821844    
  0.3335820833245074    0.24095255358396372    0.16967909157613026    0.12647075858923584    0.10684716281854591    
  0.1317129396589857    0.11983645723040702    0.13170908487914565    0.1696761863145488    0.23843620437365565    
  0.33185233589362667    0.41227822640067546    0.4421417862173324    0.4428132499929535    0.442151670906901    
  0.41233107672138614    0.3318473056672405    0.2384285566298257    0.1696791105210083    0.1317129396589857    
  0.17795831732584008    0.1482960230085954    0.14828824132443147    0.1779667661378232    0.2409395031978677    
  0.3318445341524137    0.40370314988882877    0.3935715648169833    0.3440202944466846    0.3440076477663853    
  0.3935005816303236    0.40373575649040344    0.3318472775727416    0.24095254589593912    0.17795831732584008    
  0.24746871652299857    0.1946403079541046    0.17773990600533296    0.1946409187808198    0.2474694806348458    
  0.33357394194413365    0.4123352291294182    0.39354242548223367    0.29389049674135864    0.24385829615799853    
  0.29394856892671495    0.39350060645011237    0.4123310653640094    0.33358209904209973    0.24746871652299857    
  0.33073184611422    0.2567146205348604    0.2194693792730614    0.21947056981226173    0.2567098365507134    
  0.33074672453997256    0.41981096916206084    0.4421431990281216    0.3440178355884648    0.2438857974147    
  0.24385832891332748    0.3440076651655545    0.4421516711700289    0.4198137734235494    0.33073184611422    
  0.4014288091479486    0.3210130625970695    0.267662890674025    0.24957060371418996    0.26766288145562117    
  0.32101348032567917    0.4014363185935324    0.46819361025507655    0.4428051569853755    0.34401782444182166    
  0.29389044545846005    0.34402032623470546    0.4428131726491101    0.46817784787925365    0.4014288091479486    
  0.42921078709773414    0.3626907430797136    0.30799637894160187    0.27809944418198945    0.2781162178781802    
  0.3079928500681564    0.3627116217920737    0.4291787205328104    0.46819361110426594    0.44214321209787744    
  0.3935423791912549    0.3935716048070886    0.44214177686814793    0.4681220777030754    0.42921078709773414    
  0.4014664778104337    0.3626931253158911    0.32367996478046646    0.29554697981961303    0.2848626851880466    
  0.29554663617527116    0.3236873061790625    0.36271164717025556    0.401436371575314    0.41981092675456144    
  0.4123352156727615    0.4037031641897683    0.41227816058424577    0.419816321145939    0.4014664778104337    
  0.3307368560959617    0.3209734766111913    0.30799538832360995    0.2955501778868036    0.2868816342290525    
  0.2868837843073572    0.29554666023686443    0.30799288365994015    0.32101350710995336    0.33074669360860065    
  0.3335739620498849    0.33184452211996324    0.3318522954135024    0.3336136777926959    0.3307368560959617    
  0.24743315738664498    0.2567109733921812    0.2676909598437048    0.2781016289371821    0.2848567783817522    
  0.2868816650176665    0.28486269026697186    0.2781162393169547    0.267662927161503    0.2567098105847646    
  0.24746948696589366    0.24093947337122723    0.2384362144733012    0.2409416446314379    0.24743315738664498    
  0.17796280295587907    0.19466763309727864    0.21946775129726262    0.24954337127673315    0.27810163281716194    
  0.2955501904610796    0.29554700056663263    0.2780995256415836    0.2495706660127434    0.21947056689628922    
  0.1946409478293178    0.1779667755623311    0.16967619354811833    0.16966881718694649    0.17796280295587907    
  0.13171510967906797    0.14829108448806394    0.17771133354782062    0.21946775135119204    0.26769098098888805    
  0.30799537950334976    0.32368000143737724    0.3079963599567156    0.2676628818491181    0.2194693022361242    
  0.17773993315000464    0.14828823375720906    0.1317090477066735    0.12647174762530308    0.13171510967906797    
  0.10684623010531442    0.11983172938889651    0.14829106939953698    0.19466759768077474    0.2567109436600488    
  0.32097347576443674    0.3626930898869686    0.3626907264702399    0.3210130060135931    0.25671461938375445    
  0.19464027741571116    0.14829600378320726    0.11983641741978053    0.10684790173581697    0.10684623010531442    
  0.09914353165103963    0.10684622574910795    0.13171514248275587    0.1779627890784905    0.24743315499166332    
  0.33073686482849124    0.40146638476804186    0.4292107631203044    0.4014287969416078    0.3307318742808954    
  0.24746869688918732    0.17795832448825916    0.1317129210462021    0.10684716018440045    0.09914353165103963    
  0.091692996876072    0.09742295631040038    0.11565813882988105    0.14899822797781936    0.19851846037991672    
  0.2577563996973996    0.3087134822334029    0.3290809265257154    0.30870688928936746    0.2577564133526414    
  0.1985297770020011    0.14899804235411737    0.11565918550399085    0.09742319933720557    0.091692996876072    
  0.09742319890884815    0.09742541778438174    0.1133185574899086    0.14813218644214937    0.2059350886892938    
  0.28400798911334324    0.36367347015863094    0.414521415778119    0.4145311344537728    0.36367474181413345    
  0.28400101585653437    0.20594369892227093    0.1481339030646882    0.11332223101578776    0.09742319890884815    
  0.11565919570187747    0.10561360464796896    0.11565797819009993    0.1481305266282619    0.2089174693651968    
  0.2995603521632679    0.40205808925007974    0.47931598448193335    0.5062971307442036    0.47933372396320234    
  0.4020745568430596    0.29956370247471475    0.20891709694650032    0.14813392295095687    0.11565919570187747    
  0.14899803756389388    0.12346069875962538    0.123457925320878    0.1489994615484227    0.20593837594012382    
  0.29956201794118137    0.4150723593990923    0.5066382182261308    0.5443138930558621    0.5443199222362587    
  0.5066062224209261    0.41508914450442813    0.29956368271375655    0.2059436824013466    0.14899803756389388    
  0.19852978848318387    0.1521939814260595    0.13794389779130284    0.15219412802228635    0.19852728658959384    
  0.2839983877689561    0.4020648228438485    0.5066297433134854    0.5477575020673083    0.5497147017385637    
  0.5477700703317964    0.50660623274335    0.402074525173367    0.2840010238081026    0.19852978848318387    
  0.25775641884784106    0.19007734914929622    0.15898616700429227    0.1589906413459133    0.19007235075091433    
  0.2577656744309039    0.363676051167019    0.47933832312820224    0.5443103948778231    0.5497132209011082    
  0.5497147408223693    0.5443199702494584    0.4793337171719262    0.36367479938621494    0.25775641884784106    
  0.30870692177589304    0.22882690502328573    0.1835536376999499    0.16915119810936172    0.18355380075910693    
  0.22882712918696496    0.30871052171299657    0.41453550192711575    0.506306980225935    0.5443103511038381    
  0.5477574124411104    0.5443139267977293    0.5062970470855377    0.4145311133936372    0.30870692177589304    
  0.3290809079236939    0.25402097380693506    0.20428797426844478    0.1802061809217337    0.1802106739675728    
  0.20428924123101874    0.25402748921910245    0.3290771851446684    0.4145355185696008    0.4793382903172948    
  0.5066297342348096    0.5066382206950171    0.4793159510244799    0.4145213539194293    0.3290809079236939    
  0.3087135061383468    0.25401619404772424    0.21247925737422402    0.18762705943684693    0.17928342280022655    
  0.18762847958145987    0.21248179358089406    0.2540275265955324    0.30871051809823524    0.3636760172333013    
  0.402064748429752    0.4150723749742371    0.4020579946637979    0.36367353200833574    0.3087135061383468    
  0.2577563817594865    0.22881993060946668    0.20428839587168943    0.1876294391808433    0.17919031082482792    
  0.179190913449891    0.1876284477116332    0.20428928722870573    0.22882711776053694    0.2577656307992319    
  0.2839983823710287    0.29956199224338187    0.2995603049103575    0.2840079557789786    0.2577563817594865    
  0.19851846009383614    0.19007350162580133    0.1835562124279724    0.18020658522163974    0.1792793970531797    
  0.17919033916987948    0.17928340269377158    0.18021070517573073    0.18355381709073543    0.19007236610573308    
  0.19852731546283428    0.2059383328979517    0.20891749076349173    0.20593512767361538    0.19851846009383614    
  0.14899822589058404    0.152199425951165    0.15898785286828165    0.16914561996453542    0.18020658593174277    
  0.18762945553696753    0.18762708286961946    0.1802062147950596    0.16915124966082073    0.15899062058104646    
  0.15219416039453473    0.14899945913585808    0.14813051589364576    0.14813216851432262    0.14899822589058404    
  0.11565810792057928    0.12345802289992679    0.13793610646482626    0.1589878510294334    0.1835562112551739    
  0.20428836749467152    0.21247929387526462    0.20428795635443697    0.18355366006380358    0.15898610089062887    
  0.13794390879960156    0.12345792267761307    0.11565795296099785    0.11331855624163216    0.11565810792057928    
  0.09742296347623405    0.10561368321518502    0.12345802578302745    0.152199411578012    0.19007344970958562    
  0.2288199394235937    0.25401615699531116    0.25402094022271016    0.22882683900899195    0.19007732190240695    
  0.15219395407339292    0.12346065859790065    0.10561357328752786    0.0974254010465834    0.09742296347623405    
  0.091692996876072    0.09742295631040038    0.11565813882988105    0.14899822797781936    0.19851846037991672    
  0.2577563996973996    0.3087134822334029    0.3290809265257154    0.30870688928936746    0.2577564133526414    
  0.1985297770020011    0.14899804235411737    0.11565918550399085    0.09742319933720557    0.091692996876072    
  0.08752161355609901    0.0921638223739361    0.10700938406400094    0.13414617897171321    0.17417216604980443    
  0.2218855007298756    0.2632363524508765    0.2799730549713294    0.2632332511416684    0.22188681852335437    
  0.17417857287641633    0.1341469276348017    0.10700999693496696    0.09216425646074168    0.08752161355609901    
  0.09216425786011703    0.09216449313322117    0.10596230347488665    0.13654431714423354    0.18772457861083178    
  0.2578912383867398    0.3320492060625013    0.381433062075182    0.38144044333580773    0.3320472820587939    
  0.2578933627019496    0.187728850172199    0.13654797773383098    0.10596504586006474    0.09216425786011703    
  0.10700999581886107    0.09799272732492    0.10700971925455822    0.13654544549922337    0.19292896470483034    
  0.28035160729998687    0.38901864779312884    0.4846784751487248    0.5230680450566475    0.4846992771999686    
  0.38902654815151727    0.2803572769366091    0.19292914243897077    0.1365480006631199    0.10700999581886107    
  0.13414693304048575    0.11065115826926852    0.1106531521818733    0.13414240926267515    0.18772946933123608    
  0.2803489131742181    0.4109412800120311    0.550066625756186    0.6407005991532125    0.6407033140810553    
  0.5500525571422223    0.4109469410904608    0.28035726087552626    0.1877288461682929    0.13414693304048575    
  0.17417858500074088    0.1310500669684218    0.11805097305158785    0.13104973001169992    0.17417503688072913    
  0.2578935070886102    0.38901353470400163    0.550067248688072    0.6853255027420775    0.73674800674796    
  0.685326661849761    0.5500525854801617    0.3890265489022135    0.25789337716405486    0.17417858500074088    
  0.22188679828171343    0.15791682201360716    0.12987757265257274    0.1298787698845976    0.15791691514303677    
  0.22188865580344697    0.33205361693105073    0.4847006414783473    0.6406965043260764    0.736730853780507    
  0.7367480857937337    0.6407033791869151    0.48469930274810336    0.3320472928185145    0.22188679828171343    
  0.2632332550450944    0.18545816206887833    0.1443756766285368    0.1318265031817733    0.1443767700970905    
  0.18545654459412056    0.2632391716460723    0.38143842792317334    0.523080844906934    0.6406963961468157    
  0.6853254535197365    0.6407006379074421    0.5230679264693112    0.381440408486957    0.2632332550450944    
  0.27997305097187986    0.20363353551113572    0.1569187590206164    0.13564475148885666    0.13564841447906184    
  0.15691717758153317    0.20363944653694654    0.27997130643791057    0.38143840881267027    0.48470059734923593    
  0.5500672045327648    0.550066629218971    0.4846784012976441    0.3814330294313752    0.27997305097187986    
  0.26323632970993455    0.20363163746278257    0.16199421641333897    0.13879425651701266    0.13150604472754082    
  0.1387953504946971    0.16199618745793756    0.20363941292361534    0.26323917793111773    0.33205357076788805    
  0.38901350356895986    0.4109412814291895    0.3890185454011229    0.3320492274188736    0.26323632970993455    