#     DFTpy    
  CRYSTAL 
    
  PRIMVEC    
  4.317071390307474    -2.3718831999999995e-10    4.4957334620689647e-10    
  -2.3718831999999995e-10    4.317071390056621    2.1662617655172414e-10    
  8.215386068965517e-10    3.959228137931034e-10    7.908958454613846    
  PRIMCOORD    
  4    1    
  Si    2.1585356950714885    2.158535696216221    2.430377452885187    
  Si    8.004407292154247e-10    -7.407972260332827e-10    1.5241017717631276    
  Si    1.2276879385285118e-10    5.594788118389517e-10    6.384856678364696    
  Si    2.1585356957186654    2.1585356945763756    5.47858100688088    
  BEGIN_BLOCK_DATAGRID_3D    
  3d_datagrid_density    
  BEGIN_DATAGRID_3D#0    
  19    19    37    
  0.0    0.0    0.0    
  4.317071390307474    -2.3718831999999995e-10    4.4957334620689647e-10    
  -2.3718831999999995e-10    4.317071390056621    2.1662617655172414e-10    
  8.215386068965517e-10    3.959228137931034e-10    7.908958454613846    
  0.1382677493555463    0.1291616956190728    0.10617762293975495    0.07896006132778842    0.055392327673521764    
  0.03861523195676236    0.028138725102805132    0.022138769772517972    0.019136916957415432    0.018245562609904186    
  0.019136918244710064    0.022138772763308095    0.028138723070468566    0.03861523136333211    0.05539231673093626    
  0.0789600594737279    0.10617762468799126    0.1291616796811608    0.1382677493555463    0.12916169779800615    
  0.12082126370859636    0.09970805386609127    0.07461019283806493    0.052776610859089884    0.0371327223388878    
  0.027306505988608277    0.021666232278111756    0.018843314755491385    0.018003703379776744    0.018843311815021253    
  0.021666238507414316    0.0273064996695725    0.037132721711853216    0.05277659858858818    0.07461019567704308    
  0.09970804895061094    0.12082127609826689    0.12916169779800615    0.106177617049896    0.09970804584897558    
  0.08321507254225595    0.06341489458268038    0.045974968953546656    0.03326817377718392    0.025162321776216804    
  0.02046911909148928    0.018108611725930642    0.017403955234051385    0.0181086093569418    0.020469124756650206    
  0.025162317148549034    0.033268173648283765    0.045974971067523    0.06341491511962073    0.08321506840492733    
  0.09970804113869859    0.106177617049896    0.07896006502484486    0.0746102115703728    0.06341489443841175    
  0.04976306154329598    0.03751737464908742    0.02839535501176684    0.022455962801835788    0.018989512662890576    
  0.017248963015174052    0.016731079901491388    0.017248959693802014    0.018989516261315478    0.022455961259205563    
  0.028395354044467216    0.037517374965688965    0.049763070735287934    0.0634148998337943    0.07461019262003238    
  0.07896006502484486    0.05539233378546993    0.052776624070389765    0.04597497816484531    0.03751737760667633    
  0.029758718984477364    0.02384473761102027    0.01993697468252468    0.017677904535884387    0.01657061811356709    
  0.016245078022969903    0.016570614440085858    0.017677911741827045    0.019936972096587333    0.023844745505283156    
  0.029758707606048505    0.03751737949885608    0.04597497432274767    0.05277661306875376    0.05539233378546993    
  0.03861522245524554    0.03713271101419728    0.03326816939083611    0.028395354758800916    0.023844743447024558    
  0.02035091859754482    0.01807828720873196    0.01684077204827809    0.0162841885981533    0.016127981840702126    
  0.01628418241247102    0.0168407736749609    0.01807828220284052    0.020350924220976698    0.023844740268448433    
  0.028395355340351813    0.03326817581215028    0.03713271965802275    0.03861522245524554    0.02813873063847591    
  0.027306498058629405    0.0251623097971882    0.02245595770508792    0.019936966042724803    0.01807828525235563    
  0.016983635005306284    0.01651758471152311    0.016412904170300193    0.016410435977709064    0.016412901611015843    
  0.016517590668762783    0.01698363089353037    0.018078282020960054    0.019936964075198325    0.02245596121583589    
  0.025162310675548024    0.027306495649478277    0.02813873063847591    0.022138774127929566    0.021666240007647566    
  0.020469126809696186    0.018989517011639905    0.017677907112458643    0.016840775856142094    0.016517600365161294    
  0.01657656598481839    0.016795080888357485    0.016911403334760544    0.01679508250199174    0.01657657546937989    
  0.01651758409047932    0.016840780447171036    0.017677907124554124    0.01898951781710779    0.020469123109607083    
  0.021666232666122623    0.022138774127929566    0.01913691192689924    0.018843311917810544    0.018108613769132205    
  0.017248960073225603    0.01657061677384971    0.016284181375418046    0.016412912006139195    0.01679507984796959    
  0.017192708952482604    0.017364066841542264    0.01719271999488588    0.016795078006770135    0.016412910789373337    
  0.016284189001800734    0.01657061819959231    0.01724896614498653    0.018108619145512588    0.018843311112784394    
  0.01913691192689924    0.018245561967137124    0.018003702812362174    0.01740394979216066    0.016731072365477877    
  0.016245071730773906    0.016127978325328897    0.016410441218231382    0.01691140998662971    0.017364067391138088    
  0.01754624793093778    0.017364064938241226    0.01691141376199374    0.016410444333499412    0.01612797486354144    
  0.016245068743014943    0.016731082181338314    0.01740395263783355    0.018003700785825    0.018245561967137124    
  0.019136919209366426    0.018843314893641924    0.018108614400589522    0.01724896400700688    0.016570621786356207    
  0.01628418008762289    0.01641290242688133    0.01679507487851725    0.01719272230128244    0.017364060459178585    
  0.017192722265865157    0.016795085284175646    0.016412902546583723    0.016284185448708202    0.01657061808010303    
  0.017248962472777418    0.01810861695879698    0.01884331400845869    0.019136919209366426    0.022138770919131988    
  0.021666233685708636    0.020469118716474808    0.018989518595169067    0.017677905092612658    0.0168407765748251    
  0.016517590919861932    0.016576573010836763    0.016795076088244043    0.01691141248914325    0.016795072275323543    
  0.016576577188728663    0.016517585156039065    0.01684077171018909    0.01767790662096848    0.018989520228251247    
  0.020469122689089226    0.021666238463050536    0.022138770919131988    0.028138734731321776    0.027306501491590026    
  0.025162314533117885    0.022455955953285065    0.019936970134337175    0.018078282836951107    0.016983637894983025    
  0.01651758212437123    0.016412899646928797    0.016410436685560418    0.01641290797547091    0.01651758842670434    
  0.016983627853555342    0.018078284398690213    0.019936970800954815    0.02245595811462572    0.025162320740009583    
  0.027306487123017864    0.028138734731321776    0.038615225648445745    0.03713273148380028    0.033268160962078484    
  0.028395358164401    0.023844740919252025    0.02035092530044953    0.018078285475084978    0.016840769510942794    
  0.01628418460016318    0.01612797635190577    0.016284173242124743    0.01684078300095437    0.018078280204781312    
  0.020350926795479823    0.02384473462910665    0.02839535530972112    0.03326817303709417    0.03713271591495555    
  0.038615225648445745    0.05539233208352671    0.05277660253115834    0.0459749694006337    0.03751736489856124    
  0.02975871692509972    0.023844732446538744    0.019936972892589035    0.017677900671925106    0.016570619080085967    
  0.016245077925666204    0.01657061803914837    0.017677909500117855    0.019936973203418865    0.02384473831778501    
  0.029758718951784943    0.03751737835512223    0.045974970397116094    0.05277660380133158    0.05539233208352671    
  0.07896004830010278    0.07461022211045575    0.06341488099300568    0.04976309004934626    0.03751737549179739    
  0.028395349431703115    0.02245596096192868    0.01898951445774596    0.017248962810491642    0.016731081778908245    
  0.01724895711146773    0.018989525479612808    0.0224559546760518    0.028395351205845052    0.037517372365878585    
  0.049763073618307695    0.06341489689958138    0.07461018153537917    0.07896004830010278    0.10617763348767048    
  0.09970803867181022    0.08321505963930059    0.06341490525153072    0.04597498876620703    0.03326816970220472    
  0.025162324608018295    0.020469115814896896    0.01810861349928633    0.017403953028838955    0.018108609064830004    
  0.020469124804554303    0.02516231589847688    0.03326817414727919    0.04597498879634584    0.06341489576753397    
  0.08321507004134449    0.09970802963023638    0.10617763348767048    0.12916170330292598    0.12082129009120023    
  0.09970802262608304    0.07461019516061766    0.05277661629896168    0.03713271301589357    0.02730651291721986    
  0.021666228212831457    0.01884330698359023    0.01800370339505502    0.01884331146212746    0.021666235331340947    
  0.0273065035618176    0.037132716827069805    0.052776606410823886    0.07461021970544249    0.09970804464056483    
  0.12082128827300657    0.12916170330292598    0.1382677493555463    0.1291616956190728    0.10617762293975495    
  0.07896006132778842    0.055392327673521764    0.03861523195676236    0.028138725102805132    0.022138769772517972    
  0.019136916957415432    0.018245562609904186    0.019136918244710064    0.022138772763308095    0.028138723070468566    
  0.03861523136333211    0.05539231673093626    0.0789600594737279    0.10617762468799126    0.1291616796811608    
  0.1382677493555463    0.16423063163134022    0.1530006081206132    0.12472269424581468    0.09134168094336448    
  0.0626597190069677    0.04245555845081105    0.030018896532521128    0.023059603788224643    0.019628635702605528    
  0.0186033843060443    0.019628635129237442    0.023059603232606436    0.030018900872603668    0.04245556819332312    
  0.06265971792091934    0.09134169572897803    0.1247227305612047    0.15300058707420672    0.16423063163134022    
  0.1530006046699924    0.14272092607673464    0.11676735027370308    0.08602005095054599    0.059490279966261925    
  0.04070870396348157    0.02908939562936413    0.02256242209171451    0.01933653196223641    0.01837179079113746    
  0.019336531879692895    0.022562428021627452    0.029089389492639083    0.0407087024567514    0.05949028048748225    
  0.08602004770721311    0.11676735569908755    0.1427209923932771    0.1530006046699924    0.12472271894342699    
  0.11676734361973475    0.09657444266755483    0.07243075732634754    0.05134493258280136    0.036199804788292156    
  0.026694259550485388    0.021290259910356407    0.018598488784090064    0.017790657508755806    0.018598482461778764    
  0.021290267114165155    0.02669425205545647    0.036199803570417896    0.05134493727087137    0.07243076306304666    
  0.09657443148905058    0.11676730504635832    0.12472271894342699    0.09134166314116496    0.08602005177683036    
  0.07243075948179059    0.055976147526457895    0.04133649368536526    0.030585985905834567    0.023698167214217872    
  0.01973002321129187    0.01774746693881174    0.017155015705879694    0.017747461455227917    0.019730027429227665    
  0.023698163878868563    0.030585986071695694    0.041336505996530166    0.05597615494294376    0.07243075291190176    
  0.08602003054037649    0.09134166314116496    0.06265974345759381    0.05949029948173709    0.05134493392354793    
  0.041336500657902814    0.032240042128918595    0.025401105639266234    0.020947606726548055    0.018387100428049252    
  0.01713269217075088    0.01676579524689087    0.01713268784924942    0.018387096966999018    0.020947605383984314    
  0.02540110889343348    0.03224003845433336    0.04133650198436733    0.05134493144146514    0.0594902832468028    
  0.06265974345759381    0.04245555603681723    0.040708695143808996    0.03619979792253142    0.030585985664589678    
  0.025401107971045077    0.02146924627548096    0.018946077720907326    0.017577377649494533    0.016970680233495825    
  0.01680811767557691    0.016970680534862774    0.017577384475102036    0.0189460770817805    0.021469249844372044    
  0.025401104511826755    0.030585987213390592    0.03619980287118886    0.04070870497173578    0.04245555603681723    
  0.03001890363790894    0.029089385898334645    0.0266942483405665    0.023698160228624966    0.02094759143635031    
  0.01894607765450134    0.017800712863449544    0.017345924215972933    0.01727229740838964    0.017287527939935855    
  0.01727229469909525    0.017345918815241057    0.017800709432835553    0.018946073732150525    0.02094759062155976    
  0.023698168153179707    0.026694251197497146    0.029089380477544568    0.03001890363790894    0.023059605414044653    
  0.022562429222194792    0.021290268700066436    0.01973002702560523    0.01838709969728615    0.017577380204936592    
  0.017345926870297422    0.017531076333895605    0.01784684326661277    0.01799601590578987    0.01784683335544393    
  0.01753109122334221    0.017345926060214043    0.017577388697707346    0.018387094631155988    0.01973002463341357    
  0.021290264321754536    0.022562419397762965    0.023059605414044653    0.019628630156810215    0.019336533800485108    
  0.018598484459947356    0.017747464330530417    0.01713269170128822    0.01697068246967101    0.01727230147022032    
  0.017846819273963654    0.018392338368106654    0.01861736932085732    0.018392330393378703    0.017846825555377685    
  0.017272301493798745    0.016970681478469776    0.017132681852865084    0.01774747037187485    0.01859849117479731    
  0.019336530326430294    0.019628630156810215    0.01860338362382895    0.01837178922227061    0.01779065144985878    
  0.017155007560208105    0.016765793162526896    0.016808116343413344    0.017287523525303262    0.017996017341509584    
  0.018617372319250244    0.01886644095232172    0.01861736966527797    0.017996019849547587    0.017287530978086163    
  0.01680811593658113    0.01676579120391238    0.017155015721951883    0.017790655662283345    0.018371787676113853    
  0.01860338362382895    0.019628639056709557    0.019336534920198354    0.018598487742470863    0.017747469748952423    
  0.017132686709248304    0.016970682336256628    0.017272294919140313    0.01784683536929202    0.018392336513397403    
  0.018617366698154083    0.01839233746196798    0.017846839051543745    0.017272297553304443    0.016970682104205267    
  0.017132685633323954    0.01774746806183572    0.01859848626923901    0.019336530103469064    0.019628639056709557    
  0.023059605407795714    0.022562420997672215    0.021290264882911837    0.019730023953211398    0.018387099178966814    
  0.017577378265040883    0.01734592334899639    0.017531078167048422    0.01784683175775786    0.017996030944218665    
  0.01784683945054037    0.01753108885894754    0.017345926745587912    0.0175773846032754    0.0183870993944454    
  0.01973002893515728    0.02129026566589468    0.022562423932857078    0.023059605407795714    0.03001890267910118    
  0.029089388861196018    0.026694248136186222    0.023698162585829564    0.02094759453337587    0.018946074774423095    
  0.017800708746049842    0.01734592470309821    0.01727229118212904    0.01728753065303132    0.01727228487412087    
  0.01734592631433984    0.017800707943831925    0.018946076157880742    0.02094759184630567    0.023698162660639684    
  0.026694252218963974    0.029089376909927345    0.03001890267910118    0.04245557315883126    0.040708707682993964    
  0.03619979519002791    0.03058598758752312    0.025401115570193138    0.021469242983326985    0.018946082345454574    
  0.01757737663609052    0.0169706831482042    0.0168081129873234    0.016970671985396618    0.017577391940529246    
  0.01894608072762423    0.021469243892007522    0.025401107432988613    0.030585981862741075    0.03619980855113742    
  0.040708702164555716    0.04245557315883126    0.0626597302434896    0.05949028376989312    0.05134492482358284    
  0.04133650341492682    0.032240039014077106    0.02540110500492046    0.02094759758462448    0.018387095314369703    
  0.017132685246764923    0.016765795809004332    0.01713268149005366    0.01838710296897793    0.02094759870069535    
  0.025401105309250636    0.03224003072003792    0.041336507956345137    0.05134493149861874    0.0594903024731583    
  0.0626597302434896    0.09134167427579178    0.08602006677686531    0.07243074270240601    0.05597616054324968    
  0.04133649874361079    0.03058598345813613    0.023698168691479886    0.019730025730425226    0.017747466456570944    
  0.01715501474235744    0.017747460517361886    0.019730032229810207    0.023698161997135637    0.030585979686005377    
  0.04133649640145211    0.055976149386945534    0.07243075309745393    0.08602002899988494    0.09134167427579178    
  0.12472272813251013    0.1167673661120368    0.09657440099986545    0.07243075822044423    0.051344940611320104    
  0.036199804445524696    0.02669426444045568    0.021290259949788223    0.018598481410650645    0.01779065457557082    
  0.01859847988216181    0.021290272404325242    0.02669424925677994    0.03619980688681214    0.05134494687160704    
  0.07243076566643589    0.09657445406997306    0.11676732486925806    0.12472272813251013    0.1530005814499734    
  0.14272096235999002    0.11676731707436826    0.08602002032654214    0.05949030212381285    0.04070869466759157    
  0.029089397119711    0.022562414286772973    0.01933652702791031    0.01837178941731875    0.01933653295817294    
  0.0225624232085345    0.02908939204507697    0.04070868538635404    0.059490287139411846    0.08602006096428388    
  0.11676733985082165    0.14272095349760072    0.1530005814499734    0.16423063163134022    0.1530006081206132    
  0.12472269424581468    0.09134168094336448    0.0626597190069677    0.04245555845081105    0.030018896532521128    
  0.023059603788224643    0.019628635702605528    0.0186033843060443    0.019628635129237442    0.023059603232606436    
  0.030018900872603668    0.04245556819332312    0.06265971792091934    0.09134169572897803    0.1247227305612047    
  0.15300058707420672    0.16423063163134022    0.2503670464114516    0.2325502768109419    0.18696426980537334    
  0.13244845969819    0.08614367589081319    0.05451931120183632    0.03579973011114985    0.025817663211105187    
  0.02107748361972228    0.019673451131503355    0.021077485484272473    0.025817661416265972    0.0357997354781629    
  0.054519318489345776    0.0861436824507207    0.13244847822359315    0.1869642923016124    0.23255028295818697    
  0.2503670464114516    0.23255029752890688    0.21603661836448423    0.17396963074422594    0.1238118217160211    
  0.08117122081840632    0.05195376500419351    0.0345695539991179    0.02523701162429764    0.020782825229312636    
  0.019460188060144643    0.020782827942087256    0.0252370157820014    0.034569544926631605    0.05195376307115506    
  0.08117121339788724    0.12381178696961892    0.1739696417734848    0.21603665258943072    0.23255029752890688    
  0.18696428746574864    0.17396964664729062    0.14109809774464527    0.1020246802905803    0.06859093222160766    
  0.04540619500819727    0.03140003331067183    0.023750765291799786    0.02005607802816147    0.018955262520211395    
  0.020056079135157473    0.023750770000407824    0.03140002393951301    0.04540620412702038    0.06859092601492936    
  0.10202466685713737    0.1410980975356746    0.1739696039068233    0.18696428746574864    0.1324484704472955    
  0.12381180970347651    0.1020246749003921    0.07603737745009967    0.05344881876828905    0.03742726295743731    
  0.027526003747105617    0.02200317178717748    0.019305651473400534    0.01850335556711155    0.019305645608387944    
  0.022003177041210704    0.02752599744698753    0.03742726714207719    0.05344882438665807    0.07603737578239243    
  0.10202467546822176    0.12381180451061363    0.1324484704472955    0.08614368132361497    0.08117124031247483    
  0.06859093342800747    0.05344882437189766    0.04002037042341408    0.030252707371073658    0.024102873647534453    
  0.02064159209146868    0.01896827414015298    0.01848497344903799    0.018968272571420357    0.020641597013780332    
  0.024102868134428735    0.030252713478772276    0.04002036375284996    0.05344883466673389    0.06859092967293136    
  0.08117121382821413    0.08614368132361497    0.054519304025216396    0.05195375071391094    0.04540618757974653    
  0.03742726568348114    0.030252714758483852    0.024989726828306743    0.021732060756751728    0.020010758190802207    
  0.01928025688069571    0.01910254269758846    0.01928025686930487    0.02001075812159063    0.021732056424386383    
  0.024989730806220516    0.030252698477020497    0.037427265292328996    0.04540620214230616    0.051953764627380945    
  0.054519304025216396    0.035799740514834595    0.03456954552120013    0.0314000192136679    0.027525997774093605    
  0.024102859576546495    0.021732056712533115    0.020506638058359058    0.020152278018277386    0.020222023891622722    
  0.020305562224205508    0.020222025155474343    0.020152275816703164    0.020506635498707675    0.021732059524487438    
  0.02410286597948679    0.027526005366851448    0.03140001990017993    0.03456953844844895    0.035799740514834595    
  0.02581766943161048    0.0252370157627467    0.023750772115622248    0.02200317672894333    0.02064159891582203    
  0.02001076186603252    0.02015228577902632    0.020812159499977605    0.021505669616699814    0.02179194328538296    
  0.021505662426062135    0.020812177873346365    0.020152278470809283    0.020010766328235428    0.020641593857067656    
  0.022003172584112822    0.023750768098955957    0.025237012582002265    0.02581766943161048    0.02107747806188199    
  0.020782825964164947    0.020056079111423795    0.01930564848239675    0.018968278258700528    0.01928025628248909    
  0.02022202884228788    0.021505642969550744    0.022614083420894857    0.023050625443718577    0.022614092517120696    
  0.02150566443345811    0.020222027825981717    0.01928025430169223    0.018968265890137045    0.019305654008731236    
  0.020056085325799645    0.02078282467034582    0.02107747806188199    0.01967345158415382    0.019460187109963865    
  0.018955257000220122    0.018503346021517705    0.018484975503117    0.019102543680334576    0.020305569472230868    
  0.021791946185574416    0.023050633317605464    0.023547724478404617    0.02305061666996338    0.021791933949574654    
  0.02030557491101825    0.019102544304044997    0.018484970822247006    0.018503356689275153    0.01895526282683199    
  0.019460185340453677    0.01967345158415382    0.021077488028628976    0.02078282684006784    0.020056079711620607    
  0.019305654110033175    0.018968278625876234    0.019280261122254543    0.02022202828277867    0.021505660695040524    
  0.022614100810410993    0.023050614748493757    0.022614091722455626    0.02150565630031727    0.02022202477583325    
  0.01928025375383337    0.018968274830469374    0.019305653724329613    0.020056083085676704    0.0207828273124257    
  0.021077488028628976    0.025817669464977523    0.025237012610358725    0.023750762112886983    0.022003175220061285    
  0.02064158990726656    0.020010766964193905    0.02015227448273516    0.020812177391266583    0.021505665683531728    
  0.021791948498973972    0.02150565602431131    0.020812174811018623    0.020152275979842378    0.02001075766824756    
  0.02064159557835844    0.022003178217748127    0.02375076787824475    0.025237016609820813    0.025817669464977523    
  0.03579974171869465    0.034569540059735414    0.03140002539873247    0.027525993315633605    0.024102867564503895    
  0.021732047721475738    0.020506644113087908    0.020152274086098054    0.020222026213835596    0.020305564054613753    
  0.020222020638202765    0.020152275236325484    0.02050663751807517    0.021732057380991678    0.02410287094084016    
  0.02752599668805716    0.031400034475952944    0.03456953371897392    0.03579974171869465    0.05451931628608507    
  0.051953767396198676    0.04540619297692389    0.03742727162427636    0.03025271065006658    0.024989727497664455    
  0.02173205190017126    0.020010760372444193    0.019280259004276462    0.019102543135484883    0.019280245553122553    
  0.020010773178025215    0.02173206005980499    0.02498973276698987    0.030252701587919276    0.03742726742954763    
  0.04540619877028433    0.05195375979293831    0.05451931628608507    0.08614368524396461    0.0811712202793926    
  0.06859092550152718    0.05344882179070448    0.04002037533213769    0.030252702817877727    0.024102871756814578    
  0.020641583361971066    0.018968278909694932    0.018484979968194964    0.018968269539155386    0.02064159628967217    
  0.024102873616745707    0.03025269940540413    0.04002036812463041    0.05344882870445511    0.06859093613660557    
  0.08117123443709606    0.08614368524396461    0.13244846788578882    0.12381182004860841    0.10202466858672805    
  0.07603739937879793    0.05344881582521707    0.03742726790525696    0.027525996142118977    0.022003177744473832    
  0.01930564806862155    0.01850335516499882    0.019305645563542043    0.02200318023851646    0.027525996321365064    
  0.03742726495647856    0.053448820006079784    0.07603737537232629    0.10202467226750073    0.12381179616100856    
  0.13244846788578882    0.18696430742874362    0.17396960835356143    0.14109809430787718    0.10202466193875422    
  0.06859095168110665    0.045406189777263205    0.03140003848398014    0.02375076294912725    0.020056079314138962    
  0.018955254955492728    0.020056076567654093    0.023750771292030074    0.03140002702830664    0.04540620076195545    
  0.06859094673985087    0.10202466892696244    0.14109812330905758    0.17396957047736375    0.18696430742874362    
  0.2325502918241646    0.21603662850782024    0.1739695963076149    0.1238118031441643    0.0811712340255529    
  0.051953755251894544    0.0345695609650066    0.02523700928849644    0.02078281835077524    0.019460188542453537    
  0.020782824787666333    0.025237012399847426    0.03456955419160631    0.05195375092724112    0.0811712270121477    
  0.1238118180649905    0.17396962489241682    0.2160366277610433    0.2325502918241646    0.2503670464114516    
  0.2325502768109419    0.18696426980537334    0.13244845969819    0.08614367589081319    0.05451931120183632    
  0.03579973011114985    0.025817663211105187    0.02107748361972228    0.019673451131503355    0.021077485484272473    
  0.025817661416265972    0.0357997354781629    0.054519318489345776    0.0861436824507207    0.13244847822359315    
  0.1869642923016124    0.23255028295818697    0.2503670464114516    0.3880521027905848    0.3655085338651657    
  0.29925723252717285    0.2090967057306228    0.12911688548184846    0.07570697018851112    0.045549758148155935    
  0.03026965480176691    0.023357810405553323    0.021377623894544395    0.023357811138629104    0.030269655344819926    
  0.04554975686294567    0.07570697329862085    0.1291168624333905    0.20909667883110905    0.29925725310076906    
  0.3655085674456492    0.3880521027905848    0.3655085353615912    0.34268278670327096    0.2784942020675683    
  0.1943840410009568    0.1208338737655628    0.07171683175413777    0.043820839718724774    0.029572255803295266    
  0.023081745422136934    0.021215961889759466    0.02308175044961005    0.029572256605819493    0.04382082759621921    
  0.07171683020325863    0.1208338538270698    0.19438404052448513    0.278494227464058    0.3426827656547445    
  0.3655085353615912    0.2992572124880911    0.2784941879071703    0.22402843814529008    0.15710136346688597    
  0.09993797599211045    0.06157329705732214    0.03940234876291591    0.027841371111589144    0.02249017426388192    
  0.020939785919142917    0.02249017665285793    0.027841381911309394    0.039402346725148925    0.06157330182312774    
  0.09993798115864051    0.1571013542128823    0.22402845419910328    0.2784942061265296    0.2992572124880911    
  0.2090966641329891    0.19438401620845258    0.15710133528238315    0.11279009342513772    0.07514261925412145    
  0.04941084944673987    0.034141948205105535    0.025968113672828228    0.022115093469148278    0.020991064765683225    
  0.022115091546784545    0.025968112444074935    0.03414194822051176    0.0494108456980516    0.07514262649695945    
  0.11279007893854047    0.15710135103797793    0.19438403260426718    0.2090966641329891    0.12911691702129927    
  0.12083385672060906    0.09993799362527657    0.0751426358534905    0.05377932193854669    0.03880541567785559    
  0.029729275539103775    0.0248134627485741    0.022509585077888326    0.02185065424877788    0.022509580715653822    
  0.024813468784152096    0.029729269532899467    0.038805421746711206    0.05377931181281489    0.07514263115811176    
  0.09993797837372374    0.12083382864382383    0.12911691702129927    0.07570695001839069    0.071716816968921    
  0.061573290583974226    0.04941084647054669    0.038805426343827394    0.03134455253336865    0.026966773140076703    
  0.02482116066930595    0.024006711475942535    0.023832340102582304    0.0240067069279005    0.02482116791000182    
  0.026966768275055175    0.031344550504426555    0.038805413276506794    0.049410846582678    0.061573297200583535    
  0.07171682414691262    0.07570695001839069    0.04554976661297604    0.04382081583882795    0.039402342832872646    
  0.03414194296229415    0.029729259144485716    0.02696677575454557    0.02589219697172012    0.026008672402656977    
  0.026560311586331972    0.026845847037105117    0.026560310844912383    0.02600867012930953    0.02589219841936818    