#     DFTpy    
  CRYSTAL 
    
  PRIMVEC    
  4.041513641989976    -2.2204864e-10    4.208771751724138e-10    
  -2.2204864e-10    4.0415136417551345    2.0279897379310347e-10    
  7.690999724137931e-10    3.706511448275862e-10    7.404131319212962    
  PRIMCOORD    
  4    1    
  Si    2.020756820917989    2.0207568219896537    2.2752469771691106    
  Si    7.493487677761423e-10    -6.935122967120094e-10    1.4268186799484597    
  Si    1.1493248786224365e-10    5.237673983173166e-10    5.977312635064822    
  Si    2.0207568215238574    2.020756820454479    5.128884346867206    
  BEGIN_BLOCK_DATAGRID_3D    
  3d_datagrid_density    
  BEGIN_DATAGRID_3D#0    
  19    19    33    
  0.0    0.0    0.0    
  4.041513641989976    -2.2204864e-10    4.208771751724138e-10    
  -2.2204864e-10    4.0415136417551345    2.0279897379310347e-10    
  7.690999724137931e-10    3.706511448275862e-10    7.404131319212962    
  0.20945206696578822    0.19663998350909256    0.16391492369710223    0.12393471990855118    0.08801937189211191    
  0.061512498368040104    0.04429305532901304    0.03417508792771812    0.028970103717758766    0.027357188486443224    
  0.028970094220830876    0.03417507567616007    0.044293070121313324    0.06151248365089632    0.08801937561387733    
  0.1239347325205375    0.16391493280630148    0.19663999596596604    0.20945206696578822    0.19663998972313454    
  0.18479131652054673    0.15460172073075665    0.11752075396691862    0.08408935021585767    0.05929978930266606    
  0.04311487929990626    0.03354581827712759    0.02860748435367178    0.02707844818789771    0.028607485775370776    
  0.03354579067486768    0.04311489527420332    0.05929981169824481    0.08408933785018936    0.11752076265601889    
  0.15460172452419796    0.18479137658662678    0.19663998972313454    0.16391497185271653    0.1546016740983603    
  0.1306701200414352    0.10101487264786337    0.07389292604786794    0.053508108729737686    0.04000684450270851    
  0.03190487253657569    0.02768038419148053    0.02637333999524053    0.02768037859879776    0.03190484747066961    
  0.040006873407915325    0.05350811859099205    0.07389292314470637    0.10101486160276846    0.13067014590144815    
  0.15460168488236145    0.16391497185271653    0.12393473562023795    0.11752077274764955    0.10101487022219101    
  0.08028113158763346    0.060924234294510736    0.04605457962952595    0.03599628302589062    0.029833489902754924    
  0.026589399037664243    0.02559222146302145    0.026589396070854095    0.029833484855704407    0.03599628154223385    
  0.04605457724305805    0.060924211143352926    0.08028113890570655    0.10101487781126206    0.11752078192567028    
  0.12393473562023795    0.08801939383755436    0.08408930961973586    0.07389295516362485    0.06092421319516897    
  0.04856430670694933    0.038836826613556065    0.03211342130226851    0.027934079899204323    0.02574169620897046    
  0.02507629390837696    0.025741707547493047    0.027934067226809207    0.032113439440706465    0.038836842133643884    
  0.048564320952335434    0.06092421095523464    0.07389294298947928    0.08408935166082773    0.08801939383755436    
  0.061512484343038944    0.059299789632472705    0.053508120862346555    0.04605459605086029    0.03883683332398764    
  0.03304164735868515    0.029020284871837096    0.026576737937622823    0.025350634470611318    0.024995137431998705    
  0.025350642791932027    0.0265767114598326    0.029020285623426078    0.033041669987074515    0.0388368275483141    
  0.04605458961909466    0.0535081134332712    0.05929981001477035    0.061512484343038944    0.04429308589729223    
  0.043114886091130164    0.04000684916034526    0.035996300125853774    0.03211343775579846    0.029020272729822483    
  0.02698727656538571    0.02589990482590096    0.02544227356011302    0.025322400431145132    0.02544227660961261    
  0.025899890627604418    0.026987308491209963    0.029020285394971024    0.03211343328393557    0.03599627141157646    
  0.04000686513998491    0.043114864954147944    0.04429308589729223    0.03417507196416086    0.03354579547809564    
  0.03190488171175237    0.029833479279579397    0.027934070873893182    0.02657674093186899    0.025899885690994766    
  0.025773889600641312    0.025864353388841292    0.025917638273577414    0.02586438005558583    0.025773888055950555    
  0.025899903751835148    0.02657674379195119    0.027934059393104328    0.02983347432314426    0.03190484760757852    
  0.033545811484086537    0.03417507196416086    0.02897011195805628    0.02860746977824489    0.02768039001979289    
  0.026589410518714763    0.025741701505887653    0.025350607987502945    0.025442272390560846    0.02586436497677359    
  0.026312693809997723    0.026497926189148344    0.02631269033200244    0.025864339971909487    0.02544229402413256    
  0.025350631179768872    0.025741698643911525    0.026589400090120157    0.027680388956641357    0.028607473883419707    
  0.02897011195805628    0.02735719723007054    0.027078452445164665    0.02637333379008885    0.025592222220498537    
  0.025076306176343006    0.02499513988825108    0.025322397840412007    0.025917650854408412    0.026497933867718947    
  0.02673826746089427    0.02649795903883221    0.02591764329049169    0.02532239801610418    0.02499516297952308    
  0.025076295136549822    0.0255922164608548    0.026373334051584728    0.02707845337460105    0.02735719723007054    
  0.028970117933707556    0.028607483489920732    0.027680395963114942    0.026589404767997916    0.025741710064120675    
  0.025350624425316177    0.02544226629026671    0.02586438503605834    0.02631267824641313    0.026497936789357943    
  0.026312691680594563    0.025864348306647578    0.0254422770249454    0.025350650657035158    0.025741691398067902    
  0.02658940171640123    0.027680385065211897    0.02860747106294104    0.028970117933707556    0.03417508864659122    
  0.033545799930012686    0.031904867159261587    0.02983348786930432    0.027934084100961935    0.026576718316282683    
  0.025899890677467338    0.025773899353580463    0.025864376188082062    0.025917648093988763    0.02586436941383889    
  0.025773874206433435    0.025899921545493    0.02657674318422906    0.027934065802390863    0.029833468305251826    
  0.0319048713618141    0.03354579738442472    0.03417508864659122    0.04429306763307931    0.04311488054750083    
  0.04000686211726273    0.03599630296406304    0.03211343442806986    0.02902029216799264    0.02698727828436121    
  0.025899889447374445    0.025442266522760874    0.025322388935909348    0.025442266919566    0.025899897778274207    
  0.026987312685734628    0.029020265902221995    0.03211342740573961    0.035996277618551155    0.04000687138389978    
  0.04311488426060314    0.04429306763307931    0.061512475851897855    0.05929980033537864    0.053508117419852064    
  0.04605459249161809    0.03883682307207283    0.0330416537642069    0.02902027211934887    0.026576736932733918    
  0.025350627402353394    0.024995137668877145    0.02535065082227422    0.0265767206267939    0.02902027499095366    
  0.033041675560154436    0.038836816735492066    0.046054578715865775    0.05350809431058154    0.05929980721369151    
  0.061512475851897855    0.0880194000462743    0.0840893095529548    0.07389293276142227    0.06092422721813972    
  0.04856432069779508    0.03883682358262055    0.032113432623046334    0.0279340760340166    0.025741686960915233    
  0.02507630921639987    0.02574169716010869    0.027934055639626983    0.03211344443120868    0.03883683662940422    
  0.04856431014420692    0.060924239159628    0.07389292452383718    0.08408937831232004    0.0880194000462743    
  0.1239347494061521    0.11752079399218009    0.10101485444353689    0.0802811431391991    0.06092422535366802    
  0.046054592665395036    0.03599627490574611    0.029833485412239784    0.02658940146382051    0.025592217727006438    
  0.026589402525848457    0.029833484639970907    0.03599628354796035    0.04605459188241866    0.06092419540392282    
  0.08028114124283384    0.10101484903706655    0.11752075173571178    0.1239347494061521    0.16391492564793905    
  0.15460170154946226    0.13067015969307677    0.10101490278589152    0.07389294262008042    0.05350810465826263    
  0.04000683608327202    0.03190486701930023    0.027680379305714656    0.026373324395425186    0.027680391484316624    
  0.03190486433311569    0.0400068688368319    0.053508111766510165    0.07389293104067779    0.1010148682393801    
  0.13067011772013837    0.15460167515022755    0.16391492564793905    0.19663998731063298    0.1847913705146344    
  0.15460171012649568    0.11752077630014747    0.08408934597544597    0.05929979678386321    0.04311488247763024    
  0.03354581309082883    0.02860748034912378    0.02707844579199722    0.02860748655525952    0.03354580180278582    
  0.04311488657735942    0.059299801894652004    0.08408932486634353    0.11752078814332977    0.15460165918548513    
  0.1847913826587385    0.19663998731063298    0.20945206696578822    0.19663998350909256    0.16391492369710223    
  0.12393471990855118    0.08801937189211191    0.061512498368040104    0.04429305532901304    0.03417508792771812    
  0.028970103717758766    0.027357188486443224    0.028970094220830876    0.03417507567616007    0.044293070121313324    
  0.06151248365089632    0.08801937561387733    0.1239347325205375    0.16391493280630148    0.19663999596596604    
  0.20945206696578822    0.24341580987879552    0.22820444000672246    0.18925211152136234    0.14151092302767185    
  0.09883383259981379    0.06756524144640795    0.0474846676372888    0.035841676825667086    0.02995438376334351    
  0.028167726208173982    0.02995437920020553    0.03584169998978211    0.04748466329882342    0.0675652422566229    
  0.09883383678163662    0.141510927139471    0.18925211713915716    0.22820448261586682    0.24341580987879552    
  0.2282044259419217    0.21414632084820193    0.17808432511987346    0.13390221879157305    0.0942496335927445    
  0.06505230456700595    0.04618323115516982    0.03518525678837893    0.029602939479985487    0.027904958821270497    
  0.029602943401278912    0.03518522718712348    0.04618326058677376    0.06505231552356737    0.09424964868505883    
  0.13390219930959876    0.17808431713822442    0.21414633256755813    0.2282044259419217    0.1892520971561727    
  0.17808424454957084    0.14950396175643393    0.11428967820053881    0.0823319827128203    0.058431008576619745    
  0.042746162995977    0.03347352361549687    0.028716362887449984    0.027259372129658753    0.028716368131326532    
  0.033473511459970406    0.042746176978526174    0.05843102634614813    0.08233196275285072    0.1142896674110482    
  0.14950401793153226    0.17808426772951874    0.1892520971561727    0.14151088235796397    0.1339022333045261    
  0.11428968363176946    0.08982760515879602    0.06719331864402436    0.04990137245633428    0.03831753870701359    
  0.03134213367858405    0.027716880307770767    0.026598458495328617    0.027716881158617708    0.03134212989667466    
  0.03831754377184287    0.049901356932573034    0.06719333031589567    0.08982758809219564    0.11428968648759738    
  0.13390219346101676    0.14151088235796397    0.0988338043093063    0.09424962120237203    0.08233200615808312    
  0.06719334617494686    0.05288621371145399    0.04172220314749428    0.034102452356485936    0.029454950058841828    
  0.02703027873655606    0.02628530413015643    0.027030296421789744    0.02945494675369042    0.03410245887084959    
  0.041722225728364405    0.05288619996989538    0.06719332976539882    0.0823319895560171    0.09424964813541166    
  0.0988338043093063    0.0675652636937125    0.06505227365579123    0.05843103259054009    0.04990137519146424    
  0.04172221266878537    0.03526302960033892    0.030851427983121238    0.02821264371483292    0.026890270828355906    
  0.02650024773319723    0.026890277698258573    0.028212627773249264    0.03085143753480458    0.03526305310300875    
  0.0417222084762848    0.049901362564361194    0.05843103371157968    0.06505229419049033    0.0675652636937125    
  0.04748466685240634    0.04618326209443897    0.04274616291103459    0.03831756372077836    0.03410244900022192    
  0.030851418415992968    0.028778933098365957    0.027713447420158244    0.027294769403116696    0.02720090684000752    
  0.027294755853028    0.02771345621520138    0.028778942594110235    0.03085143615945057    0.034102448695837305    
  0.03831754068071551    0.0427461750969579    0.04618323908394984    0.04748466685240634    0.03584168494774771    
  0.035185229541714616    0.033473532155748185    0.031342122976544116    0.02945494537575266    0.02821264315778125    
  0.027713439486448187    0.02777375974711784    0.028034044034792684    0.028161790253372388    0.028034041085936934    
  0.027773746989350194    0.027713455134620948    0.028212651220917748    0.029454948344059324    0.03134212440376058    
  0.033473516979872595    0.03518524050848597    0.03584168494774771    0.029954387218841746    0.029602943177821913    
  0.02871637337691476    0.027716897986457326    0.027030283378028482    0.02689024855064016    0.027294779323429375    
  0.02803405217613593    0.02872697653087958    0.029006236811513056    0.02872696222526916    0.02803402058223899    
  0.027294797936283602    0.026890278521920528    0.027030279232941573    0.02771689660403482    0.0287163628917645    
  0.02960294110389347    0.029954387218841746    0.02816773653100861    0.02790495913930542    0.027259356092442982    
  0.02659846684528318    0.02628530437522995    0.026500256883865234    0.027200886053872282    0.02816181239137765    
  0.029006251905351603    0.029341833882960876    0.029006243637079654    0.028161794688714558    0.02720090770492974    
  0.026500255475219517    0.02628530771155323    0.026598444218805483    0.02725936992765965    0.027904956210304123    
  0.02816773653100861    0.02995439248597849    0.029602952378306745    0.02871636618440723    0.02771688062273673    
  0.02703030100861353    0.02689026175131029    0.027294776085666744    0.02803406243446091    0.028726962506982007    
  0.02900624365708706    0.028726978004569772    0.028034024048890546    0.027294781389342174    0.02689028354734636    
  0.02703028165898845    0.02771689274647933    0.028716354198515096    0.02960294304583274    0.02995439248597849    
  0.03584169299724445    0.03518522174361542    0.03347352676887714    0.03134212918097063    0.02945495280808547    
  0.028212647870534065    0.027713433767165733    0.027773765568756513    0.02803403235180127    0.028161814793116097    
  0.028034039777086666    0.02777373154434316    0.02771345901608998    0.0282126554440352    0.02945494321276108    
  0.0313421136554093    0.03347353022620934    0.03518524122563051    0.03584169299724445    0.04748465523329331    
  0.046183240342536125    0.04274617316513998    0.038317548875108444    0.03410246517183605    0.030851423493253004    
  0.02877892990929625    0.027713447500123868    0.027294766027149683    0.027200899658771427    0.027294775973101884    
  0.027713451739108042    0.028778929581983276    0.030851408702775654    0.03410245179760972    0.038317539600997395    
  0.04274617855841956    0.04618323538566644    0.04748465523329331    0.0675652453479471    0.06505228608665567    
  0.05843103186128008    0.0499013874147927    0.04172218925912038    0.035263042470142836    0.030851412485769742    
  0.028212646733969136    0.026890267620464314    0.026500248310072933    0.026890271153951442    0.028212656565100164    
  0.03085142877091694    0.03526304772966325    0.041722191918966686    0.049901368512976274    0.058430999145792036    
  0.06505230185542603    0.0675652453479471    0.0988338577612074    0.09424963706412409    0.08233199506222567    
  0.06719332219649558    0.052886234829079025    0.04172218586358873    0.03410247093986201    0.02945494836246063    
  0.02703028349032341    0.02628531291220416    0.02703028907997125    0.029454932856164025    0.03410246114543304    
  0.0417222127833064    0.05288620036677579    0.06719335198344407    0.08233199354216678    0.09424968342258667    
  0.0988338577612074    0.1415109695743953    0.1339021832844461    0.11428968386937917    0.08982760639577687    
  0.06719333335895998    0.049901373140030285    0.038317520651468914    0.03134213985446096    0.027716876666349026    
  0.026598463749494133    0.027716887752295943    0.03134213114332368    0.03831755312190037    0.04990137063985288    
  0.06719332041216129    0.08982756744507231    0.11428970928229852    0.13390219296668412    0.1415109695743953    
  0.18925208272780358    0.1780843291475018    0.1495040158050102    0.11428969910981888    0.0823319954693416    
  0.05843101268863823    0.042746162523899144    0.03347351317940037    0.028716369833201215    0.027259356950630555    
  0.0287163728788991    0.03347352041764742    0.0427461900747213    0.05843101761677411    0.08233197153417922    
  0.11428966286835825    0.14950395542185416    0.17808429355201738    0.18925208272780358    0.22820443373402086    
  0.21414637784211357    0.17808429940139367    0.13390226122128995    0.09424964773827832    0.06505230266716969    
  0.04618324065982196    0.03518526951685061    0.02960295131765847    0.02790495421665559    0.029602952048913073    
  0.03518523224586832    0.046183262263192644    0.06505229677034026    0.09424965069715997    0.13390226260939997    
  0.1780842803301417    0.21414635471458326    0.22820443373402086    0.24341580987879552    0.22820444000672246    
  0.18925211152136234    0.14151092302767185    0.09883383259981379    0.06756524144640795    0.0474846676372888    
  0.035841676825667086    0.02995438376334351    0.028167726208173982    0.02995437920020553    0.03584169998978211    
  0.04748466329882342    0.0675652422566229    0.09883383678163662    0.141510927139471    0.18925211713915716    
  0.22820448261586682    0.24341580987879552    0.34204901405798366    0.3219829801730579    0.2675852253595953    
  0.1972499990240101    0.13294964408707075    0.0862591057271958    0.057136013104935775    0.040829292493930164    
  0.032871252960425784    0.030528348685635906    0.03287124645593289    0.04082928065257432    0.057136022801508236    
  0.086259098493356    0.13294963686779934    0.19724996566835318    0.2675852212029842    0.32198301310610705    
  0.34204901405798366    0.32198298452014623    0.30279638450035207    0.25147242088665467    0.18589087996023695    
  0.12621750442030946    0.08273411590974604    0.05544975152215908    0.040094194966366445    0.032565194393774116    
  0.030336286886710823    0.032565202799660124    0.0400941737381709    0.05544977238135092    0.08273416337422781    
  0.1262174381088154    0.18589087852951108    0.2514723966130397    0.30279643830565267    0.32198298452014623    
  0.267585229662463    0.25147233073041464    0.20923555070250419    0.15644598518376793    0.10866992688856762    
  0.07349957128041595    0.051055076495587236    0.03823640203108833    0.03186183193885029    0.029947340642703563    
  0.03186183396890024    0.03823639147165096    0.051055098614518526    0.0734995848667111    0.10866995066419531    
  0.1564459469085399    0.20923559262589309    0.2514723212130922    0.267585229662463    0.19724996641509326    
  0.1858908573650335    0.15644597464430804    0.11988611274610167    0.08664218333441576    0.06175239917936946    
  0.0455045972617838    0.03603843649073259    0.03123708852112252    0.029766393278401904    0.031237085240555826    
  0.03603844071827105    0.045504597375629265    0.06175240053655034    0.0866421877957976    0.11988608707433189    
  0.15644596058724727    0.18589085125535962    0.19724996641509326    0.13294960987868787    0.1262174519329614    
  0.10866997478828702    0.08664219663715161    0.06628449924748293    0.05074726852850315    0.04040597401336715    
  0.03430030602373703    0.031175112166595735    0.030210708913627426    0.031175123584409464    0.034300302544948015    
  0.04040600538405054    0.05074728451547236    0.06628450049955102    0.08664218074157945    0.10866991697881845    
  0.1262174759763739    0.13294960987868787    0.08625909010322315    0.08273412993987081    0.07349958517083274    
  0.06175240762951913    0.05074727185635396    0.042308810581488145    0.03673819906792531    0.03353881015250473    
  0.03198340271889962    0.03152437887535926    0.03198341975355079    0.03353878068594951    0.036738190746856726    
  0.04230884807005065    0.05074726140812033    0.06175240040830799    0.07349958332143036    0.08273414707743786    
  0.08625909010322315    0.05713603173113859    0.05544976093745704    0.05105507713126265    0.045504610637938654    
  0.04040598623415296    0.036738194186406066    0.03465140462022827    0.033790158522592574    0.03361960371905873    
  0.03363821726161042    0.03361958846929558    0.03379016705648905    0.03465142281034825    0.0367382073466289    
  0.040405990450678116    0.04550457627463076    0.051055087649548074    0.05544973732000057    0.05713603173113859    
  0.040829281876402716    0.04009417909869812    0.03823641072865269    0.03603843238185479    0.03430030319055215    
  0.03353881038605785    0.033790148218623625    0.03468295363967399    0.035639376776135406    0.03605672344423692    
  0.03563939081156317    0.03468295788269505    0.033790164234996006    0.03353882629712872    0.034300292123210514    
  0.0360384304237221    0.03823638395619134    0.040094179710029335    0.040829281876402716    0.032871262653886804    
  0.03256519398229061    0.031861835423511994    0.03123709971614993    0.03117512158019383    0.03198338216970765    
  0.03361958361367187    0.03563940783267126    0.0373314545535813    0.03799802729012699    0.03733143145265934    
  0.03563936654648643    0.033619615527500625    0.03198340325149017    0.031175123075335633    0.031237093700728292    
  0.03186183632025941    0.03256518325189105    0.032871262653886804    0.030528358468044862    0.030336288497710435    
  0.029947327534329098    0.02976639213118765    0.030210718087234047    0.031524382760741355    0.03363821580461914    
  0.036056745582213307    0.03799803812949918    0.038745585410820904    0.03799803070568185    0.03605672518923653    
  0.03363820562940823    0.03152439636825149    0.030210711419883414    0.029766380560213388    0.029947331030747374    
  0.030336295087929458    0.030528358468044862    0.03287127122638725    0.03256519176038793    0.03186183752105138    
  0.031237093947110266    0.031175126583803375    0.031983402414117124    0.03361958209876016    0.0356394203732599    
  0.03733147044749601    0.037998024535193    0.03733147691183919    0.03563938477404266    0.03361960326244837    
  0.031983426542987504    0.031175110239198677    0.03123709838189054    0.031861836581723695    0.03256519243831853    
  0.03287127122638725    0.04082929026597726    0.04009417210740637    0.038236390201862785    0.036038440898046226    
  0.03430032540625353    0.03353878992268042    0.033790151118886114    0.034682952525728776    0.035639389259755225    
  0.03605677080491525    0.03563939455844681    0.03468293667615993    0.03379018154299063    0.03353881073285045    
  0.034300307452915235    0.03603842247749261    0.03823641122875839    0.040094179432823784    0.04082929026597726    
  0.057136005858497645    0.055449751161770026    0.05105507824947376    0.045504610628411477    0.0404059965489796    
  0.03673819050783731    0.034651398176536265    0.03379016521079431    0.03361959317592981    0.03363820700824181    
  0.033619588897983325    0.033790162239899335    0.0346514374767429    0.036738181161918085    0.04040598205296326    
  0.045504580702673054    0.05105510523537542    0.05544974100080203    0.057136005858497645    0.08625908236021089    
  0.08273414729646184    0.07349959468305174    0.061752393052721156    0.050747255139790975    0.0423088255873058    
  0.03673818034442202    0.03353881867825313    0.03198340762298494    0.031524387679176064    0.03198341390278432    
  0.03353879780044012    0.03673821199428575    0.04230884829306494    0.050747260200293326    0.06175238452733226    
  0.07349955446130467    0.08273413839664488    0.08625908236021089    0.13294965778751897    0.1262174379086577    
  0.10866995396786891    0.08664218381974985    0.06628450132478839    0.050747260849578466    0.04040600118475798    
  0.034300321034487345    0.031175105623310675    0.03021071718431625    0.031175111799301637    0.03430029086012867    
  0.04040601174497839    0.05074727476379006    0.06628449777212217    0.08664216654739702    0.1086699226702802    
  0.12621750201925339    0.13294965778751897    0.19724999742197044    0.18589090114236062    0.1564459199581708    
  0.11988611000273718    0.08664217934403359    0.06175239216221988    0.04550458009453925    0.03603843367552687    
  0.031237093659008543    0.02976638975673392    0.031237082222741214    0.036038435491674854    0.045504594769184614    
  0.061752405757396    0.08664214232612671    0.11988607541821891    0.15644593370028864    0.18589084868375924    
  0.19724999742197044    0.2675852422465393    0.25147234045857675    0.2092356009277925    0.1564459747793768    
  0.10866991980681594    0.07349957872614007    0.051055062767527915    0.03823641094681211    0.03186183146208055    
  0.02994732912273432    0.031861829280467734    0.03823639666318647    0.05105509955115617    0.07349958482152202    
  0.10866991838608758    0.15644597030934762    0.20923554541429853    0.25147237162313374    0.2675852422465393    
  0.32198297740678367    0.302796453323838    0.25147237768135733    0.1858909237849752    0.1262174814282284    
  0.08273413502221912    0.0554497533695421    0.04009419898676984    0.03256520587188751    0.030336281927304143    
  0.03256520728590501    0.040094178821998123    0.05544976799986211    0.08273414409875879    0.12621746033547998    
  0.18589090167659253    0.25147234557013853    0.3027964906335269    0.32198297740678367    0.34204901405798366    
  0.3219829801730579    0.2675852253595953    0.1972499990240101    0.13294964408707075    0.0862591057271958    
  0.057136013104935775    0.040829292493930164    0.032871252960425784    0.030528348685635906    0.03287124645593289    
  0.04082928065257432    0.057136022801508236    0.086259098493356    0.13294963686779934    0.19724996566835318    
  0.2675852212029842    0.32198301310610705    0.34204901405798366    0.4322912212272777    0.4224701550759501    
  0.37645032942232703    0.2877508395519686    0.19092530946420894    0.11762162341063984    0.07288694121988444    
  0.04881356838621751    0.03748962297497195    0.03423277905655203    0.03748962802004397    0.0488135790991717    
  0.07288693956222535    0.11762163773808168    0.19092534925975976    0.28775084856136457    0.3764502982748231    
  0.4224702584426596    0.4322912212272777    0.42247020548719305    0.4093309726381288    0.3587455769546774    
  0.2715892084104202    0.18054680403619539    0.11235051732250603    0.07062067895308889    0.04803105181340805    
  0.03733873814716292    0.03424800998649329    0.03733874551469498    0.04803101243628404    0.07062071850116067    
  0.11235055140608316    0.18054679527975195    0.27158916074954853    0.35874564385738394    0.40933100981366016    
  0.42247020548719305    0.3764503174186603    0.3587454767928806    0.3050502980368642    0.22787078483485607    
  0.15352784694757748    0.09878893880331231    0.06487371628285811    0.046158335603035346    0.037136753215112464    
  0.03449523836448429    0.03713676976480788    0.04615831727706642    0.06487372203547447    0.09878895425389858    
  0.15352782813698654    0.22787074093872203    0.30505030469759103    0.3587454650982422    0.3764503174186603    
  0.2877508223626747    0.2715891984021574    0.2278707856472126    0.17150338151767253    0.11988995246588965    
  0.08194052835914281    0.05786808096043954    0.04422742889145789    0.0375008019877651    0.03549628721886101    
  0.03750081717909224    0.04422742249537815    0.057868094858939095    0.08194051719740357    0.11988997625100774    
  0.17150331369887098    0.22787084190222964    0.2715891304625596    0.2877508223626747    0.19092534714833242    
  0.18054680657589756    0.15352787454373848    0.1198899938322947    0.08931767301156406    0.06652853255801229    
  0.05176621941191702    0.04330211479430587    0.03911649394712074    0.037861126779417234    0.03911651011291596    
  0.043302098560302545    0.05176622541911504    0.06652856061856069    0.08931765862351732    0.11988999154094881    
  0.1535278272415998    0.18054681675050677    0.19092534714833242    0.11762165074917257    0.11235048794148536    
  0.09878894038903455    0.08194052521791359    0.06652854798675964    0.055090023517252486    0.04791226420603785    
  0.04410037932135694    0.04242781306864981    0.0419691816991265    0.04242779631250345    0.04410036665494118    
  0.04791225780067135    0.05509004471308063    0.06652853939376283    0.08194051865437856    0.09878893939214142    
  0.11235052151849943    0.11762165074917257    0.07288692985544434    0.07062071844386919    0.06487369607035605    
  0.057868111933023894    0.051766207898848525    0.047912265205041035    0.0464275777955063    0.046578949093908716    
  0.04731116330819891    0.047684559523675424    0.04731115455783798    0.046578959020075014    0.04642759672039242    
  0.04791226304626471    0.05176620953927676    0.057868077548244946    0.06487372018917023    0.07062068438539577    
  0.07288692985544434    0.048813563889906465    0.04803101226695313    0.04615833729795235    0.044227414339740305    