#     DFTpy    
  CRYSTAL 
    
  PRIMVEC    
  5.329517388060254    2.229672579834e-05    -5.5902e-13    
  -2.6647393844980423    4.615508729802242    -1.09375e-11    
  -9.1924e-13    -2.1296939999999998e-11    8.762554676613323    
  PRIMCOORD    
  4    1    
  Si    1.3267217734142812e-05    3.0770130341140915    4.927831435504504    
  Si    2.664764736338233    1.5385179923761947    0.5465540324930944    
  Si    1.3267219736408663e-05    3.077013034112822    8.21600057941119    
  Si    2.6647647363468816    1.5385179924103776    3.8347233057948666    
  BEGIN_BLOCK_DATAGRID_3D    
  3d_datagrid_density    
  BEGIN_DATAGRID_3D#0    
  23    23    41    
  0.0    0.0    0.0    
  5.329517388060254    2.229672579834e-05    -5.5902e-13    
  -2.6647393844980423    4.615508729802242    -1.09375e-11    
  -9.1924e-13    -2.1296939999999998e-11    8.762554676613323    
  0.005699942525665681    0.005825251189055871    0.006292533227825701    0.007364670885571849    0.009543594090307757    
  0.013695505497307357    0.02108876060334942    0.03318856963577661    0.05054858258642666    0.07086323234822998    
  0.08810492845360178    0.09497816908088662    0.08810492886152943    0.07086323916035057    0.0505485750649125    
  0.03318856635917007    0.021088763895811755    0.013695504346514483    0.009543595701911888    0.007364672896773549    
  0.0062925324086427654    0.005825251849563886    0.005699942525665681    0.005825250376083589    0.005824921120210916    
  0.006123186087138424    0.006910787678240825    0.008606829649034364    0.011974324815747039    0.018304472717210092    
  0.02937180368021537    0.046730533842883906    0.06974646995577657    0.09338154607059113    0.1088854031328302    
  0.10888867268030303    0.09338025230115715    0.06973711994884552    0.04674101184742158    0.029375157794525892    
  0.01830066607541825    0.011975346853532312    0.008607110219573454    0.006910765855274095    0.0061229494365397825    
  0.005825250376083589    0.006292531053454945    0.006123185304396584    0.006292543634960192    0.0069104471579835795    
  0.008372131166302458    0.01147165084858763    0.017688071645199407    0.029555682975305936    0.05027119401081165    
  0.08146925385812373    0.11925667434715331    0.15196840422814403    0.16513565965345567    0.15197296685376627    
  0.11927669585587854    0.08146827172245982    0.05026081380661363    0.029559723938374874    0.01769120590322863    
  0.011471046376444931    0.008372109466268802    0.006910765240532754    0.006292531053454945    0.007364668160186169    
  0.006910786293872529    0.006910448893368896    0.00736533574692109    0.008606425082124143    0.011470784788674044    
  0.017670963299192936    0.030542983652353105    0.05548846486773951    0.09816155677143958    0.15810260930407974    
  0.22092759567579304    0.26164314334641003    0.2616353879971179    0.22090387860730135    0.15811676312647788    
  0.09817314304728976    0.05549427693362013    0.03054281582085471    0.01766978064185334    0.01147104193010407    
  0.008607111428878768    0.007364668160186169    0.009543596896767054    0.008606833480317976    0.008372133857848936    
  0.008606426687882621    0.009543705931515644    0.011975883975024667    0.01768826864323446    0.030541896991131835    
  0.0579186881484373    0.11033581293761278    0.1941073499142607    0.29465165743498534    0.37349986807031826    
  0.40163145675923767    0.37354740044347806    0.29464986080696504    0.19409867969604386    0.11034744554420889    
  0.05791601893876478    0.030542820877032518    0.017691212873012143    0.011975349659777371    0.009543596896767054    
  0.013695501346058367    0.011974325374945855    0.0114716528208711    0.011470784694157934    0.011975876151278791    
  0.013693720735861153    0.018304511765058103    0.029557396478229095    0.05549058059932634    0.11034252643239453    
  0.2088909293361751    0.34098365075927073    0.4496109473789332    0.49314880904254443    0.4931328358052651    
  0.44963717974034295    0.34102889780540785    0.20888260460683206    0.11034744441585413    0.05549430010114234    
  0.029559732497350766    0.01830067275246077    0.013695501346058367    0.021088755506745792    0.01830447472443157    
  0.017688068567714817    0.017670959802072922    0.017688257939124444    0.018304501648209306    0.021086639859539104    
  0.029376297193638656    0.050264577036704346    0.09816993241442298    0.19408917272969242    0.34101787295444924    
  0.47185374602421054    0.5071218073324507    0.49805616770677064    0.5071058130730091    0.47186517875564166    
  0.3410288902662594    0.19409863770318492    0.09817313664389551    0.050260806132613564    0.02937515922978201    
  0.021088755506745792    0.033188573735953825    0.02937180833516393    0.029555687964461303    0.03054298238289126    
  0.030541888992220892    0.029557394645672815    0.029376306526638096    0.03318841415285445    0.04673508715006073    
  0.08147521545462995    0.158110390160133    0.2946582645603594    0.44962986059110943    0.5070991707810705    
  0.47315884704374117    0.4731900394268626    0.5071058974948175    0.44963721663898737    0.29464983075259993    
  0.15811676778926587    0.08146828044284639    0.04674101508278737    0.033188573735953825    0.05054859061032038    
  0.046730541653466656    0.0502711818200818    0.05548846885717601    0.05791866547125121    0.0554905738973846    
  0.05026457269757016    0.046735081388139824    0.05055666973345899    0.06973774381177816    0.11927544519856588    
  0.22090998581727764    0.373546397646602    0.4930768242686622    0.4981152355837854    0.47315874738987246    
  0.4980562558072738    0.4931328725457508    0.3735474656598976    0.22090392720615246    0.11927672051402391    
  0.0697371343375439    0.05054859061032038    0.07086323953410029    0.06974647794283642    0.08146926087388069    
  0.0981615404393179    0.11033576419155673    0.11034251986779116    0.09816992707531104    0.08147521156739257    
  0.06973773436603428    0.07087290318938265    0.09337993196543753    0.15198578302838003    0.26163425143632507    
  0.40167394995810324    0.4930768240912192    0.5070991259624708    0.5071218303385068    0.4931487616995918    
  0.4016314213184344    0.26163541934420687    0.15197297960446063    0.09338027480693822    0.07086323953410029    
  0.08810492267895335    0.0933815609898765    0.1192566742816651    0.15810256512053233    0.19410731503878795    
  0.2088908652778769    0.19408917198468884    0.1581103575871635    0.11927542700464389    0.09337990808024432    
  0.08811348317203402    0.10889041076160613    0.16514516860813835    0.2616342463289244    0.3735464017835872    
  0.4496298559082005    0.47185375259468276    0.44961085591828903    0.3734998128309338    0.261643140429038    
  0.16513567623382583    0.1088886922895764    0.08810492267895335    0.09497814648707906    0.1088854175346837    
  0.15196842637448996    0.2209275378024668    0.29465160773479937    0.3409836467181108    0.34101784777431415    
  0.2946582733099576    0.22090996106676758    0.15198575688830368    0.10889042882964257    0.0949838891564918    
  0.10889041326395606    0.15198579381188138    0.22090999335371853    0.29465828042304754    0.34101788450515846    
  0.34098365248976403    0.29465165808095656    0.22092759659521877    0.15196842964424181    0.10888541217646185    
  0.09497814648707906    0.08810493323712167    0.1088886766100964    0.16513563316086974    0.2616430888804336    
  0.37349979520987253    0.44961092055711144    0.47185376112842564    0.4496297892766389    0.37354635207488834    
  0.26163422442540235    0.16514517946774332    0.10889040788744407    0.08811347967090667    0.09337990294967115    
  0.11927543791030772    0.15811039822971157    0.19408916704234616    0.20889089799034088    0.19410734534247168    
  0.15810262438467876    0.11925668748899775    0.0933815667617837    0.08810493323712167    0.07086324021208927    
  0.09338027400817703    0.1519729807845055    0.26163541279938807    0.40163139109859775    0.493148770064283    
  0.507121838998977    0.5070991577841304    0.49307673442563704    0.4016739082658272    0.2616342606088828    
  0.15198578463022092    0.09337992648539892    0.07087290850346066    0.0697377360891544    0.0814752231338566    
  0.09816994481866671    0.1103425256895805    0.11033579087016279    0.09816157210880035    0.08146926198385149    
  0.06974648118822821    0.07086324021208927    0.050548579343931505    0.06973713279756209    0.11927671541298374    
  0.22090392597707512    0.3735474223266645    0.4931328621224813    0.49805627183978046    0.4731588558297778    
  0.49811523438955535    0.49307675385275823    0.37354641952623246    0.22090998030654546    0.11927544042834846    
  0.0697377432931789    0.05055666236607583    0.04673508482881454    0.05026458371686124    0.055490571442750276    
  0.057918685242650036    0.05548847020116877    0.05027117809766609    0.046730548472631445    0.050548579343931505    
  0.03318857444174824    0.04674101435288499    0.08146827253083326    0.15811673250869848    0.2946498318960852    
  0.4496372003634568    0.507105900580782    0.47319004522511665    0.4731588080294537    0.5070991572857996    
  0.4496298299087764    0.29465826592082567    0.15811039182129094    0.08147522798573655    0.046735073873695604    
  0.03318841059840116    0.029376299757702683    0.029557394923888706    0.030541895392472342    0.03054298566703013    
  0.0295556828089926    0.029371810495402318    0.03318857444174824    0.021088757235987292    0.02937515556439582    
  0.05026080320463685    0.09817312596236022    0.19409860997252676    0.341028903462739    0.4718652005548738    
  0.5071058735530349    0.4980563381639385    0.5071218073733024    0.47185373077873616    0.341017839872366    
  0.19408915727675344    0.09816993283943189    0.05026456755399733    0.0293762998513294    0.021086635719492347    
  0.018304500241615274    0.017688266799530578    0.017670961873565316    0.017688066805292352    0.01830447649489353    
  0.021088757235987292    0.013695500590623728    0.01830067477951122    0.029559731315788273    0.05549429066395551    
  0.11034743087231455    0.20888261069153202    0.3410288835747399    0.44963715906494295    0.49313290863910697    
  0.4931487857389849    0.4496109047951305    0.3409836397558934    0.20889088183932253    0.1103425125121827    
  0.055490573259578145    0.02955740194234921    0.018304506125086162    0.013693726118680315    0.011975881423981162    
  0.011470781685156677    0.011471649377113799    0.011974330719898065    0.013695500590623728    0.009543599188941343    
  0.011975349161870716    0.017691210223577523    0.030542816082962533    0.057916008405988005    0.11034745084911332    
  0.19409862845452566    0.2946498351301906    0.3735474128722135    0.4016314045114038    0.3734998429907054    
  0.29465164979032127    0.19410733508096337    0.1103358023875548    0.05791869441788631    0.030541890454320122    
  0.0176882673633437    0.0119758800960801    0.00954371259690949    0.008606425984474728    0.008372131626827078    
  0.008606834406571767    0.009543599188941343    0.007364669949576437    0.008607109502619116    0.011471041682711647    
  0.017669783060893157    0.030542813485169563    0.05549428651605574    0.09817312155173477    0.15811674871556936    
  0.2209039082322036    0.2616353804738375    0.2616430968694403    0.22092756354639184    0.158102587317062    
  0.09816156340003972    0.0554884611612266    0.030542978980705297    0.017670967680547975    0.011470780913577266    
  0.008606424653416014    0.007365334593489446    0.00691044863898915    0.006910787058044808    0.007364669949576437    
  0.006292531636669602    0.006910766308438519    0.00837210772867725    0.011471042171672592    0.017691204772806897    
  0.029559729250147795    0.05026080944875035    0.08146825588399631    0.11927668884551755    0.15197294748023285    
  0.16513563029628753    0.1519684034508091    0.11925665818678344    0.08146924806948869    0.05027118128723774    
  0.029555680709141722    0.0176880686282168    0.011471649029054216    0.008372127968628825    0.006910448588586027    
  0.006292543433568899    0.006123186195239438    0.006292531636669602    0.0058252503379568644    0.006122947493283314    
  0.0069107665609663    0.008607108483531453    0.011975343106663287    0.018300668666220935    0.02937515862762398    
  0.04674099608033382    0.06973711364269275    0.09338026436252625    0.10888866981124937    0.10888538860706314    
  0.09338155237571773    0.06974646811315835    0.04673053553120604    0.029371801243426338    0.0183044743076448    
  0.011974322789899305    0.00860683112786719    0.006910786148691069    0.006123187196194333    0.005824922921250069    
  0.0058252503379568644    0.005699942525665681    0.005825251189055871    0.006292533227825701    0.007364670885571849    
  0.009543594090307757    0.013695505497307357    0.02108876060334942    0.03318856963577661    0.05054858258642666    
  0.07086323234822998    0.08810492845360178    0.09497816908088662    0.08810492886152943    0.07086323916035057    
  0.0505485750649125    0.03318856635917007    0.021088763895811755    0.013695504346514483    0.009543595701911888    
  0.007364672896773549    0.0062925324086427654    0.005825251849563886    0.005699942525665681    0.005683123034990661    
  0.005806307043900767    0.00626551326933225    0.007314832057971075    0.009444872730526544    0.013495767856607553    
  0.020704159269780042    0.03246903848500702    0.04929355741142309    0.06894490050040232    0.0855920802542484    
  0.09222078480934572    0.08558612350372774    0.06894467260436282    0.04931999839551094    0.03246203234042862    
  0.020694436333867073    0.013499058949339317    0.009444884855338167    0.007315265117197634    0.006265051337526786    
  0.005806433687874201    0.005683123034990661    0.005806432382299584    0.0058062966316768    0.0061416096138919175    
  0.007011431848536773    0.008874605889471818    0.012580109943231119    0.019603152440934437    0.03204141302903092    
  0.05176599428177505    0.07810552404922684    0.10528889105937711    0.12314326807799487    0.12315498843791443    
  0.105289123330208    0.07806972979712674    0.051779089343468455    0.032057261948621164    0.019598274076383693    
  0.012580613287281984    0.008874675581964944    0.007011587653702032    0.006141676966897106    0.005806432382299584    
  0.006265050631645168    0.006056896467119441    0.006265243421332247    0.007011332288296481    0.008747390764417383    
  0.012432945596312802    0.019929665386653122    0.03450545530345063    0.06039692070578096    0.09998058128940013    
  0.14832118196133623    0.19018984422542248    0.20697783402252312    0.19019542341519757    0.14838630404512526    
  0.09996741701280887    0.06037613844511271    0.03451374644480922    0.019931344951021036    0.012433180031888797    
  0.008747334208249781    0.007011587574952183    0.006265050631645168    0.007315261040616827    0.006732367795847551    
  0.00673194426134528    0.0073155046406677094    0.008874286457623736    0.012432783818564871    0.020226022789981705    
  0.03676860356407254    0.06953709583325902    0.126495134895671    0.2067185447227997    0.2890954236905368    
  0.34055507157402726    0.3405296584179775    0.2890006851312791    0.20675486806627016    0.12653806711104926    
  0.06953046692913492    0.03676963258885448    0.020226244908507107    0.012433177340561973    0.008874676536017034    
  0.007315261040616827    0.009444888090055227    0.008192536162810226    0.007867547651990983    0.008192352885661214    
  0.009445190249912565    0.012580261342595303    0.019931004630964474    0.03676716299454615    0.073480646014618    
  0.14506095074040082    0.2586397664169884    0.3856356291223611    0.4691255682297975    0.4928203834476834    
  0.46928481012919443    0.385612693953188    0.2585838518260781    0.14508905469992378    0.07348241127786517    
  0.03676963865760678    0.019931352004775187    0.012580615477049587    0.009444888090055227    0.01349905653670074    
  0.011084061778293436    0.010283924878500057    0.010281104142716402    0.01108744036137523    0.013494873680014364    
  0.019603471223540336    0.0345056551351346    0.06953976293441014    0.14506646325827052    0.2793340746335757    
  0.4387785467463186    0.5181803530166322    0.5054318808531146    0.5053501998552096    0.5182087079364621    
  0.4389311787795169    0.27927806801144917    0.14508906545790232    0.06953048877876017    0.03451375473260201    
  0.019598280916103425    0.01349905653670074    0.02069443074048952    0.01646045656179374    0.015046238104740045    
  0.014775229479490424    0.015045843939259434    0.016461267692214517    0.02069370693411029    0.03205914983506329    
  0.06037326506643591    0.126539539463763    0.25856107459804206    0.43889948453378524    0.5175654983521022    
  0.42755037786667244    0.36235972652743315    0.42752505956517567    0.5175449781235946    0.43893111621679315    
  0.25858383283295683    0.12653806398517936    0.06037613709849042    0.03205726673548891    0.02069443074048952    
  0.03246203506437417    0.025673280801068017    0.02391719603864111    0.023828767373591447    0.023826110696494204    
  0.02392090360387553    0.025671150218981503    0.03246548096656558    0.05177365451460454    0.0999780197729011    
  0.20673575598092642    0.38564330549194714    0.5182227706740117    0.42748965706075875    0.2829766160820115    
  0.2830683678880916    0.42752506718109123    0.5182087243564285    0.3856127125665649    0.20675487464737247    
  0.09996742772195445    0.05177909938349178    0.03246203506437417    0.049320010442239395    0.03986143762261297    
  0.03900482835082819    0.040822774143550844    0.0419589047545655    0.040824582843762725    0.03900272549889108    
  0.039866248887957735    0.049319989312712434    0.07807617124268126    0.14837958080223343    0.28901784314883566    
  0.4692607093113725    0.5052232535332236    0.36252877803025174    0.2829766136048065    0.36235979736473134    
  0.5053502277186095    0.46928480747620516    0.2890007191395078    0.1483863182932563    0.07806974452115754    
  0.049320010442239395    0.06894466380322048    0.05846355530512228    0.06117043057067225    0.06915179766537904    
  0.0755991525927176    0.07561257280286011    0.06914225884776515    0.06118449103242187    0.058452863569214336    
  0.06896071660209604    0.10527706080154882    0.19022414146205754    0.3405230705638574    0.4929425989940015    
  0.5052231815092167    0.4274896572420496    0.4275504552235394    0.5054318826105085    0.49282034132370295    
  0.34052966005905205    0.19019544542158306    0.10528915559431763    0.06894466380322048    0.0855861081701283    
  0.07736401576371668    0.087592689528729    0.1082854495262441    0.12873763650918205    0.13739198965567598    
  0.12873913083783356    0.10828700399360165    0.0876007658430248    0.07736383139625291    0.08559606813073382    
  0.12315542691046143    0.206983649069358    0.34052304285701956    0.46926071121926755    0.518222741655864    
  0.5175655674036506    0.5181804019943109    0.46912550756255345    0.34055508126060124    0.2069778289330213    
  0.12315500158382912    0.0855861081701283    0.09222076574977775    0.08969356803688149    0.1102805986550999    
  0.14936740831589987    0.19439887320917665    0.22490923051461342    0.22491286025529686    0.19440419296993353    
  0.1493674677599504    0.11028871292231764    0.08969753535924259    0.09222531301303745    0.12315543822127342    
  0.19022413490645368    0.28901784143046444    0.38564323368661274    0.4388994873621064    0.43877854473784056    
  0.3856356126296944    0.2890953981904761    0.1901898412259466    0.12314328210593448    0.09222076574977775    
  0.08559207476790273    0.08969453313250066    0.11938905467173483    0.17639500852379436    0.2503484928148325    
  0.3128740820808589    0.33665255666539573    0.31287890904460336    0.2503601798258466    0.17639636293121905    
  0.11939526360847756    0.08969751364948127    0.08559606487741632    0.10527703890438932    0.14837955762835323    
  0.2067357549950074    0.25856104700444116    0.2793340433168429    0.2586397521168611    0.2067185495486056    
  0.14832118965528557    0.10528889980957326    0.08559207476790273    0.06894490790473552    0.07735930823124623    
  0.11028136173823114    0.17639588727044844    0.27221896611527824    0.3654910907740125    0.41690479327015467    
  0.41690220063516287    0.36548035974642273    0.27222909874811707    0.17639638808000813    0.11028872516446774    
  0.07736383893862668    0.06896072067821804    0.07807616555895158    0.09997800460608373    0.12653954179302557    
  0.1450664451982265    0.14506093374477622    0.12649515701395206    0.09998057927314749    0.078105533838177    
  0.06894490790473552    0.04929355906790313    0.05846055798193489    0.08760208578459779    0.14936586477717845    
  0.2503577735222207    0.3654910391905844    0.4427667612529461    0.4651347323099334    0.44276999341859974    
  0.3654803503940557    0.2503602445048541    0.14936750884051614    0.08760078618422146    0.05845286084251398    
  0.04931997664504032    0.051773653691399975    0.06037326273667814    0.06953974584402271    0.07348063826406273    
  0.06953708926563613    0.06039690625057392    0.051766001669217736    0.04929355906790313    0.03246903774544974    
  0.03988466916074184    0.06117434098629718    0.1082852416654896    0.1944033627655153    0.31288779077567025    
  0.416903587133526    0.4651355066888577    0.4651347312196006    0.41690221500441277    0.31287893185902654    
  0.19440417717129121    0.10828701660509037    0.06118449502449737    0.03986623165060439    0.03246547745239937    
  0.03205914522899621    0.03450565134003847    0.03676716777048762    0.036768606302086185    0.03450545172755378    
  0.032041422159582555    0.03246903774544974    0.0207041494906406    0.02566863467279223    0.03898478689898458    
  0.06915091963468385    0.12874468199443706    0.22491731487699457    0.33666058817546113    0.4169035709816967    
  0.4427667783931773    0.4169047560923362    0.3366525540133554    0.22491285916145587    0.12873912861019546    
  0.06914226057454287    0.03900271767964634    0.02567114064725496    0.020693703373003313    0.01960346219419046    
  0.019930998844080113    0.02022602124296498    0.01992965599205271    0.019603154321791074    0.0207041494906406    
  0.013495763110290462    0.016452039415683257    0.02392135854482148    0.0408441745612102    0.0756070738579729    
  0.1373939460805097    0.22491732974682305    0.31288772239253293    0.3654911098872041    0.36549110705344456    
  0.3128741435765087    0.22490924454339725    0.13739198977939887    0.07561256583769345    0.04082457609414136    
  0.023920908150090882    0.016461269730913025    0.013494875848680317    0.012580259886645706    0.012432781964045733    
  0.012432945857433379    0.01258011411918546    0.013495763110290462    0.009444877180739445    0.01108603912670123    
  0.01505491783165229    0.02382685990028076    0.041941886202906814    0.07560708199591736    0.12874470303649996    
  0.19440334026452447    0.2503577941578186    0.27221894776509065    0.2503485242001822    0.19439888351916332    
  0.12873767065349695    0.07559917110202721    0.041958924990574915    0.023826113794639305    0.015045851978139138    
  0.01108744370397054    0.009445193819582406    0.008874286036014962    0.008747392170286658    0.008874609371857432    
  0.009444877180739445    0.0073148308114740785    0.008193275534596344    0.010282042615526812    0.014768060288409934    
  0.023826854235731477    0.04084417150023264    0.06915091134209173    0.10828525270334391    0.14936585154712978    
  0.1763958809705434    0.17639501911500366    0.1493674244645275    0.10828548267375443    0.06915180866085639    
  0.04082276794316754    0.02382876357939018    0.014775234332244588    0.010281099910116383    0.008192350110663408    
  0.007315505031628326    0.007011333332703152    0.0070114326529463235    0.0073148308114740785    0.006265511766593554    
  0.006732041470278295    0.007867392585044373    0.010282041462321175    0.015054909729026822    0.02392135026783016    
  0.038984787493383764    0.06117432900752937    0.08760207058634757    0.11028134714454034    0.11938904506972696    
  0.11028058677530617    0.0875926831738575    0.06117042893954899    0.039004822720437766    0.02391719338348919    
  0.015046237659145728    0.010283923972613107    0.007867542919097909    0.006731942814161639    0.006265243731850289    
  0.0061416097237295166    0.006265511766593554    0.0058063060965790605    0.006056757150466606    0.006732041543996835    
  0.008193273256597819    0.011086035404020514    0.016452034989168914    0.025668636495578014    0.03988464839228211    
  0.05846054008838189    0.07735928777826041    0.0896945092656932    0.08969355421291408    0.07736401293759652    
  0.05846354671847074    0.039861427255647744    0.025673271759738176    0.016460453850316834    0.011084059334160743    
  0.008192533747080349    0.006732367942073005    0.006056898225318459    0.005806299139736708    0.0058063060965790605    
  0.005683123034990661    0.005806307043900767    0.00626551326933225    0.007314832057971075    0.009444872730526544    
  0.013495767856607553    0.020704159269780042    0.03246903848500702    0.04929355741142309    0.06894490050040232    
  0.0855920802542484    0.09222078480934572    0.08558612350372774    0.06894467260436282    0.04931999839551094    
  0.03246203234042862    0.020694436333867073    0.013499058949339317    0.009444884855338167    0.007315265117197634    
  0.006265051337526786    0.005806433687874201    0.005683123034990661    0.005636304386274546    0.005752937544585452    
  0.006182657556904861    0.00716569298512242    0.009153378250790684    0.012914117216920052    0.01956719113226445    
  0.030349062931326398    0.045636749382116565    0.0633602686099855    0.07829471148389419    0.08422654072885934    
  0.07828201719715586    0.06335831319087584    0.045680129868545846    0.030340147829447987    0.019550126260450877    
  0.012919359944150003    0.00915354422133327    0.0071663683910219616    0.006182038312876096    0.005753218369814186    
  0.005636304386274546    0.005753216245993657    0.005752443924818819    0.006103892612140871    0.007003626787400831    
  0.008926055195849098    0.012743315375140207    0.01998809243928169    0.032864745898909566    0.05333544258643031    
  0.08069963640633032    0.10893369928399707    0.1274462645660784    0.1274690926978523    0.10893880336761158    
  0.08064137353504186    0.05334958215053969    0.03289288938701539    0.01997975464841228    0.012744280056688099    
  0.008925377788113989    0.007004629551762934    0.006103283418959215    0.005753216245993657    0.006182038363147695    
  0.00595217960211696    0.006182420776711856    0.007004120471139155    0.008900139574319555    0.012925671357470072    
  0.021162940445350716    0.037309055450845466    0.06618792858292559    0.11058129203073253    0.16488370312767267    
  0.21173095564323913    0.2303946988938856    0.211727463957438    0.16498687497318446    0.11056563550174212    
  0.06615013573005275    0.03732279370834636    0.021164785139375464    0.012926695642431266    0.00889961590458901    
  0.0070046281805727605    0.006182038363147695    0.007166365050177325    0.006503111692931711    0.006503228280393466    
  0.007165699273944651    0.008925847795321254    0.012925209263282477    0.02173717046035768    0.040645965662412825    
  0.07849253745102659    0.1446849949352751    0.2375306384280392    0.33068836025617987    0.38675832875409527    
  0.38672766370180844    0.3305387100920224    0.23757238163032188    0.14476166289597725    0.07847617015676808    
  0.04064830432511808    0.021735737397034625    0.01292669305150339    0.00892537891241554    0.007166365050177325    
  0.009153546655544206    0.007701054821597594    0.007319179721471097    0.007700990929787934    0.009154388014675227    
  0.012742730226804538    0.021165528440915866    0.04064319937767357    0.0836221459118217    0.1680196018082635    
  0.3002716273613606    0.43816319769580764    0.5125787939666446    0.5270044208954845    0.5128140026040211    
  0.43813716595402824    0.3001620025104134    0.16806686397186185    0.08362266209448571    0.040648310597124745    
  0.021164793036351593    0.012744284691121387    0.009153546655544206    0.012919357347601378    0.01006761725497289    
  0.00908228689135547    0.00907733088959224    0.010072609271557943    0.012912765115681065    0.01998917994814555    
  0.03730813970232202    0.07849587693277985    0.1680268347385272    0.3246410996582138    0.4896963704432039    
  0.5227633282383393    0.45794356045655515    0.45783285008781294    0.5227738333503039    0.4899568894725162    
  0.3245324249102955    0.16806687466098646    0.07847618815160186    0.03732279272574959    0.01997976300399676    
  0.012919357347601378    0.019550118784670282    0.01441906867926932    0.012507165468964944    0.012081100473419988    
  0.012506970649338891    0.014420365120445906    0.019548150223067214    0.03289523490547842    0.06614576715918878    
  0.14476363475493934    0.3001326281788458    0.48989410639195746    0.4990270958319607    0.32199913689764015    
  0.23577836904100238    0.3219868753878614    0.4989575802516174    0.4899568307215821    0.3001619951081186    
  0.14476166113801012    0.06615013217101286    0.032892900030959876    0.019550118784670282    0.030340151619051695    
  0.02169397529312687    0.018726494288123525    0.01795137305150848    0.017949583808840576    0.018728699979106415    