#     DFTpy    
  CRYSTAL 
    
  PRIMVEC    
  1.4798551000249303    -2.563184221083102    0.0    
  1.4798551000249303    2.563184221083102    0.0    
  0.0    0.0    5.003512775655173    
  PRIMCOORD    
  2    1    
  Si    1.4798551000249303    0.8543947403610339    1.2508781939137932    
  Si    1.4798551000249305    -0.8543947403610339    3.7526345817413786    
  BEGIN_BLOCK_DATAGRID_3D    
  3d_datagrid_density    
  BEGIN_DATAGRID_3D#0    
  13    13    23    
  0.0    0.0    0.0    
  1.4798551000249303    -2.563184221083102    0.0    
  1.4798551000249303    2.563184221083102    0.0    
  0.0    0.0    5.003512775655173    
  0.07800488613566768    0.08257815287240207    0.09632873982562094    0.11833968257402198    0.14428663418673585    
  0.16611951572026415    0.17486445058043773    0.1661195378439526    0.1442866275738689    0.11833969156526625    
  0.09632873219931991    0.08257815445596751    0.07800488613566768    0.08257816516395129    0.0825773046757028    
  0.09175228599448464    0.10984664692795325    0.13451676423203437    0.15936144579050615    0.17539499185304072    
  0.175393221383904    0.15936121731913755    0.13451664935123517    0.10984683799572675    0.09175206293654213    
  0.08257816516395129    0.09632872686057203    0.09175227071754181    0.09632955245580015    0.10984653203358116    
  0.13114848697662593    0.15602864749438453    0.17660383659353146    0.18468190566155487    0.17660556039220796    
  0.15602930707247067    0.13114789833498922    0.1098468341599978    0.09632872686057203    0.11833969694198164    
  0.10984664293668438    0.1098465447579795    0.1183390472550485    0.13451662245347823    0.1560290447924801    
  0.17727647816176956    0.19074684803586778    0.1907476350389042    0.17727356635885955    0.15602929832115198    
  0.1345166735096399    0.11833969694198164    0.14428664234837135    0.13451674862737614    0.13114848593742034    
  0.13451661889119487    0.14428744177505567    0.1593612908407538    0.17660325633879495    0.19074758594655672    
  0.1963344336961592    0.19074763947551215    0.1766055866595255    0.15936120002524692    0.14428664234837135    
  0.16611953112654307    0.15936145406285318    0.1560286452863582    0.1560290300356457    0.15936129463515358    
  0.16611849928880756    0.175395476153411    0.18468146231971244    0.190747565392806    0.19074685781756207    
  0.1846819004524354    0.1753932155473762    0.16611953112654307    0.174864448639381    0.17539498332542863    
  0.17660383678214822    0.17727646804353148    0.17660326284169342    0.17539545000118617    0.17486254142260904    
  0.1753954616159055    0.17660326368206206    0.17727646536259936    0.17660385249775074    0.17539498529590383    
  0.174864448639381    0.16611951937355846    0.17539322576261884    0.18468189241157587    0.19074685032861852    
  0.190747588026328    0.18468145022352378    0.1753954604582926    0.1661185243466042    0.15936126544959914    
  0.15602904137976972    0.15602866172036794    0.15936144873101657    0.16611951937355846    0.14428662081892615    
  0.15936121282962232    0.17660556881104106    0.19074762833899825    0.19633442239253868    0.1907475597579824    
  0.17660326739344773    0.15936128953353157    0.14428741842351728    0.13451663935985747    0.13114848454161518    
  0.1345167372353815    0.14428662081892615    0.11833970647966466    0.13451664867893753    0.15602929037635874    
  0.17727357154246595    0.19074764813214523    0.19074688208234866    0.17727646551846124    0.15602906627495305    
  0.13451661878492138    0.11833905053474404    0.10984653549759885    0.10984663365558689    0.11833970647966466    
  0.09632874061747497    0.10984683326704509    0.13114790481563013    0.15602928095764163    0.17660558645983665    
  0.18468189627947576    0.17660380288561714    0.15602864836759708    0.13114846046329653    0.10984652476378384    
  0.09632954986035334    0.09175227691828321    0.09632874061747497    0.08257815446534095    0.09175205383911751    
  0.10984683872373331    0.13451665675192093    0.159361232092584    0.17539319016020777    0.17539498294908246    
  0.1593614824782398    0.13451673297299957    0.10984665383468771    0.09175228965330892    0.08257730894442293    
  0.08257815446534095    0.07800488613566768    0.08257815287240207    0.09632873982562094    0.11833968257402198    
  0.14428663418673585    0.16611951572026415    0.17486445058043773    0.1661195378439526    0.1442866275738689    
  0.11833969156526625    0.09632873219931991    0.08257815445596751    0.07800488613566768    0.08242285941439034    
  0.08748896357616921    0.10262239152077526    0.1267881102631426    0.15534934937599812    0.1792766759182779    
  0.18877444170993565    0.1792761964340021    0.1553499292264509    0.12678780231605152    0.10262044400133988    
  0.0874893645978308    0.08242285941439034    0.0874893713944778    0.08748897194526668    0.09518188866907343    
  0.1103016679967174    0.1307799274906155    0.151154449282137    0.1640798479380951    0.16408061823061473    
  0.1511537034684662    0.1307799031763353    0.11030251352276588    0.09518280395946756    0.0874893713944778    
  0.10262043914690731    0.10005866213835332    0.10262243262067273    0.11030181298679344    0.12242243214747447    
  0.13646286569737184    0.14797680891394957    0.1524532143419704    0.14797655997025175    0.13646398685294886    
  0.12242084264226825    0.11030251173247238    0.10262043914690731    0.12678777689940426    0.1249156622442636    
  0.12491339443111625    0.12678799370960353    0.1307796314201595    0.13646324934731077    0.14240028965833365    
  0.14625994697696412    0.1462605647518182    0.14239921624544863    0.13646398564623957    0.13077990173326276    
  0.12678777689940426    0.15534994794397344    0.1591918337268366    0.16084358317915462    0.1591919879864239    
  0.15535011049252953    0.1511539623468952    0.14797658018296983    0.14626026792524277    0.1457231928801831    
  0.1462605482776901    0.14797657534909073    0.15115369629556769    0.15534994794397344    0.1792761899724828    
  0.19411641538043922    0.2036089652090646    0.2036114123374265    0.19411573035849528    0.1792762473196714    
  0.16408039468702093    0.1524530140525332    0.1462602570372205    0.14625994346137827    0.15245321292719968    
  0.16408061289082515    0.1792761899724828    0.18877444682392028    0.21671480735757845    0.23909256929396125    
  0.24771175280940247    0.23909032801228638    0.2167146560051401    0.18877399677388632    0.16408039466118077    
  0.14797659730119633    0.14240029001337573    0.14797682255368053    0.164079849882464    0.18877444682392028    
  0.1792767067624886    0.21671428532667478    0.2529228047358746    0.2749750504052743    0.2749743384611352    
  0.25292508674829106    0.2167146784863888    0.1792762923064431    0.15115394144706637    0.13646325482549249    
  0.13646286642405148    0.1511544334358871    0.1792767067624886    0.15534933705452975    0.1941159112286393    
  0.2390934714560839    0.27497390130112287    0.2884934936532857    0.27497428576878685    0.23909031919144003    
  0.19411573369216928    0.15535007981549293    0.1307796439863286    0.12242241886273297    0.13077989481038116    
  0.15534933705452975    0.12678812518510357    0.1591925991065872    0.20360827618013466    0.24771199191855414    
  0.27497394630514693    0.2749750699493301    0.24771177845158082    0.20361145865787603    0.15919198099534992    
  0.12678802178530252    0.11030184018790394    0.11030167862328645    0.12678812518510357    0.10262239236249227    
  0.12491306076801233    0.16084593961690283    0.20360826900507914    0.23909346919767024    0.2529228097437428    
  0.23909254891399165    0.20360897773202516    0.16084355536062636    0.1249133745179952    0.10262243142993793    
  0.09518187945195966    0.10262239236249227    0.08748897434980224    0.10005910082633546    0.12491306713203518    
  0.15919258890336122    0.19411589963531115    0.21671424415406035    0.21671480068495944    0.19411646236750738    
  0.15919181277550773    0.1249156503238984    0.10005866895376901    0.08748895883460092    0.08748897434980224    
  0.08242285941439034    0.08748896357616921    0.10262239152077526    0.1267881102631426    0.15534934937599812    
  0.1792766759182779    0.18877444170993565    0.1792761964340021    0.1553499292264509    0.12678780231605152    
  0.10262044400133988    0.0874893645978308    0.08242285941439034    0.09506283772316787    0.1015469330349905    
  0.12074820020766475    0.15132867314362833    0.18750373409393964    0.2174712183674992    0.2291601022139729    
  0.21747126736173544    0.18750484584471297    0.1513281440670278    0.12074720168404833    0.10154641689204673    
  0.09506283772316787    0.10154642122116583    0.10154627046770541    0.10942971277285055    0.12455042123997508    
  0.14475559368149762    0.16470309990293827    0.17727706886818598    0.17727663072180622    0.16470447114968306    
  0.1447535530165467    0.12455133096524677    0.10943064021180274    0.10154642122116583    0.12074719797520982    
  0.11953754197625013    0.12074756548935463    0.12455262416563186    0.13077161978086596    0.13822531686020842    
  0.1445417192335268    0.1470338751634377    0.14454078209168528    0.13822457334808763    0.1307732639967867    
  0.1245513335654783    0.12074719797520982    0.15132812876039914    0.1556169529939317    0.15561786993766435    
  0.15132679790976242    0.1447552780025849    0.1382235691241318    0.13362298298132025    0.1312832398579886    
  0.13128430273573016    0.13362333127784265    0.13822455542418519    0.1447535744470755    0.15132812876039914    
  0.18750486245526224    0.20569787632231823    0.212728287360013    0.20569741022861715    0.18750371354675943    
  0.16470527004865917    0.14454160258634402    0.1312848410968141    0.12659485829110603    0.13128429473913975    
  0.1445408055439052    0.16470445946533363    0.18750486245526224    0.2174712754343763    0.255815318367611    
  0.27864102565782317    0.2786393960284478    0.25582033505123997    0.21746801931867835    0.17727748805486024    
  0.14703170363426826    0.13128482848686737    0.13128324020094306    0.14703386774299163    0.1772766118044635    
  0.2174712754343763    0.22916010044036897    0.286923691534236    0.3283307671535816    0.3420688565029848    
  0.32832616787876523    0.28692297194701144    0.2291615294315889    0.1772774538340514    0.14454160067721863    
  0.13362297273520196    0.1445417213307938    0.177277040600332    0.22916010044036897    0.21747125496075437    
  0.28692148150380264    0.34567163951184915    0.3722817287939924    0.3722868699021389    0.3456697497720242    
  0.28692298169205144    0.21746804366329778    0.16470525063375746    0.13822357044638844    0.13822532451664934    
  0.16470309819646656    0.21747125496075437    0.18750371783512568    0.2558200164707726    0.32832702238129596    
  0.3722869908311913    0.3833742374967263    0.3722868038401958    0.3283261600442797    0.25582032501797364    
  0.18750367669136828    0.14475528270112833    0.1307716040269065    0.14475557014014448    0.18750371783512568    
  0.15132869249970873    0.20569469550134306    0.2786406183455285    0.3420656730915624    0.3722870013246123    
  0.37228174394497643    0.34206884060287257    0.278639411249045    0.20569740919644175    0.15132681561100916    
  0.12455265418360052    0.1245504159144485    0.15132869249970873    0.12074819330384892    0.15561767789776906    
  0.2127301038857185    0.2786405946355974    0.3283270110865781    0.34567163551730373    0.328330780632041    
  0.27864102885658004    0.2127282704765639    0.15561786275910827    0.12074756237232229    0.10942970584440931    
  0.12074819330384892    0.10154693769168216    0.11953585182179405    0.15561767329913845    0.20569467589284615    
  0.2558200339293606    0.28692143809606213    0.2869236744602149    0.25581533454803534    0.2056978309877218    
  0.15561694897958472    0.11953754667978589    0.10154627075698651    0.10154693769168216    0.09506283772316787    
  0.1015469330349905    0.12074820020766475    0.15132867314362833    0.18750373409393964    0.2174712183674992    
  0.2291601022139729    0.21747126736173544    0.18750484584471297    0.1513281440670278    0.12074720168404833    
  0.10154641689204673    0.09506283772316787    0.11371512486359021    0.12223331872088106    0.14749752643728048    
  0.1876136184090545    0.23424002873571378    0.27147250113740556    0.28544588486724093    0.2714688894905257    
  0.23426616036250586    0.18760687417187477    0.14749351037356087    0.12223327529627222    0.11371512486359021    
  0.12223328494935334    0.12223270321742798    0.13134214266268057    0.14851212064715275    0.17112555199281942    
  0.19319806352917554    0.20712076436211393    0.20713298933771548    0.19319948643448312    0.1711048788960987    
  0.14851567543801336    0.13134636303331623    0.12223328494935334    0.14749349240289564    0.14729459758728222    
  0.14749979425937038    0.14851738505557543    0.1507573740555474    0.15400809864266715    0.1571384934322197    
  0.15846307296317985    0.1571295039214236    0.15400582998784404    0.15077620755528862    0.14851566943560948    
  0.14749349240289564    0.18760686260217802    0.1980060150012868    0.1979963976967726    0.18760642679560502    
  0.17112575727596804    0.15400231115975854    0.14094981528202374    0.13395200588703374    0.13395226029478155    
  0.14095691785950973    0.1540058396435536    0.17110489936946144    0.18760686260217802    0.23426617166463212    
  0.2662949024592611    0.27822803807050517    0.26629873089856804    0.23423880188616797    0.19320605605178984    
  0.15713621394906252    0.13395206663001988    0.1259759195026901    0.1339522499388736    0.15712953141196467    
  0.19319947016911201    0.23426617166463212    0.2714688872650753    0.3275021903464681    0.3549716333117149    
  0.354985467371598    0.32753174943182295    0.2714635771298265    0.20712316143307977    0.15846456709021178    
  0.13395208496637773    0.1339520092354177    0.15846307234999416    0.2071329651603558    0.2714688872650753    
  0.28544589185584096    0.3588558555874803    0.38803903740443774    0.38873329585688665    0.3879794566311445    
  0.3588732819698913    0.2854511855742387    0.20712314166063991    0.15713623223006087    0.14094981016675984    
  0.15713850243293698    0.20712076211383496    0.28544589185584096    0.2714725185891068    0.35887421106342576    
  0.3905593530191571    0.36922415004867604    0.369289336818483    0.39053871584441574    0.35887329880149804    
  0.2714635991074482    0.19320602502067352    0.154002286699108    0.15400812096689037    0.19319805393666206    
  0.2714725185891068    0.23423999681683463    0.32753209738153194    0.38797463712029345    0.369289682188891    
  0.34324478179001905    0.3692893225312264    0.38797946308209974    0.32753175097723725    0.23423880121011825    
  0.1711257700065265    0.15075734033133997    0.17112553109407885    0.23423999681683463    0.1876136429928516    
  0.266287612030839    0.3549899852821392    0.38871590891995705    0.3692897001476682    0.3692241788185875    
  0.3887333144800823    0.3549855078614446    0.26629874300032064    0.18760643210145939    0.14851741018273482    
  0.14851215318103989    0.1876136429928516    0.1474975048437914    0.19800000276956975    0.27822975013908    
  0.3549899812736476    0.38797462550952055    0.39055937480052694    0.38803903649341165    0.35497163154715833    
  0.2782280064994812    0.19799637668068062    0.14749979457476892    0.1313421237416038    0.1474975048437914    
  0.12223331535941574    0.14729492214274106    0.19799998282508283    0.2662876094568816    0.327532101356428    
  0.35887414588207645    0.3588558472622269    0.3275022400849547    0.2662948651477237    0.19800601667185647    
  0.14729461778918315    0.12223268844296346    0.12223331535941574    0.11371512486359021    0.12223331872088106    
  0.14749752643728048    0.1876136184090545    0.23424002873571378    0.27147250113740556    0.28544588486724093    
  0.2714688894905257    0.23426616036250586    0.18760687417187477    0.14749351037356087    0.12223327529627222    
  0.11371512486359021    0.13313523085481901    0.14375592739657805    0.17541120080872788    0.22512618204974666    
  0.280410928180639    0.32088214775230683    0.33461888446176613    0.3208570153153383    0.2805256343971755    
  0.22510443938695265    0.17537891822290325    0.14375996592561405    0.13313523085481901    0.14375997630193701    
  0.14376468432985864    0.15433118762913978    0.1742428779633036    0.20024444354618068    0.2249962365054178    
  0.24034641682990346    0.24039983175196541    0.22500671044821147    0.2001534305728423    0.17425667397519443    
  0.15436335176161178    0.14375997630193701    0.1753789101928899    0.17600054560327974    0.17541423755357002    
  0.17426908063297866    0.1737022026075014    0.17434152722699484    0.17550385760757362    0.17608123266998976    
  0.17546736837941426    0.17432891915120385    0.17378699991609098    0.17425666593012398    0.1753789101928899    
  0.22510441902287692    0.24067351353741429    0.24062102896945498    0.22509432119409223    0.20024513446410408    
  0.17431475479934277    0.154550799772413    0.14407258210015847    0.14406846667971532    0.1545835352037935    
  0.1743289146635067    0.2001534731617948    0.22510441902287692    0.28052567608537166    0.32122243505408693    
  0.3352211866119159    0.3212484656658993    0.28040942843901356    0.22502821223143124    0.17550065372950502    
  0.14406441531991238    0.13351641571075673    0.14406846572600884    0.1754673849386184    0.22500669955970312    
  0.28052567608537166    0.32085702853728115    0.3761852885592956    0.38920274359726614    0.38926683754925406    
  0.37629803754104574    0.32084960058930234    0.24034584147915194    0.1760967990603494    0.1440644235151734    
  0.14407257804185689    0.1760812277532415    0.24039980436682035    0.32085702853728115    0.3346188733766691    
  0.3888007771949249    0.35890817045400725    0.3279595686375328    0.3587000923920442    0.388851074067936    
  0.334659758711163    0.24034583236306506    0.1755006490529936    0.1545508003931593    0.17550384676752584    
  0.24034643328233463    0.3346188733766691    0.3208821630435276    0.3888674598572723    0.3278343173884097    
  0.23189877469591447    0.23206258240800245    0.3278003825527851    0.38885107642153616    0.3208495923058031    
  0.22502820803642434    0.1743147368741009    0.17434153990823212    0.22499623759980583    0.3208821630435276    
  0.28041091103095284    0.37629847653143494    0.3586976671689481    0.23206261314758408    0.17145663477638193    
  0.23206255415440621    0.35870007002326065    0.37629802179573363    0.2804094316528579    0.2002451413039758    
  0.17370219080264904    0.20024443184854607    0.28041091103095284    0.22512620828455507    0.3212129730872251    
  0.3892529550677663    0.32792735540074003    0.23206261842430148    0.23189877526450825    0.32795957759172295    
  0.38926690177028667    0.3212484465482627    0.22509433350334085    0.17426911035293804    0.1742428874957691    
  0.22512620828455507    0.1754112102151717    0.2406204351227598    0.33526241108889976    0.38925291309246063    
  0.3586976660019482    0.3278343411114784    0.35890814878136135    0.38920272316305876    0.33522115792792884    
  0.24062100498880584    0.17541423677498602    0.15433115346359844    0.1754112102151717    0.14375593899256445    
  0.17601643245981363    0.24062045118126846    0.32121294956921037    0.37629850224189465    0.3888674320337132    
  0.3888007656148067    0.3761853405053359    0.32122242245986704    0.24067352900273922    0.1760005672942216    
  0.14376467786092606    0.14375593899256445    0.13313523085481901    0.14375592739657805    0.17541120080872788    
  0.22512618204974666    0.280410928180639    0.32088214775230683    0.33461888446176613    0.3208570153153383    
  0.2805256343971755    0.22510443938695265    0.17537891822290325    0.14375996592561405    0.13313523085481901    
  0.14560702317811158    0.15766458671896186    0.19362567198021796    0.24935261533704245    0.3087005212434725    
  0.3480691301473587    0.35972284031681706    0.3480115448107052    0.3088975200398359    0.2493265785278218    
  0.19355150953509903    0.15767545074935552    0.14560702317811158    0.15767546712678648    0.15768740685184476    
  0.1693499690783642    0.19126490289985826    0.2196174567190832    0.24592815703756674    0.2617969243687537    
  0.2618999839943123    0.24595381660235702    0.21945652804997925    0.19128526238684723    0.1694212787787415    
  0.15767546712678648    0.19355148593334767    0.19453487601317723    0.19362742982121706    0.19130898286896453    
  0.18909087703067068    0.18833071701635795    0.18847497642369154    0.1886238371198899    0.18840335737170372    
  0.1883071273893936    0.18924129897341657    0.1912852584900903    0.19355148593334767    0.24932656051693136    
  0.26743683857751    0.2673294297241873    0.24930009128238567    0.2196168184136886    0.1882870818759553    
  0.1645414288065934    0.15215266520702703    0.1521403170654637    0.16460965724048934    0.18830713941778426    
  0.2194565547416252    0.24932656051693136    0.30889752986143265    0.3514009719176737    0.36441422215490643    
  0.3514579793020016    0.30870263356602207    0.24598020601146656    0.18847383186773634    0.15212997875171363    
  0.14013380446249607    0.15214030273623658    0.18840336229629012    0.2459538077309204    0.30889752986143265    
  0.34801157151163314    0.3912457599731196    0.3841744245568475    0.3842840627509074    0.39141840667121086    
  0.3480189504975683    0.26178395238222774    0.18866189823103174    0.15212997054448435    0.15215266540222167    
  0.1886238385246225    0.26189995093489454    0.34801157151163314    0.35972284067585947    0.38186874710840535    
  0.2997334599983687    0.24908900840157375    0.2994448854282376    0.38191862376580055    0.35982643759485233    
  0.2617839487777048    0.1884738251722871    0.16454147219374396    0.18847497698303753    0.26179689251158433    
  0.35972284067585947    0.3480691340133764    0.3819736354893137    0.24835883543349557    0.12861593886122    
  0.12877267269065532    0.2483522306511592    0.38191865450267626    0.3480189729434462    0.24598020065566983    
  0.18828706049514374    0.18833072842109347    0.24592816767399295    0.3480691340133764    0.3087005116965398    
  0.39141749189496144    0.299448296199233    0.12877243233964242    0.07255049538352608    0.12877264511248593    
  0.2994448949512429    0.3914184360055058    0.30870261950107286    0.2196168291787126    0.18909086174769316    
  0.21961745025551468    0.3087005116965398    0.24935262046510354    0.35141189181269744    0.38422356163469995    
  0.24908062813820903    0.12877245249865682    0.12861594142059415    0.2490889993635232    0.3842841144062305    
  0.35145800039427677    0.24930010030229538    0.19130901563933678    0.19126491718135405    0.24935262046510354    
  0.19362566894730698    0.26731565962332554    0.3645203112563848    0.3842235393623682    0.2994482694392363    
  0.24835883967252134    0.2997334476285044    0.3841744158640634    0.36441418322047653    0.26732940935383953    
  0.1936274564017545    0.16934994569462025    0.19362566894730698    0.15766456664298062    0.19457433385220652    
  0.2673156630317526    0.35141189351997393    0.391417526904995    0.38197359788778135    0.3818687155653146    
  0.39124580601199543    0.35140093923956994    0.2674368537161779    0.19453488021860119    0.15768739853529867    
  0.15766456664298062    0.14560702317811158    0.15766458671896186    0.19362567198021796    0.24935261533704245    
  0.3087005212434725    0.3480691301473587    0.35972284031681706    0.3480115448107052    0.3088975200398359    
  0.2493265785278218    0.19355150953509903    0.15767545074935552    0.14560702317811158    0.14560684161784904    
  0.15766478408699458    0.1936254621687513    0.2493528643710388    0.30870025800705614    0.3480694090345625    
  0.3597225514814953    0.34801182441689843    0.3088972598430536    0.24932682335279477    0.19355129536443694    
  0.15767565578549125    0.14560684161784904    0.15767565723604737    0.15768720179138324    0.16935016777880876    
  0.19126469202207025    0.2196176723637008    0.24592792934658494    0.26179716196122055    0.2618997309299205    
  0.24595404967974774    0.21945631061365836    0.19128547776317922    0.1694210783103146    0.15767565723604737    
  0.19355127360929286    0.1945351008340286    0.19362720558026644    0.19130919714924866    0.18909067129648452    
  0.1883309266415975    0.18847477344295938    0.18862404752298792    0.1884031481112535    0.18830734312705555    
  0.18924108001871956    0.19128548164086695    0.19355127360929286    0.249326788273934    0.2674365730726079    
  0.2673296787191545    0.24929984405919817    0.21961704313056682    0.18828687550229734    0.16454162165610642    
  0.15215248279799076    0.152140504632736    0.16460945175772404    0.18830735388826952    0.2194563424269767    
  0.249326788273934    0.3088972628546546    0.3514012654854849    0.36441391954986363    0.35145827663273793    
  0.3087023667611779    0.24598045580382144    0.18847361937437399    0.1521301701109964    0.14013362081921696    
  0.15214049383246067    0.18840315018433368    0.2459540607646801    0.3088972628546546    0.34801184924393136    
  0.39124545982436537    0.3841747267312491    0.38428377537703207    0.39141872428231905    0.3480186714272704    
  0.2617842178728833    0.18866168701829586    0.15213015921781392    0.1521524731982561    0.18862405515128697    
  0.2618997125409024    0.34801184924393136    0.35972255995172076    0.38186903181499277    0.2997331880326948    
  0.24908925906565108    0.29944461093635294    0.38191892812728906    0.35982615626387193    0.2617842027983792    
  0.18847361865151532    0.1645416670750598    0.18847476500304872    0.2617971582584345    0.35972255995172076    
  0.3480694186144349    0.3819733426150916    0.24835907375214578    0.1286157481995766    0.12877285911074368    
  0.24835198028620856    0.38191894182455766    0.34801869345298136    0.24598044578262226    0.18828685109836357    
  0.18833093567099926    0.24592792081413964    0.3480694186144349    0.3087002445670808    0.39141779274253186    
  0.29944802224168565    0.1287726194860003    0.07255035303752261    0.12877283172274168    0.29944462877909267    
  0.39141873341175715    0.3087023521845018    0.2196170609750664    0.1890906480721958    0.21961767200903917    
  0.3087002445670808    0.24935286144689103    0.3514116125466618    0.3842238743389309    0.24908038771791677    
  0.1287726403386785    0.12861576719373163    0.24908925217343508    0.38428382455582255    0.3514582876915263    
  0.24929986422748593    0.19130922632233258    0.1912647036600004    0.24935286144689103    0.19362546164695482    
  0.26731590527135574    0.36452002038256404    0.3842238431289546    0.2994479940663793    0.2483590735487216    
  0.2997331895194411    0.38417470173053714    0.36441390479206875    0.2673296670301492    0.19362723449933514    
  0.1693501508147056    0.19362546164695482    0.1576647593172127    0.1945741341758133    0.26731591174113983    
  0.35141159773401875    0.3914178107158821    0.38197330204073365    0.3818690104459474    0.3912455107700976    
  0.3514012148103894    0.2674365965130404    0.19453509963738735    0.15768720702003292    0.1576647593172127    
  0.14560684161784904    0.15766478408699458    0.1936254621687513    0.2493528643710388    0.30870025800705614    
  0.3480694090345625    0.3597225514814953    0.34801182441689843    0.3088972598430536    0.24932682335279477    
  0.19355129536443694    0.15767565578549125    0.14560684161784904    0.13313539920889006    0.14375574733664082    
  0.17541140532307645    0.22512597562604716    0.2804111755074482    0.3208818761269959    0.3346191619428514    
  0.32085674146469945    0.2805259022705508    0.22510420722843877    0.17537911716589297    0.14375978359038785    
  0.13313539920889006    0.14375978511901358    0.14376486120744195    0.15433098580665755    0.17424307992542915    
  0.20024422138784428    0.2249964599389978    0.24034618193070803    0.24040007913546216    0.22500647799089407    
  0.20015364621944512    0.1742564658126821    0.1543635450218852    0.14375978511901358    0.1753791009786207    
  0.1760003495723591    0.1754144435325463    0.17426886649032802    0.17370240586698044    0.17434132903622634    
  0.17550405832634333    0.17608102148188076    0.17546756733911598    0.17432871009710924    0.17378720148158208    
  0.17425647157409163    0.1753791009786207    0.22510418259322906    0.24067374207414285    0.2406207884545162    
  0.22509455652377905    0.20024491069627678    0.17431496691745824    0.1545506006551797    0.1440727712666725    
  0.14406827651627704    0.15458372754707805    0.17432869960981145    0.20015367513913002    0.22510418259322906    
  0.2805259252756961    0.3212221579197346    0.33522144886462024    0.3212482020408779    0.28040968869765426    
  0.22502798824047932    0.17550087090872196    0.14406423023268558    0.13351659905629626    0.1440682814003849    
  0.1754675745075688    0.22500647436510257    0.2805259252756961    0.3208567396801589    0.3761855875150196    
  0.38920246033702516    0.3892671449237293    0.3762977324104557    0.32084985823723416    0.2403456025609857    
  0.1760969933303694    0.14406422021452644    0.14407276384579407    0.17608102363722422    0.2404000457884644    