#     DFTpy    
  CRYSTAL 
    
  PRIMVEC    
  1.1295443167720547    -1.9564281460498731    0.0    
  1.1295443167720547    1.9564281460498731    0.0    
  0.0    0.0    2.126167577586207    
  PRIMCOORD    
  1    1    
  Si    0.0    0.0    0.0    
  BEGIN_BLOCK_DATAGRID_3D    
  3d_datagrid_density    
  BEGIN_DATAGRID_3D#0    
  11    11    11    
  0.0    0.0    0.0    
  1.1295443167720547    -1.9564281460498731    0.0    
  1.1295443167720547    1.9564281460498731    0.0    
  0.0    0.0    2.126167577586207    
  0.050414767340325246    0.09210007000531274    0.25734117588754696    0.4755777020590694    0.5610735760867293    
  0.5643987451978453    0.5610735979382419    0.4755777182396594    0.2573411417013614    0.09210006563655508    
  0.050414767340325246    0.09210006500318992    0.09212120325389794    0.19962059150931238    0.4064412858634717    
  0.5422178120217893    0.5598543144779792    0.5598487351314922    0.5422326047638507    0.40637543042428065    
  0.1996724806718508    0.09210006500318992    0.25734116738065443    0.19962058758192056    0.2573579990029861    
  0.40640352303832145    0.5292329608973655    0.5515503347863552    0.5430972896004184    0.5515358434767053    
  0.5293044471150976    0.4063754695811976    0.25734116738065443    0.47557773312153157    0.4064412422289386    
  0.40640356895351926    0.4755844910351851    0.5422094899195398    0.5516052201918202    0.5332497685852053    
  0.5332696623993134    0.5515358324803284    0.5422325677789037    0.47557773312153157    0.561073577808779    
  0.5422177699564091    0.5292329207681136    0.5422094742205038    0.5610795071909314    0.5598584807948062    
  0.5430408289803681    0.5332497947142    0.5430972914730182    0.5598487179792415    0.561073577808779    
  0.5643987435203727    0.5598543077736677    0.5515503315134673    0.5516051723436699    0.5598585043155387    
  0.5643825449250491    0.5598585519572633    0.5516051546058267    0.5515502705925405    0.5598543727510291    
  0.5643987435203727    0.561073563073286    0.5598486988228109    0.5430972939420337    0.53324977674743    
  0.5430408151201758    0.5598584926899527    0.5610795025224775    0.5422094831746144    0.5292329421870874    
  0.5422178500350934    0.561073563073286    0.4755777281519022    0.5422325776223459    0.5515358689804346    
  0.5332696580508443    0.5332497664836914    0.5516051906831133    0.5422094834156508    0.4755844878263791    
  0.4064034941722327    0.4064412683736976    0.4755777281519022    0.25734116890566733    0.4063754469712818    
  0.5293044996593212    0.5515358546055761    0.5430972687278083    0.5515503570790761    0.529232918576226    
  0.4064035500406722    0.25735800795644576    0.19962057754105447    0.25734116890566733    0.09210006878739604    
  0.19967246274322142    0.4063754390440428    0.5422326056811833    0.5598487125792588    0.5598543086503518    
  0.5422178052648778    0.4064412983065261    0.19962060003327073    0.09212120835340096    0.09210006878739604    
  0.050414767340325246    0.09210007000531274    0.25734117588754696    0.4755777020590694    0.5610735760867293    
  0.5643987451978453    0.5610735979382419    0.4755777182396594    0.2573411417013614    0.09210006563655508    
  0.050414767340325246    0.08922729967334758    0.13904949565502028    0.3033719184139717    0.4823646229181929    
  0.5362279025874604    0.5324608675435311    0.5362279632199108    0.4823646409832073    0.3033718923410586    
  0.1390495167747955    0.08922729967334758    0.13904951055351347    0.13904925646631747    0.24971627564582044    
  0.42913236460776033    0.5258801689468713    0.5285291473983955    0.528539098227575    0.5258787506349785    
  0.42908420176073425    0.2497552388528398    0.13904951055351347    0.3033719172769331    0.24971626846060246    
  0.3034121624347948    0.42910325972486785    0.5168519837567759    0.5214917603947292    0.5099588328509423    
  0.5214781332200075    0.5169160263248103    0.4290842274833063    0.3033719172769331    0.4823646614377185    
  0.42913233166006826    0.42910329465542557    0.4823406796439149    0.5258663957333298    0.521538546682388    
  0.5003166008403304    0.5003349379846975    0.521478105686447    0.5258787709692512    0.4823646614377185    
  0.5362279425076191    0.5258801379611775    0.5168520018180299    0.525866377001346    0.5362644298302003    
  0.5285393473519473    0.5099110026330425    0.500316657808291    0.5099588190313663    0.5285390971656643    
  0.5362279425076191    0.5324608839745495    0.5285291436503057    0.5214917918787845    0.5215385070264376    
  0.5285393732080177    0.5324169868270193    0.5285394040613002    0.5215384843861187    0.5214917118776212    
  0.5285292029410049    0.5324608839745495    0.5362279313327412    0.5285390594318218    0.5099588390413038    
  0.5003166436299652    0.5099109814845877    0.5285393523687079    0.5362643764586601    0.5258663883696371    
  0.5168520033891805    0.5258801981159802    0.5362279313327412    0.48236465183331656    0.5258787241608818    
  0.5214781285252047    0.5003349104476085    0.500316598163533    0.5215385476107522    0.5258663626917057    
  0.4823406813910332    0.4291032807284428    0.42913235462023597    0.48236465183331656    0.3033718901785689    
  0.4290842286266545    0.5169160660971152    0.5214781101290056    0.5099588136416465    0.5214918003488183    
  0.5168519909987587    0.4291032834708276    0.30341216327170223    0.24971626278621992    0.3033718901785689    
  0.13904951759601272    0.24975522838573405    0.4290841946612585    0.5258787473316567    0.5285390864641961    
  0.5285291585661318    0.5258801641088644    0.42913236182382386    0.24971627583620581    0.13904927684910742    
  0.13904951759601272    0.08922729967334758    0.13904949565502028    0.3033719184139717    0.4823646229181929    
  0.5362279025874604    0.5324608675435311    0.5362279632199108    0.4823646409832073    0.3033718923410586    
  0.1390495167747955    0.08922729967334758    0.25201455678325624    0.30291738121845385    0.4171189054124268    
  0.4842930792471361    0.47097149470538036    0.4531478115793577    0.47097153270791947    0.4842931039431688    
  0.41711886141014226    0.3029174301902246    0.25201455678325624    0.3029174140599618    0.3028782410956649    
  0.38591393981692323    0.4702256116746778    0.47833266625157866    0.4510736271724242    0.4510880991086409    
  0.4783222980198961    0.4702098077446384    0.38592002906908374    0.3029174140599618    0.4171189195449274    
  0.3859138933247541    0.4171737682985899    0.4702045330518937    0.47810161518764155    0.44743397637706706    
  0.4297988785452516    0.4474277747477579    0.47812984944279263    0.4702097874850372    0.4171189195449274    
  0.48429311761406596    0.47022559627404037    0.4702045435679413    0.4842618517386508    0.47832424676271096    
  0.4474569103783271    0.42083698780710244    0.42084901723902696    0.4474277487051424    0.4783222998281916    
  0.48429311761406596    0.47097149576818564    0.47833264741082887    0.47810154825045625    0.4783242672722637    
  0.4710080003921152    0.45107974769990417    0.42977962064524494    0.4208370494036158    0.4297988778810207    
  0.4510881056621683    0.47097149576818564    0.4531478268834511    0.45107363597115935    0.44743397807554536    
  0.4474568732712122    0.4510797467918769    0.453113468472899    0.45107977838321917    0.4474568517730677    
  0.4474339235284908    0.45107367911984336    0.4531478268834511    0.47097151894538847    0.451088070075124    
  0.4297988994129982    0.42083704495837676    0.429779612807182    0.4510797223926104    0.471007985152436    
  0.4783243304384775    0.47810157693717487    0.478332670569045    0.47097151894538847    0.484293161509064    
  0.478322291718291    0.44742777060952094    0.4208489763509128    0.42083697511326446    0.44745690497149876    
  0.4783242957493964    0.4842619113202482    0.47020454156600244    0.4702256339256937    0.484293161509064    
  0.4171188917750215    0.470209813596098    0.47812992625277945    0.4474277748487058    0.4297988433417324    
  0.4474340259364027    0.47810157083804306    0.47020448333138737    0.4171737692456811    0.38591390560342903    
  0.4171188917750215    0.3029174168364534    0.38591999465456606    0.4702097898815694    0.47832229666887494    
  0.45108809663723254    0.45107363484674434    0.47833262881698413    0.47022564935930644    0.3859139207562747    
  0.30287828074190454    0.3029174168364534    0.25201455678325624    0.30291738121845385    0.4171189054124268    
  0.4842930792471361    0.47097149470538036    0.4531478115793577    0.47097153270791947    0.4842931039431688    
  0.41711886141014226    0.3029174301902246    0.25201455678325624    0.5165182362855405    0.5238333026982042    
  0.5141813783527112    0.4585969156922892    0.3933225475811527    0.36615778647860114    0.39332259109231255    
  0.4585969393196267    0.5141813047102324    0.5238333869408343    0.5165182362855405    0.523833347672897    
  0.5238165147963166    0.5210313557917855    0.4812140979538351    0.41391137325979194    0.36581189722789353    
  0.3658139318962986    0.4139071433895352    0.4812165599763863    0.5210247726412139    0.523833347672897    
  0.5141813649909079    0.5210312941347925    0.5141942571234935    0.4812103895011382    0.4209783541443767    
  0.36526722556425    0.3435798298216279    0.3652705728748242    0.42097745176464946    0.4812165475822485    
  0.5141813649909079    0.4585969401957086    0.4812141126235023    0.4812104415991216    0.45859139473946664    
  0.41391125194215483    0.36527039534528516    0.33534935415272005    0.3353447392665907    0.36527055655475393    
  0.4139071269236278    0.4585969401957086    0.39332255154495055    0.41391136938908846    0.4209783216428741    
  0.41391127999769783    0.39332530109327846    0.365812434067707    0.3435768198659402    0.33534941303354066    
  0.34357983018124777    0.36581393450327904    0.39332255154495055    0.3661577939713066    0.36581189164371997    
  0.365267235789916    0.3652703674226397    0.36581244566294796    0.36615588090524875    0.3658124665892531    
  0.36527035271585223    0.365267189400399    0.36581193243784893    0.3661577939713066    0.39332254837859176    
  0.3658139160380215    0.3435798473605503    0.33534940480483355    0.34357681434582976    0.36581240684609767    
  0.39332525008447283    0.41391131047164487    0.4209783485717641    0.4139113788423171    0.39332254837859176    
  0.4585969895558143    0.41390712361653315    0.36527056594226315    0.3353447165021143    0.3353493449526519    
  0.3652703803143096    0.41391126698574565    0.45859141645953516    0.4812103934641403    0.48121409519141667    
  0.4585969895558143    0.5141813526360899    0.4812165950487275    0.42097750669219836    0.3652705616400744    
  0.34357980204337396    0.3652672716792795    0.42097833121979356    0.4812103872900092    0.5141942563457108    
  0.5210313195572098    0.5141813526360899    0.5238333438563606    0.5210247471315445    0.48121653501070505    
  0.41390715809184453    0.36581393520522765    0.36581190081535    0.4139113572004482    0.48121412572784134    
  0.521031309674134    0.5238166006571829    0.5238333438563606    0.5165182362855405    0.5238333026982042    
  0.5141813783527112    0.4585969156922892    0.3933225475811527    0.36615778647860114    0.39332259109231255    
  0.4585969393196267    0.5141813047102324    0.5238333869408343    0.5165182362855405    0.6851437595520656    
  0.6456256182645235    0.5412830701964645    0.4208423678370079    0.33531201811695127    0.30567362967910183    
  0.3353120369356837    0.4208423724294639    0.5412830553062363    0.6456257011347962    0.6851437595520656    
  0.6456256719680762    0.6456355122787781    0.5732671464113638    0.46087824200270694    0.36061585049102    
  0.3057731688172052    0.3057696541306442    0.3606208336527658    0.4608774215867291    0.5732675060503519    
  0.6456256719680762    0.5412830815523763    0.573267141251936    0.5412757693708509    0.46087640563599047    
  0.3706964463855322    0.3061445985624867    0.28346405535491387    0.30614418025809775    0.37069130692247704    
  0.46087745690644955    0.5412830815523763    0.4208423815583384    0.46087818475758996    0.4608764454709132    
  0.42084943052380264    0.36061808559468145    0.3061414034354073    0.27544661780567287    0.2754479107546893    
  0.30614417336750444    0.36062081879504526    0.4208423815583384    0.3353120138267459    0.36061584841445465    
  0.3706964430440805    0.360618093111529    0.33530760327656123    0.3057712865714905    0.28346739457808645    
  0.27544664064871915    0.28346404188617846    0.3057696527051445    0.3353120138267459    0.30567364636205857    
  0.30577317974650564    0.3061445916177584    0.3061413660346426    0.3057713032955147    0.30567778867534484    
  0.30577132698241477    0.3061413587815091    0.306144557556259    0.30577320108652695    0.30567364636205857    
  0.3353119984379999    0.30576964719116756    0.28346405110232864    0.27544663867892955    0.2834674040875972    
  0.30577129798369695    0.33530756660200783    0.3606181280583832    0.37069648809672706    0.36061587142923907    
  0.3353119984379999    0.42084239791782285    0.36062079166396943    0.3061441851408766    0.27544788373796797    
  0.275446614521207    0.306141408499681    0.36061809867350286    0.42084946031164855    0.46087643660951927    
  0.46087820751415454    0.42084239791782285    0.5412830729010025    0.46087744621319204    0.37069131811058165    
  0.30614417413378925    0.28346402339816    0.30614460886679545    0.3706964774664737    0.46087640137967634    
  0.5412757432259467    0.5732671495019336    0.5412830729010025    0.6456256649816454    0.5732675042486535    
  0.46087744294563454    0.36062081585546013    0.3057696574879538    0.3057731707051138    0.36061583137622066    
  0.4608781957538314    0.5732671608735231    0.6456355561400683    0.6456256649816454    0.6851437595520656    
  0.6456256182645235    0.5412830701964645    0.4208423678370079    0.33531201811695127    0.30567362967910183    
  0.3353120369356837    0.4208423724294639    0.5412830553062363    0.6456257011347962    0.6851437595520656    
  0.723655428609299    0.6699669682991501    0.5395633905700556    0.40374210778661074    0.31456379296926223    
  0.28488839602377    0.3145638182536058    0.4037421174575179    0.5395633176783393    0.6699669842557157    
  0.723655428609299    0.6699669872563571    0.6699704716457133    0.5781477246325737    0.4476604135800334    
  0.34052274548555633    0.2849077707927279    0.2849083139624355    0.34052310299245536    0.44767064361779435    
  0.5781357802719146    0.6699669872563571    0.5395633743077438    0.5781477297246655    0.5395487801412389    
  0.44767229163955924    0.3511318759742883    0.2852082255428985    0.26256937203184644    0.2852073723364103    
  0.35112373433278743    0.4476706886863649    0.5395633743077438    0.4037421422896597    0.44766036899987116    
  0.44767235664004024    0.40374256893092325    0.3405216190693536    0.285200603611646    0.2545270004336706    
  0.2545272460803849    0.28520736845424216    0.3405230682854621    0.4037421422896597    0.3145637989634545    
  0.34052272612216106    0.3511318480793188    0.34052161451780544    0.3145649089767716    0.28490885472734523    
  0.26257552213135943    0.25452700770568154    0.26256937391096663    0.284908297450313    0.3145637989634545    
  0.2848884039420683    0.2849077634389853    0.2852082438145199    0.2852005783215126    0.2849088651053918    
  0.2848862623006342    0.2849089056896422    0.2852005650608538    0.2852081980209306    0.284907813317802    
  0.2848884039420683    0.31456378307909816    0.2849082882827721    0.26256937195677893    0.25452699861824657    
  0.2625755217035367    0.2849088658581492    0.31456490146186517    0.3405216239730527    0.3511318763710469    
  0.34052278304964223    0.31456378307909816    0.4037421476011201    0.34052307776298923    0.2852073900574244    
  0.25452724508282243    0.2545269928064418    0.2852005853645172    0.3405216349696777    0.40374256524483576    
  0.44767227659606235    0.4476604088287824    0.4037421476011201    0.5395633775797618    0.44767066312968756    
  0.3511237737752697    0.28520738657833916    0.26256935456471214    0.2852082503501262    0.3511318510944348    
  0.4476723274466319    0.5395487734724661    0.5781477299808077    0.5395633775797618    0.669966975540119    
  0.5781357603392208    0.44767066997545596    0.3405231020301292    0.2849082940165925    0.28490776322570605    
  0.34052274685518713    0.4476604298224538    0.5781477489491725    0.6699705300661936    0.669966975540119    
  0.723655428609299    0.6699669682991501    0.5395633905700556    0.40374210778661074    0.31456379296926223    
  0.28488839602377    0.3145638182536058    0.4037421174575179    0.5395633176783393    0.6699669842557157    
  0.723655428609299    0.6851437720784241    0.6456256408245927    0.5412830792990537    0.42084235247553964    
  0.33531198889384917    0.30567364325044105    0.3353120451468965    0.4208423730481126    0.541283042873257    
  0.6456256874251983    0.6851437720784241    0.6456256629471945    0.645635514415226    0.5732671623157491    
  0.46087821941669377    0.3606158517797835    0.3057731828523433    0.30576967108984116    0.3606208261789197    
  0.46087740898810153    0.5732675182941892    0.6456256629471945    0.5412830714582504    0.5732671269015109    
  0.5412757863422621    0.4608763986395908    0.3706964621259882    0.3061445881244022    0.2834640545515774    
  0.30614418647755254    0.37069132295178553    0.46087744743442166    0.5412830714582504    0.4208423912327497    
  0.4608781915013943    0.4608764515626927    0.42084943704743    0.3606181018730742    0.3061414164643764    
  0.2754466167415286    0.27544790984017176    0.30614417772332514    0.36062084149171486    0.4208423912327497    
  0.3353120202968772    0.36061583741091346    0.3706964794638191    0.3606180956015729    0.3353075912698036    
  0.3057712918318725    0.2834674033519589    0.2754466468836705    0.28346403701690354    0.3057696601066225    
  0.3353120202968772    0.30567364695122395    0.30577316527343273    0.3061446165520892    0.3061413935100033    
  0.3057713047780746    0.30567778737193146    0.3057713214110281    0.30614136408746734    0.30614455169756855    
  0.3057732079222419    0.30567364695122395    0.3353120043924857    0.3057696454039464    0.283464051354857    
  0.27544664386550527    0.2834673995431515    0.3057712890768822    0.3353075607136137    0.3606181174870769    
  0.37069648045157777    0.3606158767623843    0.3353120043924857    0.4208423967424679    0.3606207998605759    
  0.30614418062315146    0.2754478923464823    0.27544660486952705    0.3061414120071928    0.3606180928987386    
  0.4208494302867949    0.46087641242555744    0.46087821818753305    0.4208423967424679    0.5412830506018576    
  0.4608774388210663    0.37069134244697755    0.3061441788919349    0.2834640365039377    0.3061446151878088    
  0.3706964792470467    0.460876421951437    0.5412757603912653    0.5732671407528783    0.5412830506018576    
  0.6456256683509765    0.5732674918962185    0.4608774097812047    0.36062083099859743    0.3057696552644383    
  0.30577317546566785    0.3606158513797069    0.4608782245911931    0.5732671346913025    0.6456355719285838    
  0.6456256683509765    0.6851437720784241    0.6456256408245927    0.5412830792990537    0.42084235247553964    
  0.33531198889384917    0.30567364325044105    0.3353120451468965    0.4208423730481126    0.541283042873257    
  0.6456256874251983    0.6851437720784241    0.516518250174901    0.5238333051340204    0.51418135360597    
  0.45859691351739684    0.39332253831686176    0.3661577848726248    0.3933225832879308    0.4585969350226311    
  0.5141813087275816    0.5238333735230204    0.516518250174901    0.5238333487804779    0.523816522081285    
  0.5210313609542433    0.4812140892291034    0.4139113833411974    0.36581189121003377    0.3658139351552392    
  0.4139071349297597    0.4812165688553903    0.5210247934314995    0.5238333487804779    0.5141813689198551    
  0.5210313024579488    0.5141942982700112    0.4812104238287108    0.4209783655427652    0.36526723178619425    
  0.3435798253760256    0.365270570119409    0.4209774540299166    0.48121656125156076    0.5141813689198551    
  0.4585969374931739    0.4812140654986441    0.4812104488002498    0.45859136994018374    0.41391124570732074    
  0.36527039150760143    0.3353493597200968    0.3353447389349056    0.36527055148889415    0.41390713987243044    
  0.4585969374931739    0.3933225345660037    0.4139113650308176    0.4209783130306455    0.4139112696209958    
  0.39332528358256985    0.3658124394484027    0.3435768093135682    0.335349405952615    0.3435798280912741    
  0.36581393320941197    0.3933225345660037    0.36615779530798304    0.3658119010588905    0.3652672384880045    
  0.3652703674486323    0.36581243892399185    0.36615587968577673    0.365812466232282    0.3652703396377741    
  0.36526717338326903    0.36581193272958956    0.36615779530798304    0.3933225600560117    0.36581390599451835    
  0.34357984221247445    0.3353494122533475    0.34357681466200096    0.36581241547688337    0.393325254443294    
  0.41391132243086914    0.4209783257104793    0.41391136372942144    0.3933225600560117    0.4585969866814359    
  0.413907122841981    0.36527057069775676    0.33534471930716414    0.33534934745710787    0.36527038232837405    
  0.4139112876338021    0.45859143309100214    0.4812104188634903    0.4812140870382272    0.4585969866814359    
  0.5141813495521831    0.48121657513926713    0.42097750960325275    0.3652705799061487    0.34357979783904785    
  0.36526726312694385    0.4209783404911641    0.4812103795175986    0.5141942648344474    0.5210313206231509    
  0.5141813495521831    0.5238333409635015    0.5210247361884618    0.48121654308494355    0.41390714437700016    
  0.36581392828949433    0.3658118936390776    0.4139113514942943    0.4812141249838955    0.5210313271950623    
  0.5238165842480044    0.5238333409635015    0.516518250174901    0.5238333051340204    0.51418135360597    
  0.45859691351739684    0.39332253831686176    0.3661577848726248    0.3933225832879308    0.4585969350226311    
  0.5141813087275816    0.5238333735230204    0.516518250174901    0.2520145525355595    0.3029173843532227    
  0.4171189183528312    0.48429309710649027    0.4709715011818609    0.45314781935125614    0.4709715622715161    
  0.4842931282696858    0.4171188737157134    0.3029174349241109    0.2520145525355595    0.3029174177653015    
  0.30287823818312765    0.38591393596526385    0.47022562597640466    0.47833266702037613    0.4510736467108773    
  0.4510881064110089    0.4783223000255657    0.4702098127128916    0.38592003075837483    0.3029174177653015    
  0.41711890871493473    0.38591389220108774    0.4171737522024156    0.4702045020213737    0.478101595318139    
  0.44743397574649374    0.4297988807774673    0.44742778065717487    0.478129863436276    0.4702098148882022    
  0.41711890871493473    0.4842931124711587    0.47022563347849233    0.47020456760805246    0.4842618674890648    
  0.4783242656920786    0.4474569176910313    0.4208369769200126    0.42084900892875726    0.44742775302533816    
  0.47832229308000773    0.4842931124711587    0.47097150730461884    0.47833266555033405    0.47810157278957816    
  0.47832428833437024    0.4710080249535556    0.45107975288365504    0.4297796181371884    0.42083704448309855    
  0.429798881058418    0.451088099148618    0.47097150730461884    0.4531478247612723    0.45107363443837406    
  0.4474339899089777    0.447456869408387    0.4510797579472189    0.4531134660258051    0.4510797799350627    
  0.44745685464655466    0.4474339232597246    0.4510736730291037    0.4531478247612723    0.4709714991113781    
  0.4510880782491896    0.42979890083539085    0.4208370435596601    0.429779617667643    0.45107972033600263    
  0.47100796164733366    0.47832430514276975    0.4781015839581422    0.4783326522949859    0.4709714991113781    
  0.4842931672248592    0.4783222751942758    0.4474277666859847    0.420848989282744    0.42083697655042634    
  0.4474569015422619    0.47832426320977417    0.4842618949319857    0.47020449811586496    0.4702256147147831    
  0.4842931672248592    0.4171189021883582    0.47020982208953954    0.4781299119908718    0.44742776027474196    
  0.4297988585293065    0.44743402618993106    0.4781015750058725    0.4702044993868321    0.41717375290303166    
  0.3859138934140957    0.4171189021883582    0.302917417514131    0.38592000017909933    0.47020978382825124    
  0.47832233083241094    0.4510881081738592    0.45107363709046255    0.47833265244712764    0.4702256642380591    
  0.3859138925742379    0.30287829107381004    0.302917417514131    0.2520145525355595    0.3029173843532227    
  0.4171189183528312    0.48429309710649027    0.4709715011818609    0.45314781935125614    0.4709715622715161    
  0.4842931282696858    0.4171188737157134    0.3029174349241109    0.2520145525355595    0.08922729136919501    
  0.13904949618353762    0.30337190925719937    0.48236463528936185    0.5362279419077686    0.5324608450998319    
  0.5362279557055979    0.48236464009734026    0.303371897292739    0.1390495177770012    0.08922729136919501    
  0.1390495089815972    0.13904925934805945    0.24971628612439878    0.4291323726196243    0.5258801687362366    
  0.5285291530464958    0.5285390955800426    0.5258787596229942    0.4290842134351406    0.24975523993920676    
  0.1390495089815972    0.30337192534869395    0.2497162730465307    0.3034121556025643    0.42910326592315035    
  0.5168519684555162    0.5214917832886825    0.5099588424134956    0.5214781187053968    0.5169160219623583    
  0.42908423959290454    0.30337192534869395    0.48236464370633936    0.4291323367046259    0.4291033084194083    
  0.482340670521984    0.5258663747822022    0.5215385400538459    0.5003166095327861    0.5003349323937895    
  0.5214781081047575    0.5258787510961777    0.48236464370633936    0.5362279347792189    0.5258801654128251    
  0.5168519692564705    0.5258663730744807    0.5362644399584594    0.5285393590309458    0.5099109818593014    
  0.5003166341964872    0.5099588365680273    0.5285390851702026    0.5362279347792189    0.5324608880672878    
  0.5285291615120141    0.5214917687669851    0.5215384850869499    0.5285393791718757    0.5324169829743733    
  0.5285393971032315    0.5215384778499051    0.5214917157569696    0.5285291999173138    0.5324608880672878    
  0.5362279157694749    0.5285390668749437    0.5099588369512628    0.5003166361233798    0.5099110019369679    
  0.5285393691056798    0.5362643808018889    0.5258664025013731    0.5168520090031489    0.525880190352518    
  0.5362279157694749    0.4823646620163828    0.5258787161253158    0.521478124634752    0.5003349069847495    
  0.5003166098311292    0.5215385509230768    0.5258663648998543    0.48234069956224374    0.42910328828167915    
  0.42913234036557546    0.4823646620163828    0.3033719088348591    0.42908422986764816    0.5169160197862974    
  0.5214781138789355    0.5099588159460682    0.5214917985882276    0.5168519987083386    0.42910327788211416    
  0.3034121488231913    0.24971626231125496    0.3033719088348591    0.1390495135749685    0.24975523632633342    
  0.4290842056444592    0.5258787393234248    0.5285390915706994    0.5285291469996983    0.5258801395599685    
  0.4291323397447342    0.24971627964581677    0.13904926962965056    0.1390495135749685    0.08922729136919501    
  0.13904949618353762    0.30337190925719937    0.48236463528936185    0.5362279419077686    0.5324608450998319    
  0.5362279557055979    0.48236464009734026    0.303371897292739    0.1390495177770012    0.08922729136919501    
  0.050414767340325246    0.09210007000531274    0.25734117588754696    0.4755777020590694    0.5610735760867293    
  0.5643987451978453    0.5610735979382419    0.4755777182396594    0.2573411417013614    0.09210006563655508    
  0.050414767340325246    0.09210006500318992    0.09212120325389794    0.19962059150931238    0.4064412858634717    
  0.5422178120217893    0.5598543144779792    0.5598487351314922    0.5422326047638507    0.40637543042428065    
  0.1996724806718508    0.09210006500318992    0.25734116738065443    0.19962058758192056    0.2573579990029861    
  0.40640352303832145    0.5292329608973655    0.5515503347863552    0.5430972896004184    0.5515358434767053    
  0.5293044471150976    0.4063754695811976    0.25734116738065443    0.47557773312153157    0.4064412422289386    
  0.40640356895351926    0.4755844910351851    0.5422094899195398    0.5516052201918202    0.5332497685852053    
  0.5332696623993134    0.5515358324803284    0.5422325677789037    0.47557773312153157    0.561073577808779    
  0.5422177699564091    0.5292329207681136    0.5422094742205038    0.5610795071909314    0.5598584807948062    
  0.5430408289803681    0.5332497947142    0.5430972914730182    0.5598487179792415    0.561073577808779    
  0.5643987435203727    0.5598543077736677    0.5515503315134673    0.5516051723436699    0.5598585043155387    
  0.5643825449250491    0.5598585519572633    0.5516051546058267    0.5515502705925405    0.5598543727510291    
  0.5643987435203727    0.561073563073286    0.5598486988228109    0.5430972939420337    0.53324977674743    
  0.5430408151201758    0.5598584926899527    0.5610795025224775    0.5422094831746144    0.5292329421870874    
  0.5422178500350934    0.561073563073286    0.4755777281519022    0.5422325776223459    0.5515358689804346    