#     DFTpy    
  CRYSTAL 
    
  PRIMVEC    
  11.114854433010413    2.06771019862069e-09    -6.713779696551725e-10    
  2.06771019862069e-09    11.114854435513443    -1.936877100689655e-09    
  -6.713779696551725e-10    -1.936877100689655e-09    11.114854436210292    
  PRIMCOORD    
  63    1    
  Si    2.778713660603233    2.4347660556532928e-08    2.778713551973936    
  Si    8.33614087710844    2.538151565584327e-08    2.778713551638247    
  Si    2.778713661637088    5.557427242104383    2.7787135510054974    
  Si    8.336140878142293    5.557427243138236    2.778713550669808    
  Si    2.778713660267545    2.3379222006188097e-08    8.336140770079082    
  Si    8.336140876772749    2.4413077105498443e-08    8.336140769743393    
  Si    2.778713661301399    5.557427241135944    8.336140769110644    
  Si    8.336140877806605    5.557427242169799    8.336140768774953    
  Si    1.3893568034399397    1.3893567324190095    1.389356750674559    
  Si    6.946784019945145    1.3893567334528645    1.38935675033887    
  Si    1.3893568044737947    6.946783950175731    1.3893567497061206    
  Si    6.946784020979001    6.946783951209586    1.3893567493704317    
  Si    1.3893568031042511    1.3893567314505708    6.946783968779705    
  Si    6.946784019609456    1.3893567324844258    6.9467839684440165    
  Si    1.389356804138106    6.946783949207292    6.946783967811266    
  Si    6.946784020643312    6.946783950241147    6.946783967475577    
  Si    2.7787136757426594    2.778713588748087    3.515068853484559e-08    
  Si    8.336140892247863    2.7787135897819426    3.4814999550018e-08    
  Si    2.7787136767765146    8.33614080650481    3.418224998450076e-08    
  Si    8.336140893281717    8.336140807538666    3.384656099967317e-08    
  Si    2.7787136754069706    2.7787135877796483    5.557427253255834    
  Si    8.336140891912173    2.7787135888135035    5.557427252920144    
  Si    2.7787136764408253    8.33614080553637    5.557427252287396    
  Si    8.336140892946029    8.336140806570226    5.557427251951706    
  Si    1.3893568071634688    4.168070464335858    4.168070470658485    
  Si    6.946784023668674    4.168070465369714    4.168070470322796    
  Si    1.3893568081973238    9.725497682092579    4.168070469690046    
  Si    6.94678402470253    9.725497683126436    4.168070469354358    
  Si    1.3893568068277797    4.16807046336742    9.72549768876363    
  Si    6.946784023332985    4.168070464401276    9.725497688427943    
  Si    1.3893568078616352    9.72549768112414    9.72549768779519    
  Si    6.94678402436684    9.725497682157997    9.725497687459503    
  Si    5.5574271670558275    2.7935030568436808e-08    5.3291088417055186e-08    
  Si    11.114854384594889    5.5574272467256085    5.198696088188277e-08    
  Si    5.557427168089682    5.557427245691753    5.232264986671036e-08    
  Si    11.114854383225344    2.8000447117402326e-08    5.557427271060544    
  Si    5.557427166720139    2.6966592018091983e-08    5.557427271396234    
  Si    11.1148543842592    5.55742724575717    5.557427270092107    
  Si    5.5574271677539935    5.557427244723314    5.557427270427795    
  Si    4.168070415654432    1.389356770124602    4.168070464258695    
  Si    9.725497632159636    1.389356771158457    4.168070463923007    
  Si    4.168070416688288    6.946783987881324    4.168070463290257    
  Si    9.72549763319349    6.946783988915179    4.168070462954568    
  Si    4.168070415318743    1.3893567691561637    9.72549768236384    
  Si    9.725497631823947    1.3893567701900185    9.725497682028152    
  Si    4.168070416352598    6.946783986912886    9.725497681395403    
  Si    9.7254976328578    6.94678398794674    9.725497681059714    
  Si    11.114854364622554    2.7787135792958138    2.7787135748432434    
  Si    5.557427148117348    2.7787135782619585    2.7787135751789322    
  Si    11.114854365656406    8.336140797052535    2.778713573874805    
  Si    5.557427149151203    8.336140796018682    2.778713574210494    
  Si    11.114854364286861    2.778713578327375    8.33614079294839    
  Si    5.557427147781659    2.7787135772935194    8.336140793284077    
  Si    11.114854365320719    8.336140796084097    8.33614079197995    
  Si    5.557427148815513    8.336140795050241    8.33614079231564    
  Si    4.168070406843616    4.168070469361921    1.3893567485452933    
  Si    9.72549762334882    4.168070470395775    1.3893567482096043    
  Si    4.1680704078774715    9.72549768711864    1.3893567475768547    
  Si    9.725497624382676    9.725497688152496    1.3893567472411656    
  Si    4.168070406507926    4.1680704683934815    6.946783966650439    
  Si    9.72549762301313    4.168070469427336    6.94678396631475    
  Si    4.168070407541782    9.725497686150204    6.946783965681999    
  Si    9.725497624046985    9.72549768718406    6.946783965346311    
  BEGIN_BLOCK_DATAGRID_3D    
  3d_datagrid_density    
  BEGIN_DATAGRID_3D#0    
  49    49    49    
  0.0    0.0    0.0    
  11.114854433010413    2.06771019862069e-09    -6.713779696551725e-10    
  2.06771019862069e-09    11.114854435513443    -1.936877100689655e-09    
  -6.713779696551725e-10    -1.936877100689655e-09    11.114854436210292    
  0.03340392143349806    0.03430381548286374    0.036810184832067626    0.0404632117086117    0.0444866616295451    
  0.047818853712158695    0.04950998479808171    0.049257822215213444    0.04730437935645891    0.044390197106309044    
  0.04155219298489054    0.03955429075773659    0.03897917184629538    0.04034781762834934    0.04427354299508883    
  0.052046749838314345    0.06637927815777202    0.09280693504933539    0.14124751271612376    0.22507547589469235    
  0.3402181036426382    0.3936033380485709    0.26271379274836115    0.10478153279929703    0.05889516310957253    
  0.1047815839661365    0.2627138275737315    0.3936034178993439    0.34021801876439334    0.22507537059856622    
  0.14124748570799456    0.09280693014359664    0.06637929893603182    0.05204675190043257    0.044273517036932976    
  0.040347831375280724    0.038979173606471684    0.03955428140187183    0.041552202212969236    0.04439018338302094    
  0.04730435758341885    0.04925781437307321    0.04950999941889424    0.04781884108779325    0.044486654473041766    
  0.040463211054456515    0.036810184500154185    0.03430381111745852    0.03340392143349806    0.03430383403253797    
  0.0352766097047899    0.038038167775286576    0.042108995111600316    0.046597093801856074    0.05031550288269887    
  0.052202832686196646    0.051842012284586396    0.049544781104195    0.046211538102837964    0.04299541216266645    
  0.040752510357885255    0.04008960274860676    0.041500747745808586    0.04559551664532328    0.05361663171415543    
  0.06811524887192777    0.0943388572629582    0.14142658339664613    0.22163673550067117    0.3335984352488655    
  0.40254632734199863    0.3093212408527012    0.15830186481273711    0.10486650945430366    0.15830195272367817    
  0.309321268544215    0.40254637157083084    0.3335983544056285    0.22163671452938533    0.14142651617705065    
  0.0943388701760273    0.06811524812490893    0.05361663346166339    0.045595494337484985    0.04150077220189266    
  0.04008957917389688    0.04075251017213143    0.042995424471715414    0.04621154263068242    0.04954474501512263    
  0.05184197791539786    0.052202870629637056    0.05031547789726492    0.04659712192221853    0.04210898831067041    
  0.03803816799185445    0.0352766010218545    0.03430383403253797    0.03681017680193866    0.03803815124070709    
  0.04157803417911413    0.04687726368528093    0.05276038921549926    0.05769465087720425    0.060198161565716723    
  0.059598777938338746    0.05640960573894056    0.05192841775384796    0.04762966161226751    0.044668190014091745    
  0.043740184197765736    0.045289548075948295    0.049882252461844065    0.05858547789549906    0.07343609718709328    
  0.09879082141805783    0.14178355565353146    0.21145784878190024    0.31001990865940376    0.39979459035074316    
  0.3962912596312668    0.3097715397378737    0.2632780229515943    0.3097716094019732    0.3962912790087114    
  0.3997945697680988    0.31001980122403366    0.2114578358045671    0.14178355445226354    0.09879081667757651    
  0.07343611953966198    0.05858544747449613    0.0498822550784573    0.045289562022249416    0.04374018663366041    
  0.04466816677286146    0.0476296316206747    0.051928435632920454    0.05640958264511455    0.059598774820884826    
  0.060198169403393245    0.057694660158689355    0.05276037004736443    0.046877255531062735    0.041578011644863744    
  0.03803814876458952    0.03681017680193866    0.040463217059523826    0.04210898103190303    0.04687725791880882    
  0.054068372930608774    0.06221095487023136    0.06922432847327106    0.07298997047722275    0.07244704383418611    
  0.06829248322610285    0.06228604850391436    0.056480059976477114    0.05248893224807198    0.05117129905827302    
  0.05292930959652246    0.05820913208048304    0.06773313680874901    0.08271829070430319    0.10595800592486536    
  0.1419433062972857    0.19556654478114607    0.2688172608712637    0.3489343283660599    0.40024530876839864    
  0.40351989287739265    0.39477145484219117    0.40351985752401487    0.40024527749947847    0.34893434071402735    
  0.2688172182066841    0.19556654786706537    0.1419432578195188    0.10595796407535332    0.08271831808977273    
  0.06773316349779779    0.05820913865034957    0.052929312158248636    0.05117129820871653    0.05248893160892813    
  0.056480044491550356    0.0622860650399765    0.06829248529949443    0.0724470383045277    0.07298998853771324    
  0.06922433489209613    0.06221096133059055    0.05406834305623608    0.04687725840442457    0.04210898986830825    
  0.040463217059523826    0.044486669736142764    0.046597104952730034    0.052760390046459604    0.06221096949443278    
  0.07318353583683924    0.08308478929909607    0.08911752210465712    0.08971189405538386    0.08547935982442105    
  0.07855085639122453    0.07162416518074585    0.06681765698389242    0.06516748692875905    0.06706834793165198    
  0.07274629025965063    0.0824340479089036    0.0963850676792218    0.11551078876661657    0.1417077079404214    
  0.17664513875473298    0.2204393031550684    0.2687611915983891    0.3103006466783861    0.3342985812595827    
  0.3411014718009418    0.33429859977040244    0.31030062248676327    0.2687611502074332    0.2204393205445593    
  0.17664509256630523    0.1417077159218273    0.11551075163883558    0.0963850697699515    0.08243404726909632    
  0.07274627631780442    0.06706835688212233    0.0651674863565919    0.06681766067589334    0.0716241482640737    
  0.07855084920675828    0.08547932827057539    0.08971187908492557    0.08911751100864138    0.08308477767946176    
  0.07318358991034349    0.06221095562638501    0.05276039772078583    0.04659709697238266    0.044486669736142764    
  0.04781884465588679    0.05031547565163532    0.05769463505866401    0.06922433603524442    0.08308479958977985    
  0.0964429272360804    0.10609615778703016    0.11001891281615224    0.10846054878373276    0.10331958233157147    
  0.09733180317271288    0.09288104874991146    0.09127092276903681    0.09300238604397586    0.09791936557690918    
  0.1055579164373286    0.11543101863169238    0.12723372761359322    0.14128197842920484    0.15782574086103007    
  0.176346154888055    0.19522336591897527    0.21134392914848815    0.22179437034925187    0.22535268305902248    
  0.22179433828634945    0.21134389186728142    0.1952233362763374    0.17634622214483486    0.15782571909292412    
  0.1412819604946271    0.1272337137861226    0.11543103108401387    0.10555790537983846    0.0979193445857182    
  0.09300240209448896    0.0912709086915264    0.09288102728604285    0.09733180270392736    0.10331962469906356    
  0.10846054070318172    0.11001892477956308    0.1060961572439373    0.09644294484212605    0.08308476527398917    
  0.06922432829328413    0.05769464394370505    0.050315496458535364    0.04781884465588679    0.04950997494699194    
  0.05220285045051212    0.06019815317982694    0.0729900022517992    0.08911751149842556    0.1060961186127779    
  0.12108482705366516    0.13205321787162258    0.1384218148035704    0.14077913603396006    0.1406371891243935    
  0.13979155622855666    0.13943096433711    0.13996328131921926    0.1409777293025263    0.14172110894190437    
  0.1418598755463638    0.14148821587883523    0.14105128431507652    0.14093905852601799    0.1411341266932486    
  0.1413855699482721    0.14141403438573455    0.14124857540638638    0.14115184365868885    0.14124857559576776    
  0.14141400898287357    0.1413856181622628    0.14113411710204657    0.14093908392783008    0.14105122430266318    
  0.14148821025793876    0.14185990045742283    0.1417210805651312    0.14097767073742717    0.13996331785632934    
  0.13943097732014154    0.13979156473298363    0.1406372121902348    0.14077916681664543    0.1384217970536597    
  0.13205319995921921    0.12108486720794856    0.10609613979567767    0.08911751188000132    0.07298998443002948    
  0.060198166729793605    0.052202848596867184    0.04950997494699194    0.049257812179744    0.051841981002268236    
  0.059598789034324286    0.07244703547098715    0.08971189066255043    0.11001889286736265    0.13205317289268967    
  0.15452666669493023    0.17610935056451663    0.19536752021954254    0.21041793539767728    0.21978406096338496    
  0.22312423542653664    0.220361179030879    0.21106007374210442    0.19584669520481024    0.1772560514354416    
  0.15835840322042583    0.14119876837524303    0.1266868945126938    0.11487000689156682    0.10542786727719286    
  0.09845562007639486    0.09416985746993252    0.09270307248836693    0.0941698577231572    0.09845562535685647    
  0.10542787172032675    0.11486997961059951    0.12668687841058088    0.14119871487727081    0.15835836903661976    
  0.17725606872400546    0.19584666351207547    0.21106004186864913    0.22036115431616426    0.22312425924972168    
  0.21978406984576127    0.21041798219877525    0.19536762431518626    0.1761093440429704    0.1545267020552116    
  0.13205320690389646    0.11001889440203431    0.08971189603033325    0.07244704881894028    0.05959877073642383    
  0.05184198471352535    0.049257812179744    0.04730434904598866    0.04954474744494665    0.05640959406084915    
  0.06829247641310099    0.0854793228925494    0.10846049404755444    0.13842176558241182    0.17610936922405462    
  0.2209606067232926    0.2686477203173966    0.3086079858242154    0.33142109866331615    0.3383746226374326    
  0.33281682130133106    0.3102993041445402    0.2697958661182775    0.22154050178822843    0.17714375420467482    
  0.14154645242172287    0.11498539611413731    0.09596859461644057    0.08246120655689161    0.07336322114954975    
  0.0681833748294647    0.06650086386571308    0.0681833825353949    0.07336320572508605    0.08246121085583982    
  0.09596855875296995    0.11498538030992812    0.14154644926544177    0.17714369837136934    0.2215405267323892    
  0.2697957831474978    0.31029926247984674    0.33281679389042834    0.33837464137462464    0.33142104711167925    
  0.3086080239970589    0.26864783382401203    0.22096064024913706    0.17610933379921898    0.13842181475262919    
  0.10846051651592961    0.08547931938453111    0.06829247747903178    0.05640956144697136    0.0495447759213419    
  0.04730434904598866    0.0443901955359306    0.04621151783873388    0.051928414782811065    0.06228608141178427    
  0.07855082235456567    0.10331958267335678    0.14077914543008532    0.19536752516014227    0.26864772684881155    
  0.3477620744623595    0.3975905995977812    0.40032069436169315    0.39227514381618184    0.40238396737187815    
  0.40074511202083385    0.3504641545373499    0.27007473016620426    0.1960108538041265    0.14170775369544256    
  0.10547033913098863    0.08242721954434165    0.06788479656841127    0.05889698526923089    0.05404645356591091    
  0.05251930140677444    0.054046469040799246    0.05889697094577013    0.06788478097580278    0.08242719347690598    
  0.10547032387322187    0.14170772789347164    0.19601080303279794    0.27007461029174124    0.35046403932158127    
  0.40074500543653774    0.40238405816530914    0.3922751025779294    0.4003207758602686    0.39759064349873974    
  0.34776214976077163    0.2686477662465187    0.19536758427879775    0.14077914403781913    0.10331963377942913    
  0.07855084356284961    0.06228607163453723    0.05192841251005887    0.046211547274120954    0.0443901955359306    
  0.041552198658601575    0.042995426216237656    0.047629624526536324    0.0564800666405154    0.07162416670735487    
  0.09733176804937986    0.1406371744419645    0.21041793324379773    0.3086079516273358    0.39759061408998225    
  0.3936320795778117    0.3076849498650397    0.26201222137179137    0.30939644768578106    0.39729167767679907    
  0.40165530768253244    0.31132426085517684    0.21180578752913357    0.14147330409811995    0.09834680916310841    
  0.07324631900120737    0.058831204718881105    0.05062999966531235    0.046436253312980784    0.045148938147608085    
  0.046436243878474566    0.050629984050400284    0.05883122339246761    0.07324632388698554    0.09834674112852457    
  0.14147330730811003    0.21180570484118552    0.3113242009999641    0.4016552273311758    0.3972917100321342    
  0.30939654597176003    0.2620121708345857    0.3076849076152464    0.39363202028068417    0.3975906459803227    
  0.3086080684996095    0.21041794518896997    0.14063722194900977    0.09733178282410317    0.0716241646747848    
  0.056480037753728014    0.047629637494872916    0.04299541647601325    0.041552198658601575    0.039554269926892476    
  0.04075249149768886    0.04466816704474436    0.052488920500327836    0.06681763747749349    0.0928809970549243    
  0.13979148716961282    0.21978403287674658    0.33142096879201993    0.40032072386823925    0.3076849721516042    
  0.15751856489226995    0.10454920888477251    0.15839871193806324    0.3103865433340597    0.40435164203193646    
  0.3347721768466805    0.22182414789843377    0.14104398432275134    0.09393406497829392    0.06799594458949543    
  0.05392767160423444    0.046386013335794805    0.04267721344576848    0.04155434863629677    0.042677194487522274    
  0.04638601475127461    0.05392768269566596    0.06799591771553416    0.09393402920231934    0.14104396108510625    
  0.22182406566317486    0.33477206705064194    0.4043516107900759    0.3103866074733169    0.15839880877914628    
  0.10454918518546007    0.15751853292178764    0.3076849177880789    0.4003207934607167    0.3314210810276087    
  0.21978406979899437    0.13979156903146794    0.0928810370839111    0.06681765887195305    0.05248891670968488    
  0.044668179575116235    0.04075248211968457    0.039554269926892476    0.0389791651705625    0.04008958835318111    
  0.0437401952391584    0.05117130277104979    0.06516746674883386    0.09127086554774129    0.13943096395719048    
  0.223124191241596    0.3383746205089985    0.3922751567731435    0.26201223934621065    0.10454925231542417    
  0.05886268057876789    0.10498291542091397    0.26362236275132805    0.39510557162913745    0.3410891753900313    
  0.22505833775762007    0.14081028842689888    0.09242565841444925    0.06630110650393017    0.052393512015511984    
  0.045084670648224204    0.041533506460312314    0.04046049529537887    0.04153351348176002    0.0450846650918604    
  0.05239352339047666    0.06630109712733363    0.09242563034323012    0.14081023715775826    0.22505825265244442    
  0.34108913311130873    0.39510558960316855    0.26362242828327226    0.10498299438076121    0.05886268686157519    
  0.10454918568285641    0.26201216785036613    0.39227517772896514    0.33837469445590823    0.223124237861278    
  0.13943102494376663    0.09127090984883202    0.06516748471874835    0.051171304788197335    0.043740197843468234    
  0.04008958862803939    0.0389791651705625    0.04034783357156145    0.041500752251655774    0.0452895328143839    
  0.05292932071390342    0.06706833481759782    0.09300237520931728    0.13996325861548556    0.2203610974096851    
  0.33281677667270176    0.40238397409476967    0.30939655926369514    0.15839876824199023    0.10498296850463028    
  0.15859813479411933    0.310139513571028    0.40366551432382597    0.3340835303414818    0.2214506646059025    
  0.1409599731695612    0.09396476700988242    0.06805080488370148    0.05397108478279998    0.046401541028063244    
  0.04266757214045146    0.041535094540019704    0.042667560699802674    0.04640152709664057    0.05397108998936885    
  0.06805078513876398    0.09396475161992622    0.14095995374027873    0.22145061118572423    0.33408347851072046    
  0.4036654900617731    0.31013954977785185    0.1585981781945678    0.10498295415964945    0.15839875429761976    
  0.30939643748845225    0.40238403409442863    0.3328168056684087    0.22036122508566494    0.13996328255591994    
  0.09300240771787244    0.06706835950622292    0.05292927871969516    0.04528955924587586    0.04150073953786384    
  0.04034783357156145    0.04427354423316872    0.04559551119117545    0.04988225339719858    0.05820914846696539    
  0.07274625446031424    0.09791934866232178    0.14097765931513667    0.21106003201189824    0.310299215598421    
  0.4007449776980331    0.3972916813395602    0.3103866345862522    0.2636224004357726    0.31013954584778486    
  0.3969171250467557    0.4004494153369398    0.3102009037309559    0.21120040679673557    0.14132027676135062    
  0.09841644659053572    0.0733645562752462    0.058920085480803956    0.050659214803583104    0.04641234571605518    
  0.04510438583431844    0.0464123373198484    0.05065918311575779    0.05892009826649055    0.07336454297442313    
  0.09841642937552089    0.14132027086134724    0.21120034238552476    0.3102007984668519    0.40044934772384727    
  0.3969171080356876    0.31013960081972936    0.2636224124377013    0.3103865947582598    0.3972916808271508    
  0.40074505503711716    0.31029932087325107    0.21106009153296737    0.14097768605289424    0.09791936025047451    
  0.07274627250622072    0.0582091273329528    0.04988226460093725    0.04559551992610106    0.04427354423316872    
  0.05204674029166775    0.05361658514390842    0.05858543687613552    0.06773316829551684    0.08243401703559258    
  0.10555790713051036    0.1417210568958999    0.19584667140318082    0.2697957580073378    0.35046411611632666    
  0.40165518572181774    0.40435160935824427    0.3951055450451429    0.40366549975815363    0.4004494249645424    
  0.34920447662637033    0.26888226042215074    0.19533686812317302    0.14152618992234461    0.10558982472945534    
  0.0826222434239977    0.06802347913108216    0.05893612933469889    0.05399858487927072    0.052437618314626136    
  0.05399858346746121    0.05893610175162954    0.06802350302088404    0.08262223396910184    0.10558986202176614    
  0.14152613015445276    0.19533685070144186    0.26888223341768713    0.3492043636571714    0.40044931719357824    
  0.403665527796996    0.3951055434508236    0.4043516652315555    0.40165524388108775    0.3504641139602478    
  0.26979580883335336    0.1958466675084946    0.14172109676582317    0.10555792026647894    0.08243400910516496    
  0.06773312588719078    0.05858545807318992    0.05361661352695558    0.05204674029166775    0.0663792873817384    
  0.06811527208343783    0.07343611837080763    0.08271830860794083    0.09638502453987763    0.11543101514434136    
  0.14185981610399032    0.1772560981967124    0.22154047619876657    0.2700746401031726    0.31132417850609434    
  0.3347721014953626    0.3410891404051375    0.33408346931082106    0.3102008803385236    0.2688822837069475    
  0.22052895872944656    0.17651649864887353    0.14138542650265443    0.11516240285640916    0.09625013903533522    
  0.08265624641464092    0.073406498994201    0.06809620411721386    0.06636286426801458    0.06809622496034141    
  0.07340647405323232    0.0826562791984304    0.09625013952837436    0.11516240366394086    0.14138541328936183    
  0.17651646206224592    0.22052896556603033    0.26888223039675097    0.3102008156552338    0.33408346811571266    
  0.341089132907479    0.3347721075066364    0.3113242668250623    0.27007463794996683    0.2215405268553717    
  0.17725606905614036    0.1418598756118927    0.11543101158442624    0.0963850860083244    0.0827182843658866    
  0.07343613744816928    0.06811526158176506    0.0663792873817384    0.09280691209437646    0.09433885833904035    
  0.09879081961825409    0.10595796701023896    0.11551077473249355    0.12723369919866492    0.14148819657473416    
  0.1583583598129237    0.17714373460351962    0.19601079388065565    0.21180574807182048    0.22182411062890045    
  0.22505829347672407    0.22145061022386275    0.21120040669238596    0.195336895332097    0.17651646340231328    
  0.157838089068212    0.14108414639847128    0.1269176840347293    0.11523747299044106    0.1056864103275699    
  0.09849699159030047    0.09402105431108765    0.09247907427499531    0.09402105320689501    0.0984969425985462    
  0.10568642578642269    0.11523744039084546    0.12691766262159293    0.1410841279334351    0.15783802780421882    
  0.17651647605401502    0.1953368769156481    0.2112003458899542    0.2214506677230626    0.22505825339180935    
  0.22182412963688028    0.21180576066388387    0.19601085654357522    0.17714372765942824    0.15835839808938665    
  0.14148822772210617    0.12723372203027075    0.11551075525141913    0.10595798664306767    0.09879080611292186    
  0.09433886106089778    0.09280691209437646    0.1412474698739518    0.14142651166194314    0.14178354392323367    
  0.14194323342932752    0.14170767575113033    0.1412819352565483    0.14105124848594072    0.14119871005147347    
  0.1415463958433768    0.1417077353294348    0.14147327240127533    0.14104395948271345    0.14081027617919106    
  0.14095995582704593    0.14132031567833833    0.1415261856469084    0.14138542718078315    0.14108412100698084    
  0.14097364325756337    0.14120190818900213    0.14157463511084412    0.14171646315201367    0.14145114302380138    
  0.14101131411913873    0.1408021253286521    0.1410113362089393    0.1414511313981444    0.14171646680889502    
  0.14157457889374803    0.1412019069783039    0.1409736064238399    0.14108412807319765    0.14138542011479474    
  0.14152618018444538    0.14132023643093375    0.14095999266939865    0.14081027649292024    0.14104396788169407    
  0.1414733318631448    0.14170775298868707    0.14154641192899647    0.14119873098243116    0.14105128007540046    
  0.14128193236127842    0.14170770383252676    0.14194325584011358    0.14178352784113507    0.14142654182295464    
  0.1412474698739518    0.2250754302714243    0.22163671059644857    0.21145781318380408    0.19556651649939952    
  0.17664507005627383    0.1578257092539589    0.14093906203152995    0.12668689243212855    0.11498540901657323    
  0.10547033094502634    0.09834676653650255    0.09393405850783672    0.09242564044025708    0.09396475485534743    
  0.09841644567041055    0.10558984601953854    0.11516239230252624    0.12691769359684651    0.14120192255600758    
  0.15807851652250154    0.17683227207679195    0.19563720858508746    0.2113897016969679    0.22145507553550217    
  0.2248485521965011    0.22145502024491562    0.21138964111305694    0.19563720429343737    0.1768322518161    
  0.15807849719396197    0.14120190873165842    0.12691764474441627    0.11516239346068972    0.10558983455750447    
  0.09841641881439729    0.09396477629285621    0.09242563133850072    0.0939340406037952    0.0983467902529318    
  0.1054703422258189    0.11498537098832577    0.12668690390284937    0.14093908479625222    0.15782573023456134    
  0.1766451066678183    0.1955665447181232    0.21145784205614165    0.22163670061973967    0.2250754302714243    
  0.3402180179581902    0.3335983687637768    0.310019831325488    0.26881720835001605    0.2204392854141297    
  0.17634618924568402    0.1411341256248333    0.11486996514368226    0.09596855950453678    0.08242722278503965    
  0.07324632235066994    0.06799597381853785    0.06630108279433036    0.06805078927059224    0.07336456998538901    
  0.08262227469473353    0.09625012065494996    0.11523744980147797    0.14157461140155447    0.17683225461776597    
  0.22093171861476946    0.26927262054530177    0.3104040236743592    0.3339072399367955    0.3404953408243047    
  0.33390720395933754    0.31040397952499615    0.2692726600160011    0.2209315949419024    0.17683229529449537    
  0.14157459978355566    0.11523745951323679    0.0962501399074742    0.08262224463925481    0.07336454681810164    
  0.06805081954297995    0.06630111516800478    0.06799593683561685    0.07324633551732511    0.0824272390399409    
  0.09596856213062488    0.11486997167844666    0.1411341324140629    0.17634618826568654    0.22043935331776676    
  0.2688171705310285    0.31001982012018675    0.33359835793672726    0.3402180179581902    0.3936033376100014    
  0.4025463729013579    0.3997944654525433    0.3489343076033565    0.26876111186541435    0.19522335273302535    
  0.1413855463367683    0.10542786400675916    0.08246119539883373    0.0678848027627709    0.05883122792025306    
  0.053927662089472535    0.05239351343307208    0.05397108504791294    0.05892009448636075    0.06802351476521834    
  0.08265625494766225    0.10568639404185769    0.14171652920491798    0.1956372081668378    0.2692726270353852    
  0.34955267973121285    0.4004857164326657    0.4032423939648137    0.3942841924666492    0.40324244640297957    