#     DFTpy    
  CRYSTAL 
    
  PRIMVEC    
  2.523384948143157    -4.370630937238504    0.0    
  2.523384948143157    4.370630937238504    0.0    
  0.0    0.0    8.341591738131138    
  PRIMCOORD    
  4    1    
  Si    2.523384948143157    1.456876979079501    0.5255995246237722    
  Si    2.523384948143157    -1.456876979079502    4.6963953936893414    
  Si    2.523384948143157    1.4568769790795018    3.6451963444417963    
  Si    2.5233849481431574    -1.4568769790795018    7.815992213507366    
  BEGIN_BLOCK_DATAGRID_3D    
  3d_datagrid_density    
  BEGIN_DATAGRID_3D#0    
  23    23    37    
  0.0    0.0    0.0    
  2.523384948143157    -4.370630937238504    0.0    
  2.523384948143157    4.370630937238504    0.0    
  0.0    0.0    8.341591738131138    
  0.016591254963791335    0.01714858325240934    0.018928353922980857    0.022345174309810294    0.02813356643514685    
  0.037295235169210204    0.05108394608099872    0.07050005317415656    0.09494505953545011    0.12074305858043997    
  0.1410900215171011    0.148881836369775    0.14109002800980683    0.12074304344217328    0.09494508373582342    
  0.07050005036772976    0.0510839526677117    0.03729522795774566    0.028133567767110294    0.022345169591227242    
  0.018928351811608193    0.017148582967303098    0.016591254963791335    0.01714857506383899    0.017147915315762114    
  0.018321245072150993    0.0209455470406332    0.025653441325590852    0.03342423168496081    0.04564484267688804    
  0.0637985022806538    0.08833380148743745    0.11706784655131836    0.14391883811191758    0.16045650475951856    
  0.16045623415103122    0.14391642195658158    0.117060141102041    0.08834084100527145    0.06380023498990375    
  0.04564286050277144    0.03342451228312393    0.025651823781790126    0.02094717892552269    0.018320193227341852    
  0.01714857506383899    0.018928348525868378    0.018321247439450447    0.018928227644728304    0.02094724126863056    
  0.024939793432401484    0.031947651881475886    0.04369207620265677    0.06244133978599072    0.08998001026687945    
  0.12558466726281184    0.16370721919084816    0.19381526974125898    0.20529050764472498    0.193817657238454    
  0.16371943075056677    0.1255827736044644    0.08997144382941136    0.062443227644286156    0.043692419685612036    
  0.03194947832512163    0.024939069938024923    0.020947180647153982    0.018928348525868378    0.022345163766491264    
  0.020945551187737783    0.020947240240876432    0.02234340777108585    0.025653395581310908    0.03194790166262249    
  0.04326862646468892    0.06272649225348341    0.09383551226253023    0.1383091541967706    0.1916378354921343    
  0.2406394245504215    0.2694967866987312    0.2694893209262351    0.2406294394367857    0.19163698977353005    
  0.1383159466452297    0.09383602008037585    0.06272817977782641    0.043264745531756355    0.03194947837284415    
  0.025651831500399423    0.022345163766491264    0.028133563205752596    0.025653448395581636    0.02493979161796181    
  0.025653404048776703    0.02813416626837373    0.03342357172592554    0.04369240231704339    0.06272574873321339    
  0.09568123134285084    0.14728311904956798    0.21536786083687814    0.2829983301378518    0.3272210844449318    
  0.3409746114597164    0.32723559209559777    0.2829958857979531    0.21536009471277592    0.14728855211195704    
  0.09567587883878512    0.0627281864291235    0.04369241604994237    0.03342451700460648    0.028133563205752596    
  0.0372952254998986    0.03342423283516565    0.03194764334114848    0.03194790140226991    0.033423565991546514    
  0.03729540210259412    0.04564503078383393    0.06244178545639864    0.09383622253461564    0.14728545929907125    
  0.2245973752604352    0.305858065044363    0.3535671238018615    0.3624091545395516    0.36240017714949374    
  0.35357744450641954    0.30587476709531647    0.22458880619153307    0.14728854767486413    0.09383600892144897    
  0.06244322424791245    0.045642863110025834    0.0372952254998986    0.051083936844941454    0.04564485591124434    
  0.04369207434254108    0.043268636499486805    0.04369240399379794    0.04564504543832934    0.0510815757618124    
  0.06380052437111755    0.08997459876705768    0.1383141081700159    0.21535934914609256    0.3058724171811038    
  0.35752127288344787    0.34617654031187384    0.3287575201482581    0.3461720618941454    0.3575243153593564    
  0.30587477231220583    0.2153600938109069    0.13831593959861632    0.0899714408557927    0.06380023218502806    
  0.051083936844941454    0.07050003991802747    0.0637985134544565    0.06244133825433427    0.0627265011664989    
  0.06272574407551723    0.06244178896704841    0.06380050893590183    0.07050015255742595    0.08833746525204537    
  0.12558406237590053    0.19163790575361853    0.282994685247027    0.35357975679623616    0.3461690858513516    
  0.30204152685040825    0.30204678856564704    0.3461720800636653    0.35357746170936444    0.28299587669826176    
  0.19163700312455478    0.12558279554557888    0.08834084277287138    0.07050003991802747    0.09494506376966162    
  0.08833380145600353    0.08998001932854935    0.09383552772608772    0.09568121647622446    0.09383625405662016    
  0.08997460237684839    0.0883374659864981    0.09494679958298645    0.11705975615639412    0.16371786127931764    
  0.24062588870173132    0.32724064966992245    0.3623820514561207    0.3287760446998318    0.30204151565412507    
  0.32875752767374217    0.36240017036640537    0.3272355750260041    0.24062944509322948    0.16371941857286862    
  0.11706014484958213    0.09494506376966162    0.12074305099056767    0.11706786308948955    0.12558466355781472    
  0.13830917226871772    0.14728309079189822    0.14728546560146855    0.13831410451103315    0.12558405985146773    
  0.11705974821238208    0.12074855710645946    0.14391698080892384    0.19382161690357788    0.2694941106530283    
  0.3409801520895184    0.3623820908815617    0.346169082565046    0.34617654363702327    0.3624091785074602    
  0.3409746321712025    0.26948933582428447    0.19381765054620734    0.14391640358306845    0.12074305099056767    
  0.14109001327173368    0.1439188457820437    0.16370723315742966    0.191637810301942    0.2153678429261231    
  0.22459738272299085    0.21535934137771914    0.19163790434980518    0.16371785338374392    0.14391696481252714    
  0.14108585530283993    0.16045482104332398    0.2052875809744378    0.26949413446988313    0.3272406574627105    
  0.35357975985464246    0.357521276757409    0.3535671286884685    0.3272210799907732    0.26949679785789193    
  0.20529052378844884    0.16045623767425313    0.14109001327173368    0.14888183052415505    0.16045651474705133    
  0.19381527957447975    0.2406394377072014    0.28299836447699345    0.3058580778562292    0.3058724542824337    
  0.28299472314300983    0.24062587917872214    0.19382162843111292    0.16045483948539807    0.1488910541905909    
  0.16045485033338847    0.1938216202389901    0.240625878651756    0.2829947068292818    0.3058724789038867    
  0.30585804235886765    0.28299832590560203    0.24063943349877254    0.19381526690488832    0.1604564942132738    
  0.14888183052415505    0.14109001698870363    0.16045623479318125    0.20529051837231685    0.26949681508627366    
  0.3272210775351278    0.3535671379737328    0.35752122833652233    0.3535797349622563    0.3272406337110766    
  0.26949409688396486    0.20528758110121778    0.16045480161635037    0.14108584204503982    0.1439169965368051    
  0.16371788410102778    0.1916379000001892    0.21535935658039335    0.2245973909107442    0.21536786606109    
  0.1916378096877176    0.16370722304725674    0.14391883658123636    0.14109001698870363    0.12074304969259628    
  0.1439164402388911    0.19381766149419144    0.26948934056667145    0.340974636119289    0.3624091581242878    
  0.34617652831327866    0.3461690635161639    0.36238201890160715    0.3409802172287422    0.2694941453659573    
  0.1938215928947996    0.14391697886031732    0.12074854243231276    0.11705977270946548    0.1255840465779369    
  0.13831410422693657    0.1472854568160831    0.14728310701629108    0.1383091664277355    0.12558466382276884    
  0.11706785286541774    0.12074304969259628    0.09494505661876096    0.11706014314907472    0.16371940351845674    
  0.2406294476612968    0.32723558045131135    0.3624002200240056    0.32875754849701855    0.3020414984837344    
  0.3287760277523474    0.36238209656050413    0.32724067147005403    0.24062589375617538    0.163717869838272    
  0.1170597572387318    0.09494680572230281    0.08833746185027222    0.08997460437899268    0.09383624134165458    
  0.09568121645285951    0.0938355246739152    0.08998002112052979    0.08833379924540097    0.09494505661876096    
  0.07050004035944973    0.08834084908572074    0.12558277335801726    0.19163699587711036    0.2829958934781646    
  0.3535774532709596    0.3461720520807252    0.30204680190823174    0.3020414949710716    0.34616910770991394    
  0.3535797546496219    0.2829946887315017    0.1916379215110537    0.1255840687921563    0.08833747213076372    
  0.07050013838147055    0.06380052926690769    0.06244177729289528    0.06272574061712687    0.0627264921355423    
  0.06244134133585749    0.06379851662309524    0.07050004035944973    0.05108393751225396    0.06380024083987249    
  0.08997143324272643    0.1383159472498873    0.21536011186925239    0.30587476123807195    0.35752428743288206    
  0.3461720682503636    0.3287574989179904    0.3461765378595432    0.35752125123694434    0.305872443399155    
  0.2153593566687787    0.13831410168572464    0.08997462598187342    0.06380051382496643    0.05108158527475217    
  0.04564504215922244    0.0436924027958796    0.043268628852675524    0.0436920833215337    0.045644849345086363    
  0.05108393751225396    0.03729522528089405    0.045642872092122665    0.06244322134028707    0.09383602360573688    
  0.14728856215722336    0.2245888357707306    0.30587473693728917    0.3535774624133567    0.3624001842476214    
  0.362409182632184    0.35356715491071333    0.30585802150315466    0.22459738788024125    0.14728545871924795    
  0.09383623441898574    0.06244177422173203    0.04564504666346478    0.037295401996799926    0.033423564876016575    
  0.03194789647420278    0.03194765078459267    0.033424233609194255    0.03729522528089405    0.028133563674353133    
  0.03342452387409256    0.04369241417741739    0.06272819001647062    0.095675887343235    0.14728857341448306    
  0.21536008809825855    0.28299591641363514    0.32723556466146936    0.34097466740547683    0.32722109584780246    
  0.28299832584714174    0.21536786006840897    0.1472831132075869    0.09568123978014277    0.06272574386707853    
  0.04369241436594661    0.033423569577236786    0.028134167118028085    0.025653404337409178    0.02493979877019127    
  0.025653444295438314    0.028133563674353133    0.02234516437371774    0.02565183079434998    0.03194947570793143    
  0.04326475232905059    0.0627281799179001    0.09383603033327376    0.13831593086942784    0.19163698747421226    
  0.2406294319074607    0.26948933755917903    0.2694968189257809    0.24063941046037882    0.19163781527347465    
  0.1383091565940041    0.09383552151566527    0.06272648882261986    0.04326863533637176    0.031947898995123576    
  0.025653403525533826    0.02234340566115757    0.020947240508093795    0.020945548285175218    0.02234516437371774    
  0.01892835046971599    0.020947179707910536    0.02493907159161313    0.0319494834457382    0.04369241647365383    
  0.062443228648611654    0.08997143850598258    0.12558278087842487    0.16371940815225047    0.19381767100277394    
  0.2052905206322077    0.1938152777758368    0.16370720323849314    0.12558464872326447    0.08998003990032606    
  0.06244133808700076    0.04369208135771805    0.03194764699911665    0.024939792075181794    0.020947239396314127    
  0.01892822470210521    0.018321242015190514    0.01892835046971599    0.017148573714657597    0.018320194434845238    
  0.02094717700284092    0.025651828581421895    0.03342451508817934    0.045642866930867866    0.06380022236387349    
  0.08834084110472314    0.11706012182787537    0.14391642469433394    0.16045624020810748    0.1604565010831869    
  0.14391881640534637    0.11706786151540902    0.08833379247134174    0.06379851479831919    0.04564484769843549    
  0.03342422557577273    0.025653440343428792    0.02094554187230651    0.018321242540565382    0.017147914139327394    
  0.017148573714657597    0.016591254963791335    0.01714858325240934    0.018928353922980857    0.022345174309810294    
  0.02813356643514685    0.037295235169210204    0.05108394608099872    0.07050005317415656    0.09494505953545011    
  0.12074305858043997    0.1410900215171011    0.148881836369775    0.14109002800980683    0.12074304344217328    
  0.09494508373582342    0.07050005036772976    0.0510839526677117    0.03729522795774566    0.028133567767110294    
  0.022345169591227242    0.018928351811608193    0.017148582967303098    0.016591254963791335    0.016370851087037657    
  0.016914244903674717    0.018662119457593114    0.02201243566643583    0.027669018567294038    0.03659317581547089    
  0.049975721054250626    0.06875555592006767    0.09232664680936574    0.11710528003584941    0.13661087353093623    
  0.14407992775740083    0.1366156919115374    0.11710592290519793    0.09230925474435805    0.06875892087641663    
  0.04998195608029502    0.036590790461454685    0.027669386928793165    0.02201236413600454    0.018662139884745927    
  0.01691437783320101    0.016370851087037657    0.016914371363944452    0.01691492399808473    0.018011666360202735    
  0.020445316473797843    0.024762842967384523    0.0317717382332368    0.042567782665236115    0.05828328863236658    
  0.07918516958167905    0.10339544059895134    0.12581610628994228    0.13954238116700596    0.13954265084793613    
  0.12581084235873582    0.10339489132493923    0.0792001317695044    0.05828146010076273    0.0425626644255283    
  0.031772270202535105    0.024762600842931273    0.02044559529095964    0.01801173887340709    0.016914371363944452    
  0.01866213649005882    0.018116425656170554    0.018661845170494337    0.020445823339545737    0.023922161075675616    
  0.029890324899499762    0.039574792923111356    0.054584256737035125    0.07604153097989572    0.10315377703453478    
  0.13181134331006378    0.15434778258389636    0.16294380901394104    0.154348230037657    0.1318164449092887    
  0.10315330764117683    0.07602828527315526    0.054584775666530944    0.03958097725601822    0.029889876350529383    
  0.02392203757404861    0.02044559507453582    0.01866213649005882    0.0220123603557431    0.020836148238997848    
  0.020836686571640013    0.022011861855516134    0.024763135390297033    0.029888272855398954    0.038820588350255966    
  0.0536536093448752    0.07663010734996602    0.10864435184319737    0.14663015834291648    0.1820849298402116    
  0.2036804607045043    0.2036788044574159    0.182085789905341    0.14662726284527106    0.10864447926985141    
  0.07664204714312794    0.053653536905815265    0.038813364843687435    0.029889874340888207    0.02476260774719677    
  0.0220123603557431    0.027669381253495034    0.025734864839256414    0.025182059258485615    0.025735107116945048    
  0.027669165457990728    0.03177326874459133    0.03957499316802038    0.05365291940979877    0.07729142807096161    
  0.11334256754035463    0.16096975349307607    0.21139943150631632    0.24967910340096058    0.2637149894559787    
  0.24967881782165469    0.2113985963276638    0.16097093273732715    0.11334499354349753    0.07727952511811714    
  0.05365354158805323    0.039580969721374384    0.03177227470860817    0.027669381253495034    0.03659078255850199    
  0.03389689535756229    0.03292326866208259    0.03292369627337453    0.03389602145863136    0.036590796233595985    
  0.042568681470964764    0.054584302410886756    0.07663078041059822    0.11334843999914855    0.1668537208633206    
  0.2298420174438703    0.28363715086251784    0.31200842298238896    0.3120075970657132    0.28364296101385583    
  0.22984340971836256    0.1668534819318963    0.11334497057745206    0.07664203395542395    0.05458476961376389    
  0.04256266854314113    0.03659078255850199    0.049981947493318114    0.04689377162890923    0.04615804972316565    
  0.04612313510035226    0.046158625051957655    0.04689416964465679    0.04997440426859538    0.058282606449307175    
  0.07604078270949972    0.10863932569826372    0.16097017466680671    0.22984432013222378    0.2955169237469369    
  0.334199702871514    0.34456468746594304    0.33419932150249565    0.29552254186810434    0.2298434296895604    
  0.16097093915375588    0.10864445102695425    0.07602828568516386    0.05828145979756857    0.049981947493318114    
  0.06875892246638513    0.06640797611029141    0.06768138568674245    0.06929698706996683    0.06929557383093823    
  0.06768192993133186    0.06641628108927188    0.06875864662873696    0.07918544949382796    0.10315945331663275    
  0.1466280820444516    0.21139740454167885    0.2836429182327902    0.33420157355738755    0.3515113187366008    
  0.3515040115582449    0.33419933810825764    0.2836429624752977    0.21139860959885604    0.14662726932269862    
  0.10315331868126407    0.0792001301327935    0.06875892246638513    0.09230923338535175    0.09299656581107146    
  0.09984775618626522    0.10712761262895487    0.11020249866956261    0.10712814094617522    0.09983372041797009    
  0.09300023180613472    0.09232371523164154    0.10339026355467087    0.13181381887417432    0.18208458631418464    
  0.24968021276605015    0.3120031835059712    0.34456056357242465    0.35151132933452645    0.34456468890793185    
  0.3120075562436005    0.24967880447366836    0.18208579387131757    0.1318164343854307    0.10339489475715465    
  0.09230923338535175    0.11710592924732378    0.12428758558926935    0.14197105050382838    0.1619337030753137    
  0.17500804379645485    0.17501246833968548    0.16195186080714408    0.14196993003445396    0.1242662516772901    
  0.11711304173950163    0.12581493055348233    0.1543483259670566    0.20368177922961317    0.2637144876234414    
  0.31200323608136926    0.33420158083882895    0.33419969441386516    0.3120084260855896    0.2637149973147612    
  0.20367880045634795    0.15434822940410678    0.12581083682469965    0.11710592924732378    0.13661567403164543    
  0.15362230414549463    0.1871921741652797    0.22705896519530602    0.2580094909137084    0.26934460534802895    
  0.2579788057701593    0.22705691374716727    0.18722098921945524    0.1536177314800507    0.13660860531714453    
  0.13954349420310086    0.16294126607342768    0.20368176413138078    0.2496802331664737    0.2836429068293705    
  0.29551690812892123    0.28363715329717154    0.24967908557202328    0.20368045847539548    0.16294381859934096    
  0.13954264959422621    0.13661567403164543    0.14407991298647693    0.17172146581291897    0.22269248458837868    
  0.2841522533736339    0.3296678779205316    0.34715411317886896    0.3471944027446376    0.3296700056218513    
  0.28411834129377583    0.2226992049228329    0.17172752531122965    0.1440831061717019    0.13954352395575048    
  0.15434834105955975    0.18208459309415473    0.21139742554709412    0.22984438179624553    0.22984199650667073    
  0.21139943349255044    0.18208495140034842    0.15434778082326087    0.13954237961455662    0.14407991298647693    
  0.13661085560710368    0.17172681172500645    0.23611040614884543    0.31535104739185393    0.36159394003506257    
  0.3513814070767625    0.33539094830334437    0.35139962679141423    0.36163372041835856    0.31534963042841063    
  0.23609988889676273    0.17172750617100638    0.13660858355067307    0.12581493071760355    0.1318138158613349    
  0.14662808878859046    0.16097017348043294    0.16685372047348834    0.16096975446467268    0.1466301501158966    
  0.1318113397786519    0.1258161096420809    0.13661085560710368    0.11710528884753485    0.1536234909568667    
  0.2226892230989154    0.3153438054941375    0.36616831295017976    0.3153884657104986    0.24297530803343725    
  0.2429569989854743    0.31533287869649496    0.3661922822130038    0.31534965840918067    0.22269915908817647    
  0.15361774990323543    0.11711303139695796    0.10339027130286717    0.10315942805615759    0.10863931051202928    
  0.1133484280550299    0.11334256511678766    0.10864435634814736    0.1031537873820494    0.10339544118435343    
  0.11710528884753485    0.09232664632774278    0.1242636202152591    0.18722510351752664    0.284114808391419    
  0.3616396502383736    0.3153618294983684    0.19727014851846017    0.1474770694769096    0.19731423212811658    
  0.3153328986280785    0.3616337354992557    0.2841183539519615    0.18722098164296289    0.12426626108429206    
  0.09232372520042499    0.07918544218678161    0.07604078277073176    0.07663078101830849    0.07729142028652078    
  0.07663011708430655    0.07604155099187643    0.07918517488200343    0.09232664632774278    0.06875555619994368    
  0.0930014225854122    0.1419671956236471    0.22706145499244001    0.32966292536369557    0.35139060178192777    
  0.24297409259640346    0.1474916579712418    0.14747706369149818    0.2429569963895498    0.3513995953768036    
  0.3296699809519149    0.2270569423717382    0.1419699335193907    0.09300024379217815    0.06875863670898065    
  0.05828261394224601    0.05458429621422295    0.05365291560678405    0.053653613209043514    0.05458426215265486    
  0.05828329480747074    0.06875555619994368    0.049975713701524635    0.06641671209084098    0.09983489441273245    
  0.16195172911436848    0.257983291586489    0.34720534244749485    0.33537928180796334    0.24297411302815783    
  0.19727011963150407    0.24297532624431267    0.3353909600461153    0.347194377962683    0.25797880857075617    
  0.1619518800672515    0.09983373154012526    0.0664162801375498    0.049974417899137334    0.04256869003319736    
  0.03957499662917241    0.03882059323192106    0.03957479492512376    0.04256779194275737    0.049975713701524635    
  0.036593160033028975    0.04689088459176082    0.06768528700560722    0.10712084523570886    0.1750194852351043    
  0.2693179265721177    0.34720532894918654    0.35139057655264766    0.31536177652419417    0.3153884674591174    
  0.3513813818824332    0.3471540568633648    0.26934459426688007    0.17501247156758704    0.10712813091540353    
  0.06768191425217826    0.04689417176625247    0.03659079780409345    0.03177325314030961    0.029888267939755634    
  0.0298903218562784    0.03177174217974996    0.036593160033028975    0.027669013381808178    0.03389586873023661    
  0.046158511798439134    0.0692966806411725    0.1102036294574429    0.17501948197781714    0.25798330256970575    
  0.3296629381586025    0.36163960265505074    0.36616835230175454    0.36159393361350023    0.32966790092305687    
  0.2580094653232313    0.17500809284953175    0.11020252511719034    0.06929557180424495    0.046158631971645346    
  0.03389602318906345    0.02766916588081441    0.024763144444831218    0.023922166896185572    0.024762844830326616    
  0.027669013381808178    0.022012429630958636    0.025735041600265338    0.03292402965392431    0.04612215101566587    
  0.06929667712438631    0.10712084783695794    0.16195171550823897    0.2270614363594398    0.28411480038078524    
  0.3153437948952164    0.31535104225000266    0.2841522308277994    0.22705893847416722    0.1619336811873881    
  0.1071275987927445    0.06929698026054028    0.04612313537957514    0.03292369537820318    0.025735105118126246    
  0.022011857569139783    0.02044582077477145    0.020445318624274178    0.022012429630958636    0.01866211506171857    
  0.02083621053599182    0.025181735626709407    0.03292403764355641    0.046158515882811224    0.06768529911488891    
  0.09983489650279179    0.14196719745370656    0.18722513151203352    0.22268923465363952    0.236110416971035    
  0.2226924749034569    0.18719215426052618    0.14197101852937855    0.09984777594775505    0.06768138480688148    
  0.04615805120203315    0.03292327411510557    0.025182060295928208    0.020836686372137047    0.018661841532367676    
  0.018011666639654866    0.01866211506171857    0.016914235104761942    0.018116892949643495    0.02083620973661183    
  0.025735039495150512    0.03389586172751103    0.046890882881135985    0.06641669708935442    0.09300141227522317    
  0.12426360395926686    0.15362347635162274    0.17172680101099333    0.17172146590316184    0.15362227812663215    
  0.12428757839561208    0.0929965566193673    0.06640797035086073    0.046893772259800036    0.03389688762966244    
  0.025734855489876016    0.020836140883226734    0.01811641928889302    0.016914922858286465    0.016914235104761942    
  0.016370851087037657    0.016914244903674717    0.018662119457593114    0.02201243566643583    0.027669018567294038    
  0.03659317581547089    0.049975721054250626    0.06875555592006767    0.09232664680936574    0.11710528003584941    
  0.13661087353093623    0.14407992775740083    0.1366156919115374    0.11710592290519793    0.09230925474435805    
  0.06875892087641663    0.04998195608029502    0.036590790461454685    0.027669386928793165    0.02201236413600454    
  0.018662139884745927    0.01691437783320101    0.016370851087037657    0.01572727558906081    0.016244758578979796    
  0.01790396617257509    0.021062398099531733    0.02633887246228492    0.03458554295601152    0.046834675187418094    
  0.06385547068279519    0.08499753910323636    0.10703744617478601    0.1242836415590486    0.1308790004945687    
  0.1242931108268505    0.10703817695499164    0.08497976807254307    0.06385589022932582    0.0468455925016281    
  0.03458259852729348    0.02633816419777401    0.02106248241989677    0.017903935849763984    0.016244836204319123    
  0.01572727558906081    0.016244825747545256    0.0162451961335377    0.017236802904985506    0.01941627793530991    
  0.023218896541385467    0.029260706741405254    0.03833810746674341    0.05118199981404905    0.06786461580826834    
  0.0868303230653493    0.10415481515095958    0.11467263712251774    0.1146735479061274    0.1041476430391066    
  0.08682913267219708    0.06787972465989069    0.051181970265599334    0.038329110566732376    0.029262449966021814    
  0.023219510742299197    0.019416099911866325    0.017236929048454235    0.016244825747545256    0.0179039311305692    
  0.017435837314139238    0.017903876780513306    0.019415791303282172    0.022313094447334703    0.02715313118955456    
  0.03470778598833127    0.04597108312430797    0.061495187662483464    0.08051719517351698    0.10016875074807428    
  0.11538922414179903    0.12115044531105142    0.1153873827912742    0.10017632957406225    0.08051743267099747    
  0.06148210012320419    0.045969993146493617    0.034717007259485504    0.027151580358561567    0.022312498091830488    
  0.019416098755731172    0.0179039311305692    0.021062476805817455    0.020127099310832366    0.02012692079658238    
  0.0210630079760698    0.023219018681667657    0.02714986409769367    0.03374095866025025    0.04419715873774672    
  0.05975400028282564    0.08065886477937245    0.10478464459859814    0.12695873225094417    0.14042771255704703    
  0.14042983041716123    0.12695885463854864    0.1047792607746874    0.08065766637875225    0.059767165275417894    
  0.04419821738129799    0.03373144253056829    0.02715157930970199    0.0232195178307754    0.021062476805817455    
  0.026338160758757067    0.02496030221734508    0.024568064872740034    0.024959912340584332    0.02633853690917215    
  0.029264094828461627    0.03470760604977212    0.044199105216987375    0.059540795936728536    0.08208391720164573    
  0.11108881997993286    0.14178233624129966    0.1657855343796483    0.17490282883252445    0.1657851325253209    
  0.14178204839843958    0.11109326904599957    0.08208563321437407    0.059527702350200926    0.04419822109271939    
  0.03471700496046617    0.029262456560303966    0.026338160758757067    0.034582595559389605    0.03301515075359055    
  0.03252601926749489    0.032527413931326604    0.03301362570620393    0.03458203311516429    0.03833838599260793    
  0.045969197047610086    0.05975382182460305    0.08208815043378657    0.11389573735106874    0.15188508766267822    
  0.18720738136678752    0.2085653733256837    0.2085647022419395    0.1872073842838709    0.1518867468913433    
  0.1138920317985175    0.08208563014649796    0.059767159398532145    0.04596998597215328    0.038329113576764565    
  0.034582595559389605    0.04684557686566698    0.04586820943806878    0.04623374647775892    0.046547154623419344    
  0.04623450073138945    0.04586977014409885    0.04683363884566587    0.0511839721854355    0.061495341185034164    
  0.08065515677272252    0.1110888677047992    0.15188872370542905    0.1955877936896763    0.22912929944031532    
  0.24149394821055686    0.22913077203212312    0.19559151738271296    0.15188675972558655    0.11109326022198387    
  0.08065765169331018    0.061482102361887614    0.05118196806627918    0.04684557686566698    0.0638558851169363    
  0.06520374841847582    0.06867006680412949    0.0713871487558856    0.07138394938249838    0.06866980145782949    
  0.06521693463579153    0.06385588251062943    0.06786318981847614    0.08052157209858969    0.10478356183509045    
  0.14177941108059483    0.18720907729446645    0.22913294903695444    0.2535358824116472    0.25353295431798967    
  0.22913079533043007    0.18720742220878914    0.1417820471183618    0.10477927696641769    0.08051744543991211    