#     DFTpy    
  CRYSTAL 
    
  PRIMVEC    
  2.285579036799823    -3.9587390164516294    0.0    
  2.285579036799823    3.9587390164516294    0.0    
  0.0    0.0    7.555473145008832    
  PRIMCOORD    
  4    1    
  Si    2.2855790367998234    1.3195796721505428    0.47606658513043243    
  Si    2.2855790367998234    -1.3195796721505437    4.253803157634849    
  Si    2.2855790367998234    1.3195796721505433    3.3016699873739834    
  Si    2.2855790367998234    -1.3195796721505433    7.079406559878399    
  BEGIN_BLOCK_DATAGRID_3D    
  3d_datagrid_density    
  BEGIN_DATAGRID_3D#0    
  21    21    33    
  0.0    0.0    0.0    
  2.285579036799823    -3.9587390164516294    0.0    
  2.285579036799823    3.9587390164516294    0.0    
  0.0    0.0    7.555473145008832    
  0.02923469902606029    0.03022446186052092    0.03356417889644902    0.04026144251113635    0.052086061560116644    
  0.07160599412955759    0.10102828756154107    0.14007908670329802    0.1830802559030917    0.21798328229587868    
  0.23155926563008186    0.21798331417629066    0.18308025531341987    0.1400790809258722    0.10102828630736727    
  0.07160599530997722    0.05208604784626124    0.0402614533989546    0.033564180679722604    0.03022445681646182    
  0.02923469902606029    0.03022445890361078    0.030223809193550347    0.0323954620952066    0.037479381701433494    
  0.04701225512951576    0.06347130247160776    0.08969432367127604    0.12716111497074506    0.1730245685026707    
  0.21731650526156132    0.24521946694367008    0.24521923517565572    0.21733189568226202    0.17301510650298993    
  0.12715381368003634    0.0897021753020759    0.06347085812364103    0.04701182335486268    0.03747929571270058    
  0.03239540663701238    0.03022445890361078    0.033564173819112725    0.032395452747470944    0.03356468343716638    
  0.03747941453640105    0.04557896321077886    0.06051945578993553    0.08592835533933067    0.12509164138708692    
  0.17758935709594859    0.23480401252820976    0.2800787268607672    0.29729574227808314    0.28006182316679057    
  0.23480122462070174    0.17760898177425996    0.12508865997343674    0.08592150423297747    0.06052041011810122    
  0.045579938374911214    0.037479290609993124    0.033564173819112725    0.04026145241981566    0.037479382493143344    
  0.03747942107653775    0.04026087411335714    0.04701268838196747    0.060522134578260035    0.08514111949230128    
  0.12620589432531412    0.18626667808743827    0.2571869037014258    0.31784096889063645    0.34965212812072044    
  0.349674438233857    0.3178396733020057    0.2571734849234458    0.1862649126066404    0.12620790000549245    
  0.0851481836329847    0.060520411635035014    0.04701181487554071    0.04026145241981566    0.052086057834889274    
  0.04701223871300687    0.045578971101654916    0.047012684212823806    0.05208466743960714    0.06347029083933904    
  0.08592649921765481    0.12620949617370433    0.19015023392489627    0.2710927530172076    0.33887060946933634    
  0.3662054650065527    0.36858160240605753    0.3662161423464476    0.33889567660761294    0.2710858035838504    
  0.19015559547988858    0.12620790054960315    0.08592151640449847    0.06347086223020108    0.052086057834889274    
  0.07160600821670185    0.06347130231421588    0.060519470123550065    0.060522144383930755    0.06347029663357999    
  0.07160916855229985    0.08969208103307318    0.12509261686531778    0.1862669059502057    0.2710849338653948    
  0.34335412392849823    0.3537791049215429    0.3263122224462719    0.3263050868529583    0.3537420795949223    
  0.34337126938058016    0.27108580656896764    0.18626494321355794    0.12508867207566204    0.0897021691485346    
  0.07160600821670185    0.10102826766534706    0.08969433206842789    0.08592835155015073    0.08514110860115551    
  0.08592651087283831    0.08969208835921386    0.10103937600824321    0.12714936667135032    0.17760304472320068    
  0.25717070572998824    0.3388944668654904    0.35376861998438097    0.2977164737278792    0.2633615141389857    
  0.2977462821557363    0.35374204696085193    0.3388956306219455    0.25717347844902494    0.17760897821318156    
  0.12715379391898743    0.10102826766534706    0.14007907043994414    0.12716109766506453    0.12509164293496522    
  0.12620589675287444    0.12620948264648546    0.1250926251927908    0.1271493697888416    0.14008122570433718    
  0.17302152888662034    0.2348052857777408    0.3178357557135459    0.3662121045339959    0.32630828540154605    
  0.2633736696637199    0.2633615185925952    0.32630509589820944    0.36621610845913294    0.3178396785704507    
  0.23480121402158305    0.17301512048651488    0.14007907043994414    0.1830802548457581    0.17302455822455573    
  0.17758936053898475    0.18626666882807585    0.19015026014038777    0.1862668859857317    0.1776030280046594    
  0.1730215420773555    0.1830724322436298    0.21733205282292467    0.28006423356973886    0.3496797345944563    
  0.3685812154574717    0.32630834476827425    0.2977164412558585    0.32631219030856473    0.36858158564866295    
  0.3496744639681987    0.28006184837427506    0.21733187990394867    0.1830802548457581    0.21798327968722958    
  0.21731648116398786    0.23480399872688906    0.2571869080056614    0.2710927472676396    0.2710849236011763    
  0.2571706346702035    0.2348053015771312    0.21733203795876035    0.2179714995319061    0.24522607378614789    
  0.2972783218620436    0.3496797282376326    0.3662121337487102    0.3537686797931708    0.3537790483900411    
  0.3662054434247526    0.3496521311904542    0.29729575527382196    0.24521921171635644    0.21798327968722958    
  0.2315592893267394    0.245219441467438    0.28007875530569665    0.3178409717393851    0.3388706699491688    
  0.34335408937745165    0.33889444907709876    0.31783574972706724    0.2800642477894866    0.2452260891067779    
  0.23156089659371293    0.2452260880182773    0.28006425197345    0.31783578837380905    0.3388944349113393    
  0.34335411948618283    0.3388706273542706    0.3178410087367058    0.2800787525568517    0.24521943555005518    
  0.2315592893267394    0.2179833016741466    0.24521919407798654    0.29729572992170206    0.349652109544342    
  0.3662054704977669    0.3537791051401765    0.3537686690288495    0.36621215321859446    0.34967974840185456    
  0.2972783189274562    0.2452260831439865    0.21797147274771342    0.21733206115151932    0.2348053067034948    
  0.25717067264281623    0.2710848888317575    0.27109274666598276    0.25718691902136936    0.23480402872539738    
  0.2173164859635794    0.2179833016741466    0.183080259598525    0.2173318838760844    0.2800618530902943    
  0.349674438703633    0.36858162579570236    0.326312206556978    0.2977164496273224    0.32630834073745496    
  0.3685812492050646    0.3496797533904808    0.2800642114110366    0.21733208745289062    0.18307239072553866    
  0.1730214930786895    0.1776030233242505    0.18626688228253233    0.19015024940851116    0.1862666848113403    
  0.1775893518436186    0.17302457134020938    0.183080259598525    0.1400790801692462    0.17301510360199276    
  0.23480122167068693    0.3178396928467327    0.3662161296552249    0.3263050600800872    0.26336148933615317    
  0.2633736700628891    0.3263083422089271    0.366212120647449    0.3178357807302973    0.23480530613861728    
  0.1730214922910151    0.14008121535064322    0.12714937982461846    0.12509260690813948    0.1262094705300303    
  0.12620589251944772    0.12509165591662638    0.12716110695748264    0.1400790801692462    0.10102828258235451    
  0.12715379578449457    0.1776089770827334    0.25717350056187177    0.3388956218671438    0.35374205195642267    
  0.29774623334935796    0.2633615157822249    0.29771643435637196    0.35376867252710115    0.3388944089285669    
  0.257170664782022    0.1776030415231219    0.12714937831349554    0.10103939854294461    0.08969206346521459    
  0.08592650112945817    0.08514111751897756    0.08592835875966072    0.089694326965898    0.10102828258235451    
  0.07160599869056485    0.08970217953149952    0.12508867412509372    0.18626494382692466    0.27108581875510246    
  0.3433712523950664    0.35374206934331914    0.3263050787741432    0.32631221214067535    0.3537791093919104    
  0.3433540993648783    0.27108493367844105    0.18626689590260023    0.1250926127826871    0.08969207779350899    
  0.07160917845660149    0.0634702933059406    0.06052215116348422    0.06051945942477158    0.06347130544981337    
  0.07160599869056485    0.05208605194534592    0.06347086648490038    0.08592151410566037    0.12620790171299684    
  0.19015560126232092    0.27108582067094444    0.33889559870631014    0.36621615041801026    0.3685815954828467    
  0.3662054629512839    0.33887062116588595    0.2710927766870202    0.19015024160978228    0.12620949012354357    
  0.08592651345349842    0.06347028505597016    0.05208466274379948    0.04701268011102811    0.045578966282010816    
  0.047012240713125084    0.05208605194534592    0.04026144992459647    0.04701181693885495    0.06052040844798567    
  0.0851481917643079    0.1262079031219201    0.18626490866569245    0.2571735009948291    0.317839677286435    
  0.34967444817293986    0.34965214582722715    0.3178409635944807    0.2571869164811999    0.1862666651763791    
  0.1262058793714001    0.08514111557023814    0.06052215011696155    0.04701267345535701    0.04026087098696212    
  0.037479424615009665    0.03747939116485036    0.04026144992459647    0.03356417415692475    0.03747928903351167    
  0.04557994118702443    0.06052041361529292    0.08592150678612413    0.12508866055635062    0.1776089704578674    
  0.2348012255570266    0.2800618417042069    0.2972957249765041    0.28007873545290396    0.2348040055214381    
  0.17758935287208502    0.1250916409392744    0.08592835934683746    0.06051945933036638    0.04557896392181384    
  0.037479416887955766    0.03356469153568221    0.032395454542215964    0.03356417415692475    0.030224461633193783    
  0.03239540437195612    0.03747929422455996    0.04701181622318726    0.06347086660220262    0.08970217301795724    
  0.12715380411629637    0.1730151343716936    0.2173318791114832    0.24521921228267013    0.24521942075636818    
  0.2173164986168166    0.17302457517555095    0.12716111930143967    0.08969433130496937    0.06347130309636755    
  0.04701223394842133    0.03747938737211972    0.03239545772852599    0.03022380912536353    0.030224461633193783    
  0.02923469902606029    0.03022446186052092    0.03356417889644902    0.04026144251113635    0.052086061560116644    
  0.07160599412955759    0.10102828756154107    0.14007908670329802    0.1830802559030917    0.21798328229587868    
  0.23155926563008186    0.21798331417629066    0.18308025531341987    0.1400790809258722    0.10102828630736727    
  0.07160599530997722    0.05208604784626124    0.0402614533989546    0.033564180679722604    0.03022445681646182    
  0.02923469902606029    0.02879235373738771    0.029763920616769364    0.03302584904739899    0.0395382434127437    
  0.05098919385007865    0.0698114904086002    0.09805389369505424    0.13529853591604155    0.17607441938000817    
  0.20904604620844605    0.2218356721971193    0.2090425662253652    0.17609342729412583    0.13529806042691486    
  0.09803802747960853    0.06981474722640606    0.05099232587197372    0.039537581499115355    0.03302594439678568    
  0.029763808706521136    0.02879235373738771    0.029763809413856344    0.029763286549995036    0.03170759925930545    
  0.03625486221044837    0.044683540079701406    0.05902609537173061    0.08158530019710715    0.11346567049503913    
  0.15208128585749417    0.18912099485943243    0.21245649709054562    0.21245982358005316    0.1891260954442214    
  0.15206432053623833    0.11346501775041741    0.08160005405743444    0.05902266237328308    0.044681416861561345    
  0.03625512751784738    0.03170765989111949    0.029763809413856344    0.03302594124131093    0.032067598036903434    
  0.03302635381315676    0.03625563962941156    0.042883991902027865    0.05491503968469886    0.07502600570928253    
  0.1054268533569439    0.14568579991018565    0.18971588167134681    0.22523256614143958    0.23903181907921245    
  0.22522848181850813    0.18971220824215615    0.14570369389756085    0.10542649080075843    0.07501267118336344    
  0.05491743774737833    0.04288670581776067    0.036255120536352166    0.03302594124131093    0.039537579275572506    
  0.03742934010477301    0.0374290248241237    0.039537156249163555    0.044683827751637976    0.05492058222214868    
  0.07332545237733644    0.10345346607853843    0.1470189805686307    0.19980412248995189    0.24911105212494888    
  0.2786767051747581    0.27867913144752476    0.24911174008371204    0.1998047610393252    0.1470051467171611    
  0.1034527413045146    0.07334026898400145    0.054917431661183166    0.04468141490322329    0.039537579275572506    
  0.0509923311365764    0.047513257253884354    0.0465632943102892    0.04751370247944788    0.05098897046885664    
  0.059020445646531076    0.07502615618336445    0.10345345804619542    0.14833924223866707    0.20812973973316778    
  0.26956839256466614    0.3124637438032134    0.32671702345175213    0.3124679017703868    0.2695738640803141    
  0.20812509716967542    0.14835588088363888    0.10345275608887057    0.07501268787272157    0.05902266879853743    
  0.0509923311365764    0.0698147488187008    0.06500953017925122    0.06352679028683626    0.06352780473667317    
  0.06501317248847761    0.0698175842446335    0.08158408890356014    0.10542793244423755    0.14701920090138407    
  0.20812305082105526    0.27693377146240883    0.3277686042790854    0.34788791516652967    0.3478894982774325    
  0.32775914707586795    0.2769377656960062    0.20812509590843184    0.14700517482226685    0.10542648944716045    
  0.08160005457192929    0.0698147488187008    0.09803801639908055    0.09298253481552253    0.09261959899651209    
  0.09293577089764525    0.09261366655879955    0.09297812243254826    0.09805785061962603    0.11346133529327429    
  0.14568793997647755    0.19980793983548464    0.2695706502919021    0.3277696469701535    0.350545434345537    
  0.35222907466345943    0.3505483797007917    0.32775914443947013    0.26957382483663633    0.19980477312787276    
  0.14570370361767102    0.11346500922456558    0.09803801639908055    0.13529807050168335    0.13298584359574142    
  0.13783692060385427    0.14244521642091543    0.14245364523080203    0.13784204479385787    0.13296281238356236    
  0.13529998763065784    0.15208143167950258    0.18970969531653503    0.2491092779045225    0.3124693825569105    
  0.34788678021598024    0.3522270192310023    0.3522290811353241    0.3478894812385737    0.3124678731167095    
  0.24911178413696483    0.18971224227612968    0.15206431826889602    0.13529807050168335    0.17609342725140206    
  0.18183992713096195    0.19831942392423738    0.21445759902102374    0.22081320067272825    0.21445270966385702    
  0.1983477344589525    0.18183759332499283    0.17607335359169715    0.1891309581112448    0.22523035110772374    
  0.2786812898951157    0.32671898434405344    0.34788681320156395    0.3505454643238942    0.3478879120910005    
  0.326717044826586    0.2786791479362852    0.22522852223041387    0.1891260889543568    0.17609342725140206    
  0.20904256126921872    0.2287465970495782    0.26277808656432483    0.2947538649060538    0.31121464873033006    
  0.31120965328024286    0.2947139556563122    0.2627829518888688    0.2287723907099797    0.20903241320891083    
  0.21245895105366525    0.23902797765897818    0.27868128720993784    0.3124694159403779    0.32776964087142046    
  0.32776860665883867    0.31246372494378183    0.27867672373850316    0.2390318251375361    0.21245981381308565    
  0.20904256126921872    0.2218356853334333    0.2580131664422044    0.31165750435974093    0.3530194765580289    
  0.36051549993127746    0.35572520645710665    0.36056076578512586    0.35301721723631496    0.3116218389903693    
  0.2580256886838803    0.22183809395032006    0.21245895374084312    0.22523033475373586    0.24910929641812207    
  0.26957063608848003    0.2769337805600652    0.269568391300006    0.2491111330233124    0.22523257188378823    
  0.21245645938081545    0.2218356853334333    0.20904607134994424    0.25801381046024047    0.3294886194154333    
  0.3754744154478621    0.34618148568394375    0.2919475906334881    0.29192632890419046    0.34618501579570177    
  0.3755334732971421    0.3294559990165693    0.25802569937586733    0.2090324135868896    0.18913096350182235    
  0.18970970193195985    0.19980793142829018    0.20812304362417208    0.2081297453585458    0.19980413245273146    
  0.18971588399990197    0.18912095542889018    0.20904607134994424    0.17607440937043684    0.22877262002871815    
  0.31162061216587994    0.3755209156375143    0.3274771616070661    0.21395201586425272    0.16503133316934707    
  0.21395318447635492    0.32746442591664054    0.37553353057309613    0.31162183482647676    0.22877243224443508    
  0.176073338846886    0.1520814362209217    0.14568793239748948    0.1470192089255324    0.148339242842355    
  0.14701901086643834    0.14568579940860577    0.15208130000900635    0.17607440937043684    0.13529854034363267    
  0.18184043827988866    0.26277248012254184    0.3530251026251451    0.3461957062091901    0.21393704597225702    
  0.11663423606288341    0.11664546441748452    0.2139531850840965    0.34618504306147035    0.3530172460341798    
  0.2627829945692972    0.18183755814268623    0.13529999246620772    0.11346136249457729    0.10542794814858374    
  0.1034534446300311    0.10345346570006816    0.1054268579973437    0.11346565480731952    0.13529854034363267    
  0.09805388109208352    0.13296565127175244    0.1983467762828123    0.2947224737102348    0.36055448051899347    
  0.2918965205918233    0.16506925476663106    0.11663424320254563    0.16503131163310134    0.2919263825795429    
  0.3605607184545924    0.29471391772760847    0.19834771895996603    0.13296281795332326    0.09805787197468151    
  0.08158406952877123    0.07502615570560577    0.0733254449371411    0.07502600172096058    0.08158530730470866    
  0.09805388109208352    0.06981150644612942    0.09298663270657508    0.1378338319282583    0.21446174657985873    
  0.31121505430466867    0.35574986790632757    0.29189655613365245    0.21393705749704675    0.21395201005243616    
  0.2919476515862852    0.3557252591047516    0.31120971876192144    0.21445273699939207    0.13784203008693344    
  0.09297810724749915    0.06981759484618688    0.0590204402124611    0.054920591947231874    0.054915042180096164    
  0.059026093935642725    0.06981150644612942    0.050989189742814335    0.06501316361269327    0.09261384096510152    
  0.14245426553630386    0.2208018522365516    0.31121506998036097    0.36055443924324404    0.34619573199266296    
  0.327477186449155    0.3461814891019206    0.3605154631411378    0.311214670911625    0.22081318164420324    
  0.14245363909598543    0.09261366724166606    0.06501317216058959    0.05098897108322144    0.044683827142304636    
  0.04288400268483149    0.04468353463989974    0.050989189742814335    0.03953823930133772    0.04751287786525936    
  0.0635280774118987    0.0929350013773607    0.14245425945167878    0.2144617400702474    0.29472247476752006    
  0.3530250819096153    0.37552093378396184    0.375474452518765    0.35301946960325364    0.2947538588276006    
  0.21445760937910727    0.14244520629983776    0.09293578021553711    0.06352781208509303    0.047513697233112356    
  0.03953715028437891    0.03625564254532809    0.03625486311651927    0.03953823930133772    0.03302583904045403    
  0.03742932313702495    0.046562971369667576    0.06352808601219626    0.09261383894207703    0.13783382268202649    
  0.19834677308581736    0.26277249328659347    0.31162058015867544    0.329488605664082    0.31165747081841155    
  0.26277811902187864    0.19831941611908377    0.1378368918342616    0.09261960545436004    0.06352678239618466    
  0.04656328009610202    0.03742901957159129    0.03302635980293862    0.03170759757269871    0.03302583904045403    
  0.02976392010594249    0.03206735676728566    0.03742932959509646    0.047512875055519266    0.06501317123856978    
  0.09298663125958694    0.1329656524749449    0.18184045866834084    0.22877261701985177    0.25801380190468737    
  0.258013166003753    0.22874664562554334    0.1818399251032262    0.13298585766998727    0.09298254321858487    
  0.06500951784761773    0.04751326485756404    0.03742934897379742    0.032067604016420656    0.029763284172667027    
  0.02976392010594249    0.02879235373738771    0.029763920616769364    0.03302584904739899    0.0395382434127437    
  0.05098919385007865    0.0698114904086002    0.09805389369505424    0.13529853591604155    0.17607441938000817    
  0.20904604620844605    0.2218356721971193    0.2090425662253652    0.17609342729412583    0.13529806042691486    
  0.09803802747960853    0.06981474722640606    0.05099232587197372    0.039537581499115355    0.03302594439678568    
  0.029763808706521136    0.02879235373738771    0.027559983831717403    0.028473202794758314    0.03150930797722715    
  0.03751487867224825    0.047952866874299956    0.06485705940001754    0.08979777953481474    0.12213670940713173    
  0.15701023117868348    0.1849256277030299    0.19570264991228847    0.18491998292593909    0.15703241617808944    
  0.12213847841380605    0.08977978824927932    0.06485899550227212    0.04795797542855108    0.037513633617002023    
  0.031509625389439466    0.02847298512564311    0.027559983831717403    0.028472988131714828    0.02847227825573599    
  0.03014587135961401    0.03402670181528716    0.0411031178907516    0.05285718993390745    0.07090129676555829    
  0.09582646168960963    0.12538482457119626    0.1532801610657521    0.1707344634316607    0.17073820959861333    
  0.1532845398081764    0.12536571988218337    0.09582611940226474    0.07091654348794668    0.05285503459026589    
  0.04109880211925797    0.03402779749738025    0.03014552642881567    0.028472988131714828    0.03150962183437576    
  0.03076516283003262    0.03150980172336108    0.03402871488619954    0.0391268506837044    0.048159628047472786    
  0.06285999710625215    0.08446392526760128    0.11235347723859053    0.1423361407539384    0.16636028769293854    
  0.17570725725870107    0.1663579044288199    0.1423322894838251    0.11237096067987094    0.08446429982754404    
  0.06284588847108871    0.0481616662043189    0.03913106316879759    0.03402779401159267    0.03150962183437576    
  0.037513632289488175    0.03606074988775628    0.036060727039044504    0.03751271311557356    0.041103136479512206    
  0.04816395011182695    0.06064098100874787    0.08059200127033121    0.10870648402494967    0.14239216179509886    
  0.17433379260800608    0.19411277255958764    0.194111994278432    0.1743355817796115    0.142396001218556    
  0.10868962580586562    0.08059180423951287    0.06065540818846495    0.04816166428505131    0.04109880211521345    
  0.037513632289488175    0.04795799010188408    0.04597079016360923    0.04547863225682216    0.04597148551875461    
  0.04795290763796161    0.05285268185102116    0.06286017558987403    0.08059257208563751    0.10815383762735878    
  0.14492858920911678    0.1847929594708866    0.21612446674680774    0.22790990752199242    0.21612528616340224    
  0.1847926400626318    0.14492434203059723    0.10817209301186319    0.08059181214102408    0.06284589512163731    
  0.05285504336029765    0.04795799010188408    0.06485899949103711    0.06306236825682449    0.06291895718968155    
  0.0629188398278373    0.06306881411055447    0.06486183704574054    0.07090056117912953    0.08446408773261256    
  0.10870668985011778    0.1449213719156066    0.18922864657578747    0.23027516537612314    0.2544291596317232    
  0.25443068265070384    0.2302738593627977    0.18923082236937366    0.14492432505904623    0.10868964614727232    
  0.08446428630159335    0.0709165418429142    0.06485899949103711    0.08977977605765745    0.09018530520844234    
  0.09274405727808305    0.09402086030163674    0.09273512028918873    0.09018012490396998    0.08979959412152341    
  0.09582522438402696    0.11235231316047002    0.1424000519833521    0.18479285736759032    0.23027735026712495    
  0.2640757594042048    0.27612599737897964    0.2640747608279973    0.23027387376316738    0.18479260478982948    
  0.14239600320455567    0.1123709628893235    0.09582610581382554    0.08977977605765745    0.12213848597577853    
  0.12864012579166928    0.13896939814254008    0.14631455260663095    0.14632668865868928    0.138977255103092    
  0.12861644613403875    0.12213696452637139    0.12538679461388655    0.14232816174030694    0.17433298585877197    
  0.21612540169953467    0.25442930092250055    0.27612420201531085    0.2761260221126855    0.2544307083062985    
  0.21612527393312495    0.17433559776993393    0.14233230140313216    0.12536571702236526    0.12213848597577853    
  0.15703240256382023    0.17506650006319663    0.20031162396422864    0.22168053691761522    0.22979803543145252    
  0.22167033530474664    0.20034115750184442    0.1750690871425813    0.15700785323783564    0.15328966858797738    
  0.1663598699113973    0.19411314272788713    0.22791101009460762    0.2544293322162193    0.2640757736801101    
  0.25442916392663134    0.22790989784864937    0.1941120114275848    0.16635791020917023    0.1532845113255427    
  0.15703240256382023    0.1849199669033095    0.21901943506042598    0.2643544049397959    0.30258190854117806    
  0.3208636517946249    0.32085970104589445    0.30254258698947284    0.2643526807574608    0.2190494985649945    
  0.18491231318335644    0.1707345933817824    0.17570745089059472    0.19411309911315308    0.2161254277428401    
  0.2302773723787893    0.23027514612185057    0.2161244613907076    0.19411276678150127    0.17570721313354906    
  0.17073819811201685    0.1849199669033095    0.19570266469762174    0.24608156200036904    0.31124655924418926    
  0.3549691784850333    0.35564980352546743    0.3465123501264394    0.3556916342667625    0.3549755319425868    
  0.3112041843166435    0.24609307048066087    0.1957067894110553    0.17073457870106123    0.16635986203153935    
  0.17433300695972315    0.1847928694931124    0.1892286475065511    0.18479298511385514    0.1743338278755735    
  0.16636031383391553    0.17073443635246002    0.19570266469762174    0.18492560251930365    0.24608148804829313    
  0.32778775482340944    0.3698418101408026    0.3193629876561081    0.250284304401922    0.25026910774934685    
  0.3193626386551818    0.3699085848801719    0.32775315445593134    0.24609305095710896    0.1849123123689507    
  0.15328968606461896    0.1423281605468487    0.14240004851931998    0.14492133594722184    0.1449286171800076    
  0.14239214951296042    0.14233615058496185    0.15328012385250325    0.18492560251930365    0.15701023568638936    
  0.2190459031636672    0.31120603365134775    0.36989050290488784    0.2916134736331801    0.16013929273411995    
  0.11144900330907566    0.16014464419597704    0.29159542167405655    0.36990859467539083    0.3112041517216858    
  0.21904951835610478    0.15700782784425238    0.1253867749703795    0.11235231073619929    0.10870668019089953    
  0.10815386365176351    0.10870648950360903    0.11235348537656387    0.12538482395507317    0.15701023568638936    
  0.12213671211361413    0.17507180457814395    0.2643444791405287    0.3549822692320253    0.3193797781757711    
  0.16011977192862784    0.06786164511657414    0.06786046104881892    0.1601446432066919    0.31936262909806595    
  0.3549755643180587    0.26435270492453106    0.17506906033453992    0.12213696440026826    0.09582522790991965    
  0.08446409153214297    0.08059256493702995    0.08059198861214856    0.08446392841529882    0.09582643747960372    
  0.12213671211361413    0.08979776868324349    0.12861884393087344    0.20033885773193222    0.3025524405593439    
  0.3556778596408433    0.2502491074177444    0.11147429031729278    0.06786165889075528    0.11144898939295732    
  0.25026911826962633    0.355691618891598    0.3025426050043575    0.20034117318049208    0.1286164486682655    
  0.08979961859952489    0.07090054565828306    0.06286017589533316    0.06064096830086981    0.06285999514475828    
  0.0709012975516587    0.08979776868324349    0.06485706552571925    0.09018614064795805    0.13897075876906623    
  0.22167613361995486    0.3208791219979333    0.34652312917270606    0.2502491217414265    0.16011977536962982    
  0.1601393217644919    0.2502843345576027    0.3465123789178734    0.3208597331934196    0.2216703600151765    
  0.13897724440426784    0.09018011102574866    0.06486184193629885    0.05285267355789242    0.048163959051836756    
  0.04815962811893289    0.052857193220865045    0.06485706552571925    0.04795286007148682    0.06306913940902877    
  0.09273485686808453    0.1463311957228079    0.2297760247717402    0.32087910247315576    0.35567784819137116    
  0.31937980414927997    0.2916134588036213    0.3193629953562486    0.3556497815837481    0.3208636397223947    
  0.22979803813480582    0.14632670250516067    0.0927351217695809    0.06306881316767136    0.04795290675375964    
  0.04110313496729192    0.03912685538272644    0.04110311259506488    0.04795286007148682    0.037514881689464964    
  0.045969063074385995    0.06292161244290616    0.09401563225069161    0.1463311986076077    0.22167610861180953    
  0.3025524521513409    0.35498227463869203    0.36989048426354687    0.3698418477901733    0.35496917640792613    