#     DFTpy    
  CRYSTAL 
    
  PRIMVEC    
  3.4948965517241377    0.0    0.0    
  0.0    3.4948965517241377    0.0    
  0.0    0.0    3.4948965517241377    
  PRIMCOORD    
  2    1    
  Si    0.0    0.0    0.0    
  Si    1.7474482758620689    1.7474482758620689    1.7474482758620689    
  BEGIN_BLOCK_DATAGRID_3D    
  3d_datagrid_density    
  BEGIN_DATAGRID_3D#0    
  15    15    15    
  0.0    0.0    0.0    
  3.4948965517241377    0.0    0.0    
  0.0    3.4948965517241377    0.0    
  0.0    0.0    3.4948965517241377    
  0.06494632855558018    0.12177990259361292    0.3007988612881971    0.387215520535544    0.2817582585059981    
  0.16886826026768711    0.11014907437880732    0.09331798605847806    0.11014908609115184    0.168868265026111    
  0.2817581761571142    0.3872154724582572    0.30079893143832453    0.12177995331235861    0.06494632855558018    
  0.12177988257583443    0.18597632398250435    0.3429933192324489    0.3808874236149625    0.2677665691010917    
  0.16239405222436307    0.10800163200837161    0.09226171679158739    0.1080016567626796    0.16239402959921173    
  0.2677665930895818    0.3808874654224884    0.34299337616392084    0.18597628825557008    0.12177988257583443    
  0.3007988678421403    0.34299340193682226    0.39502525427238333    0.34131125226980136    0.22982248007049744    
  0.14589802247881287    0.1027203736155013    0.08987877406403548    0.10272037527158753    0.145898059586625    
  0.22982242553589835    0.3413112793369441    0.39502517633875817    0.3429933989228713    0.3007988678421403    
  0.3872154691376964    0.38088743066593334    0.34131116792637495    0.2621975419723872    0.18136101449011102    
  0.1260195755354924    0.0969142492045187    0.0879813586782819    0.0969143019095871    0.12601955780514276    
  0.18136093638245826    0.2621975269145327    0.34131133321422047    0.380887366688024    0.3872154691376964    
  0.2817582189717913    0.2677665223981201    0.2298224233214848    0.18136099871942007    0.13834664040092146    
  0.10888727514143295    0.09292277529264995    0.08798130667197916    0.09292280469427591    0.10888730686104446    
  0.13834662917517013    0.181360934237248    0.22982243322538273    0.26776655412031275    0.2817582189717913    
  0.16886829035733594    0.1623940095729852    0.14589801044861597    0.12601961475260173    0.10888733698915659    
  0.09740630845405722    0.09153639056794018    0.08987876655817396    0.0915364181123414    0.09740630713684849    
  0.10888731411727455    0.1260195813326062    0.14589807904648172    0.16239396612770396    0.16886829035733594    
  0.11014902954097912    0.10800165165460668    0.10272029484038755    0.09691431727511973    0.09292277801288953    
  0.09153643808698131    0.09187221181745481    0.09226171319039972    0.09187228884736545    0.09153641828995496    
  0.09292279049165277    0.0969142703197583    0.10272031893752781    0.10800169669810397    0.11014902954097912    
  0.09331802211616624    0.0922617064984839    0.08987878011293042    0.08798129470787043    0.08798132081570728    
  0.08987875569519767    0.09226171784208584    0.09331798725757891    0.09226169276569554    0.089878752614838    
  0.08798126332378596    0.08798129825899556    0.08987879626624574    0.09226174086097896    0.09331802211616624    
  0.11014907302127452    0.10800163876512049    0.10272035352587171    0.09691431495485031    0.0929227769639426    
  0.09153645123845101    0.09187217883210431    0.09226169504493441    0.09187221641213578    0.09153641893312682    
  0.09292281051658577    0.0969142709513938    0.10272035754245434    0.10800170769863261    0.11014907302127452    
  0.168868251198724    0.16239403762585353    0.14589801816966694    0.12601962712624099    0.10888738193658677    
  0.09740634143864269    0.09153639480432424    0.08987877071447611    0.09153648756199685    0.09740628346459676    
  0.10888731359411878    0.1260196233767972    0.14589802669000815    0.16239395602937542    0.168868251198724    
  0.2817582917190054    0.26776658890346533    0.22982238379073294    0.18136095507152333    0.13834665420411044    
  0.10888729572045215    0.09292279087011751    0.0879813128788891    0.09292280163445388    0.10888730147990926    
  0.13834660531221227    0.18136092984870916    0.2298224745448524    0.2677665338510299    0.2817582917190054    
  0.3872154361251162    0.38088736006550566    0.34131115821857205    0.26219759998640274    0.18136100843046307    
  0.12601955261083508    0.0969143019391093    0.08798129915400014    0.09691434186738591    0.12601960463461118    
  0.18136098850708895    0.2621976009324231    0.3413113095030417    0.3808874205106544    0.3872154361251162    
  0.30079889904183044    0.34299348292101833    0.39502520307188815    0.34131128350050005    0.22982243984832615    
  0.14589807302393906    0.10272035298569941    0.08987875851558184    0.10272036490496349    0.14589805843797246    
  0.22982239013242903    0.34131115059909667    0.39502517856885716    0.3429933862841045    0.30079889904183044    
  0.12177995971362376    0.18597616484094434    0.34299328783319133    0.3808874875548147    0.2677665280129057    
  0.16239402880653075    0.10800162094095019    0.09226172052060577    0.10800169722009831    0.1623940107537424    
  0.267766585034149    0.3808873865337017    0.34299334372882667    0.1859762239216741    0.12177995971362376    
  0.06494632855558018    0.12177990259361292    0.3007988612881971    0.387215520535544    0.2817582585059981    
  0.16886826026768711    0.11014907437880732    0.09331798605847806    0.11014908609115184    0.168868265026111    
  0.2817581761571142    0.3872154724582572    0.30079893143832453    0.12177995331235861    0.06494632855558018    
  0.12177992450405363    0.18597622855234272    0.34299337239243666    0.3808875342139087    0.2677665681835539    
  0.16239399459506737    0.10800164357836589    0.0922616932554486    0.10800165744392412    0.1623939921388072    
  0.2677665013090838    0.3808873099383914    0.3429933997106496    0.18597626271781142    0.12177992450405363    
  0.18597623845090877    0.2486576787827909    0.37279058367547174    0.37111048391764895    0.25521499638078143    
  0.15707921373400344    0.10660699014072882    0.09187221665914946    0.10660703634606214    0.15707913447841168    
  0.25521502950503694    0.37111046056239705    0.37279069204792614    0.24865770917203187    0.18597623845090877    
  0.3429933949444951    0.37279067268528304    0.3955885742561025    0.3279699792131878    0.22146504355237562    
  0.1437482232419722    0.10356678714855395    0.09153643758070318    0.1035668222353394    0.14374828355399924    
  0.22146502179979943    0.32796992649764944    0.3955885586076519    0.37279059451928076    0.3429933949444951    
  0.3808873668456655    0.37111045095404227    0.32796979737390547    0.25261097158451445    0.17865995456563086    
  0.12804487702071765    0.10118653590990287    0.09292279782621876    0.10118653820275529    0.12804484911792582    
  0.178659973089925    0.25261101992703733    0.32796992207367043    0.3711104803431631    0.3808873668456655    
  0.26776651933296686    0.25521504138947754    0.22146494323892377    0.17865996609487828    0.14093464999077257    
  0.11513457504530202    0.10118655757003117    0.09691433449480012    0.1011865579611143    0.1151345941252354    
  0.14093465121570853    0.1786599417965039    0.22146503798481573    0.2552150498408907    0.26776651933296686    
  0.16239403861153895    0.15707921349094792    0.1437482627280056    0.1280449004411934    0.11513461428422984    
  0.10715700204847613    0.1035668069598744    0.10272030693702454    0.10356682151494231    0.10715701366099521    
  0.11513458509212206    0.12804485722450332    0.14374821640427635    0.15707915857479768    0.16239403861153895    
  0.10800163709163359    0.10660699428778006    0.10356671880444054    0.10118659942755362    0.10118652888726745    
  0.10356684015202464    0.10660700561241802    0.10800165431304781    0.10660704115526247    0.10356681965202862    
  0.10118651354748837    0.10118653369568453    0.10356673773114367    0.1066070710337605    0.10800163709163359    
  0.09226171849964598    0.09187222038944248    0.09153643445193696    0.09292278967156188    0.09691431769384602    
  0.10272033855041011    0.10800167067668341    0.11014902794498414    0.10800162680334308    0.10272030976963809    
  0.09691429405794176    0.09292277742048115    0.09153645066959215    0.09187224269854499    0.09226171849964598    
  0.1080016527239543    0.1066070288689936    0.10356673037120073    0.10118655402668791    0.1011865526322195    
  0.10356682041368148    0.10660695450548466    0.1080016733118154    0.10660697544370387    0.10356678837051805    
  0.10118659133093345    0.10118651082927829    0.10356677676118191    0.1066070650659039    0.1080016527239543    
  0.16239400803228096    0.15707919601597536    0.14374820277129377    0.12804488916216034    0.11513464408013908    
  0.1071569941195825    0.10356680245875938    0.10272031549213557    0.10356685013797437    0.10715700381840533    
  0.11513456968296584    0.12804490680348268    0.1437482479084965    0.15707916071771885    0.16239400803228096    
  0.2677665326197547    0.2552150056422073    0.22146495221152668    0.17865996735142467    0.14093469359227145    
  0.11513455969548976    0.10118651999754652    0.09691434233430334    0.10118655357000324    0.11513458127229037    
  0.1409346324224456    0.17865994287934991    0.22146501283001838    0.2552150345765252    0.2677665326197547    
  0.38088736311659405    0.3711104934291348    0.32796983717049905    0.25261108146408906    0.17865999299489774    
  0.12804488976237902    0.10118652807026664    0.09292276677472111    0.10118658726622744    0.1280448518140784    
  0.17865997198795636    0.25261105733192685    0.32796985307122883    0.37111043194970356    0.38088736311659405    
  0.34299341035177305    0.3727906403126448    0.39558848487707093    0.3279698878389128    0.22146507584862515    
  0.14374825815181802    0.1035667573924574    0.09153643735233648    0.10356678043131369    0.1437482896387048    
  0.22146493437524176    0.3279698771297108    0.3955886014285408    0.37279060366591893    0.34299341035177305    
  0.18597625440787338    0.24865766856583035    0.372790549257247    0.37111049107695143    0.25521500335148384    
  0.15707913511443708    0.10660702356801435    0.0918722285122516    0.10660705529782916    0.15707920432093295    
  0.2552150245293842    0.37111042048302817    0.3727906019471312    0.24865768938077867    0.18597625440787338    
  0.12177992450405363    0.18597622855234272    0.34299337239243666    0.3808875342139087    0.2677665681835539    
  0.16239399459506737    0.10800164357836589    0.0922616932554486    0.10800165744392412    0.1623939921388072    
  0.2677665013090838    0.3808873099383914    0.3429933997106496    0.18597626271781142    0.12177992450405363    
  0.3007989020064322    0.342993318811241    0.39502523620768526    0.34131136122612343    0.2298224574767394    
  0.14589804649063523    0.10272034796904232    0.08987873262732594    0.10272035707478787    0.14589803068745463    
  0.2298224128912887    0.3413112098780818    0.39502528935690784    0.3429933966209672    0.3007989020064322    
  0.3429933182122838    0.37279064424937153    0.3955885325829992    0.32796983814803515    0.22146497742024013    
  0.14374825681297732    0.10356676430927397    0.09153642752265545    0.10356680678296312    0.14374821596487913    
  0.22146504169974193    0.32796994134167967    0.3955886027329129    0.3727906682212318    0.3429933182122838    
  0.39502521648222594    0.395588612315681    0.36571858512604544    0.28631856457160937    0.19967951629044972    
  0.13914203105085265    0.10715704926388922    0.09740627778327077    0.10715708144643972    0.1391420328366919    
  0.19967947586865473    0.2863185832644266    0.3657185758818755    0.3955885618701277    0.39502521648222594    
  0.34131124441310606    0.32796999341525385    0.2863185079169885    0.22719246132146936    0.1729546346997479    
  0.1354765543372074    0.11513453202740956    0.10888736572626508    0.11513457071664929    0.13547650927558277    
  0.17295466346793154    0.22719249122068494    0.2863186293530928    0.3279699532675748    0.34131124441310606    
  0.22982245568156068    0.22146498643960366    0.1996794625280361    0.17295465505746838    0.15028159071379554    
  0.13547647159078344    0.1280448804831165    0.1260195781960166    0.12804494929734236    0.1354765418324339    
  0.15028154832754523    0.17295461759080513    0.19967948148647613    0.2214650233519791    0.22982245568156068    
  0.14589806734396876    0.14374826788973183    0.1391420661788659    0.13547654302555082    0.1354765013448353    
  0.13914207840160528    0.1437482050805092    0.14589807570511432    0.14374821115697506    0.1391420509789574    
  0.1354764936851423    0.13547652616021585    0.13914204749526682    0.1437482739252747    0.14589806734396876    
  0.10272033829778529    0.10356676588607183    0.10715700458112457    0.11513460118030461    0.12804490493021362    
  0.14374823394064504    0.15707917725210307    0.16239399362545004    0.1570791694850802    0.14374823163573322    
  0.1280448709324655    0.11513454749615532    0.10715701638568494    0.10356679157818668    0.10272033829778529    
  0.0898787824023253    0.09153644546838864    0.09740631849812224    0.10888736081297261    0.12601959144313551    
  0.14589807038276606    0.16239396991378202    0.168868265152726    0.16239397737080674    0.14589808385702602    
  0.12601957237413353    0.10888732849301146    0.09740632411624309    0.09153645952661035    0.0898787824023253    
  0.10272034523180554    0.10356678025263276    0.10715699676573841    0.1151345625342751    0.12804492810885784    
  0.14374827375585467    0.15707911759406684    0.16239395636834741    0.1570791782890705    0.14374824749428555    
  0.1280449309055817    0.1151345434879618    0.10715705542957074    0.10356683074807402    0.10272034523180554    
  0.1458980291811151    0.14374825497183605    0.1391419867921645    0.13547655278294587    0.13547653070841797    
  0.1391420622587124    0.14374821215114517    0.14589803353064473    0.14374826273425956    0.1391420376294509    
  0.13547651788796528    0.1354765487745429    0.13914207817915838    0.14374822238323354    0.1458980291811151    
  0.22982245489588152    0.22146501469825605    0.19967942785350834    0.17295462731457406    0.1502815813256362    
  0.13547652551437447    0.12804490262592114    0.12601963364572089    0.1280448885422453    0.13547651429461713    
  0.15028154092666637    0.17295463942714462    0.19967948151699116    0.2214650360546527    0.22982245489588152    
  0.3413112497373465    0.3279699004216598    0.28631854353808234    0.2271925662910403    0.17295464445437583    
  0.1354765291665963    0.11513453543719444    0.10888733746763667    0.11513461221290328    0.13547655312277898    
  0.1729546083934541    0.22719248372951628    0.2863186316560288    0.32796990711278023    0.3413112497373465    
  0.39502527984939156    0.3955886153956751    0.3657185973698988    0.2863186366801703    0.1996794796691646    
  0.13914205747066072    0.10715705163267439    0.09740630482982844    0.10715705302250449    0.13914209271632239    
  0.19967941170050618    0.28631854906850074    0.3657186305421907    0.3955885733597251    0.39502527984939156    
  0.3429933843342671    0.37279057867257165    0.39558850395013356    0.32796991809259624    0.2214649752106989    
  0.1437482403190348    0.10356677914037979    0.09153644158229686    0.10356680840876373    0.14374826832550397    
  0.221465006737542    0.3279698984826763    0.39558858741274144    0.3727906795130396    0.3429933843342671    
  0.3007989020064322    0.342993318811241    0.39502523620768526    0.34131136122612343    0.2298224574767394    
  0.14589804649063523    0.10272034796904232    0.08987873262732594    0.10272035707478787    0.14589803068745463    
  0.2298224128912887    0.3413112098780818    0.39502528935690784    0.3429933966209672    0.3007989020064322    
  0.3872154425442287    0.3808873648368415    0.34131115745280505    0.26219769480333965    0.18136102032450943    
  0.1260196049814884    0.09691427581333908    0.08798128374345432    0.09691428144290602    0.12601960684400915    
  0.18136097763660342    0.2621974923152571    0.34131123863508284    0.380887413384723    0.3872154425442287    
  0.38088731782639396    0.3711104133258204    0.32796982755969145    0.2526110002957072    0.17865993032208305    
  0.12804488937410397    0.10118653016083105    0.09292275089844676    0.10118657009552018    0.1280448467173845    
  0.17865997336274886    0.25261101052118806    0.32796989245630537    0.3711105153146573    0.38088731782639396    
  0.34131130635898427    0.32796987792214416    0.28631852459305235    0.22719255955582757    0.17295467862541591    
  0.13547651787544043    0.11513461032958329    0.10888734455770079    0.11513461115995274    0.13547654549269997    
  0.1729546913211163    0.22719252956222633    0.2863185540597638    0.3279698071547561    0.34131130635898427    
  0.26219756046932585    0.2526110470351917    0.22719247373063797    0.19558321746768806    0.16843200707883976    
  0.15028153912120162    0.14093469509162115    0.13834665628876552    0.14093467511450242    0.15028151510160967    
  0.16843194703557987    0.19558325483935957    0.22719252630315534    0.25261100411674436    0.26219756046932585    
  0.18136101746024186    0.17865997627563282    0.1729545784600925    0.16843207149558806    0.16843195428988    
  0.1729546588709086    0.17865995229784318    0.18136100625830895    0.17865995530696982    0.17295466564524628    
  0.16843201420506962    0.168431931007922    0.17295463783588072    0.17865999758059467    0.18136101746024186    
  0.12601964350208883    0.12804489972950095    0.13547653790410472    0.15028155076836805    0.1729547104449462    
  0.19967943587160775    0.2214649718758522    0.22982240402895887    0.22146507232990895    0.19967947625340704    
  0.17295463424238444    0.15028153388554427    0.1354765616441531    0.12804483226934754    0.12601964350208883    
  0.09691427847279556    0.10118655538829634    0.11513452450627633    0.1409347008594907    0.1786599083550021    
  0.22146503116828972    0.255215016201503    0.2677665348450587    0.2552150115131179    0.22146499929987937    
  0.17865995442014687    0.14093464009155193    0.11513457740869265    0.10118658867151328    0.09691427847279556    
  0.08798129675164247    0.09292279186470433    0.10888731556827265    0.13834664255589754    0.1813610021271452    
  0.22982241473446668    0.2677665929223418    0.2817581665966004    0.2677665854047849    0.2298223845992454    
  0.1813610249216072    0.13834658749021758    0.10888738999655984    0.09292279042681699    0.08798129675164247    
  0.09691428294143119    0.10118656502644588    0.11513451363344682    0.14093465042992698    0.17865994069491176    
  0.2214650543005512    0.25521488214802535    0.2677665793656617    0.25521494717714055    0.22146500223777568    
  0.178660006322049    0.14093467757155692    0.11513454247800312    0.10118659707003977    0.09691428294143119    
  0.1260196495797838    0.12804489572589198    0.135476458731385    0.1502815943799814    0.17295470103838945    
  0.19967940974989312    0.22146501436336422    0.22982238689067866    0.2214651399298968    0.19967936721991636    
  0.17295470481515873    0.1502815075387855    0.13547655947535553    0.12804485085701292    0.1260196495797838    
  0.1813609581377213    0.1786599848222686    0.17295458094119037    0.16843195108964032    0.16843201860938795    
  0.172954633174872    0.1786599198715387    0.18136104672396863    0.17865989821349745    0.17295468385731333    
  0.1684319515857532    0.16843198416593586    0.17295465442419866    0.17866000487060715    0.1813609581377213    
  0.26219757423690593    0.2526109908594348    0.2271924813484048    0.19558330712794997    0.1684320172323902    
  0.15028154230335478    0.14093463226755046    0.13834661969739392    0.14093472004301044    0.1502815305504182    
  0.16843196403885852    0.19558330596316165    0.2271924610871738    0.25261103970488513    0.26219757423690593    
  0.34131124207850005    0.3279699427624013    0.2863185232882077    0.22719252589131442    0.17295461040395    
  0.1354765367761139    0.11513458177180917    0.10888729958090015    0.11513457831460891    0.1354765627485977    
  0.17295462197303513    0.22719250821818304    0.286318578165323    0.3279698871209    0.34131124207850005    
  0.3808874395864234    0.3711104101108895    0.3279698289300654    0.2526110574737607    0.1786599754518455    
  0.12804488585544224    0.10118656577156615    0.09292278165032625    0.10118659915935041    0.12804488734923292    
  0.17865996793901917    0.252610970418585    0.327969889010433    0.3711104682673732    0.3808874395864234    
  0.3872154425442287    0.3808873648368415    0.34131115745280505    0.26219769480333965    0.18136102032450943    
  0.1260196049814884    0.09691427581333908    0.08798128374345432    0.09691428144290602    0.12601960684400915    
  0.18136097763660342    0.2621974923152571    0.34131123863508284    0.380887413384723    0.3872154425442287    
  0.2817582684041293    0.2677664847680618    0.22982242018253957    0.18136105279167522    0.13834666738756832    
  0.10888728591687381    0.09292279707556317    0.08798125414261515    0.09292279240706129    0.10888730918656742    
  0.13834664126497212    0.1813609293750398    0.22982247802219968    0.26776658051669555    0.2817582684041293    
  0.2677664511884832    0.25521501002913727    0.2214649393153639    0.17865998060309868    0.14093461513041117    
  0.11513462757881343    0.10118650868625476    0.0969143180653616    0.10118653743601763    0.11513455681208253    
  0.14093465168500513    0.17866001679242774    0.22146499438076112    0.25521510642564466    0.2677664511884832    
  0.22982248462530414    0.22146498880319684    0.19967942304004074    0.17295465692966816    0.15028162312520535    
  0.13547649982465193    0.12804495106709404    0.12601956337961612    0.12804494918475412    0.1354765076493243    
  0.15028160018935757    0.17295464048396517    0.1996794474772392    0.22146491720242167    0.22982248462530414    
  0.18136099435025016    0.17866001887839794    0.1729545808337773    0.16843195465490374    0.1684319601301777    
  0.17295465954071376    0.17865993800877186    0.18136109133132663    0.1786598906358329    0.17295467618782545    
  0.1684319242106001    0.16843198674964077    0.17295465520581646    0.17865997259745944    0.18136099435025016    
  0.1383466279612071    0.14093464749411985    0.15028155235658594    0.1684319942595851    0.19558329485034506    
  0.22719247431245865    0.25261105564945785    0.262197538113315    0.2526110693896881    0.2271924749824428    
  0.19558337499441295    0.16843191620773829    0.15028162567052325    0.140934643368842    0.1383466279612071    
  0.10888730211711914    0.11513461386706718    0.135476518428119    0.17295466532206658    0.22719245782146524    
  0.28631865560089304    0.32796977391835197    0.3413113196950163    0.32796987733053223    0.2863187041322321    
  0.22719241200501447    0.17295465124336476    0.1354765163598081    0.11513457294262858    0.10888730211711914    
  0.09292279855507657    0.10118651036311009    0.12804484306205166    0.1786599380106469    0.25261102954629483    
  0.32796983305881483    0.37111048197691027    0.380887302032543    0.37111049316112177    0.32796983973107746    
  0.2526110181599049    0.1786598830739019    0.12804489712664596    0.10118655919634566    0.09292279855507657    
  0.08798126983651394    0.09691434175238442    0.12601955882335017    0.1813610390696041    0.26219745802600597    
  0.3413112996573124    0.3808873795077358    0.3872154269222331    0.3808874160037605    0.34131127366303415    
  0.2621975310786254    0.18136101192004933    0.12601963810581127    0.09691433894691015    0.08798126983651394    
  0.09292281065367433    0.10118652851015791    0.12804486485184233    0.1786599178430301    0.25261108466081206    
  0.3279698581889716    0.3711103969248347    0.38088734381783335    0.371110475125264    0.3279698069760504    
  0.2526111361952038    0.1786598918133888    0.12804489096676325    0.10118654643295948    0.09292281065367433    
  0.10888734320328505    0.1151346292219119    0.13547643916602473    0.1729547409694872    0.2271924920689401    
  0.2863185811446579    0.3279698393529972    0.3413112568890448    0.32797000013659355    0.2863185811144028    
  0.22719245031789803    0.17295464530456509    0.13547653644696986    0.11513456405819639    0.10888734320328505    
  0.1383466318346714    0.14093464015751095    0.15028153552533957    0.1684319171401406    0.19558336889797998    
  0.22719240722687195    0.25261102397596247    0.2621975958432856    0.2526110156966329    0.22719248359061184    
  0.19558331147601699    0.16843193509538829    0.15028160781834263    0.1409346902833819    0.1383466318346714    
  0.18136098807205062    0.17865995758643782    0.17295463309970724    0.1684320186002701    0.16843198489381295    
  0.17295466481451285    0.17865989994298406    0.18136104603772882    0.1786599809524281    0.17295464074349293    
  0.1684319323978491    0.16843200756274834    0.17295460168971608    0.17865999129422772    0.18136098807205062    
  0.22982251363054093    0.2214650575311425    0.19967940334460016    0.1729546299761031    0.15028155427446924    
  0.1354764875012607    0.1280449061526428    0.1260195685329491    0.12804491986559058    0.1354765369124605    
  0.1502815615168626    0.17295464787255668    0.19967946342447698    0.22146495710855948    0.22982251363054093    
  0.26776660297328575    0.2552150162509879    0.22146492316281738    0.17866003368733796    0.14093465325265142    
  0.11513463442485024    0.10118653610176456    0.09691432633776687    0.10118655672465762    0.11513461419271843    
  0.1409346020440951    0.17865993850546047    0.221464994393669    0.25521505210438933    0.26776660297328575    
  0.2817582684041293    0.2677664847680618    0.22982242018253957    0.18136105279167522    0.13834666738756832    
  0.10888728591687381    0.09292279707556317    0.08798125414261515    0.09292279240706129    0.10888730918656742    
  0.13834664126497212    0.1813609293750398    0.22982247802219968    0.26776658051669555    0.2817582684041293    
  0.16886824000198358    0.16239399108706204    0.14589801951999862    0.1260196710144539    0.10888732216841014    
  0.09740632790230874    0.09153642705652983    0.08987875667770251    0.09153642323660806    0.09740628646413316    
  0.10888727364275941    0.12601956162782352    0.1458980289311762    0.16239403902053803    0.16886824000198358    
  0.16239401984705887    0.15707915325974012    0.14374820955257378    0.12804485536471732    0.11513457818992998    
  0.10715700471865569    0.10356679361065979    0.10272033043180827    0.10356682878456601    0.10715695689804433    
  0.11513461952208894    0.1280448515076345    0.14374825990856346    0.15707916972317515    0.16239401984705887    
  0.14589800125664937    0.14374829792719937    0.13914200571614968    0.135476545453484    0.13547653814871408    
  0.13914206735634488    0.14374822965966783    0.14589809324011654    0.14374825792943202    0.1391420543526943    
  0.13547652976255334    0.13547655430584027    0.13914201785855482    0.14374824559039084    0.14589800125664937    
  0.1260196460649334    0.12804490933020368    0.13547652647256217    0.1502815089288658    0.17295466969346368    
  0.19967941950593468    0.22146502207998336    0.22982247647944656    0.22146500648667344    0.19967934312066396    
  0.17295469776006295    0.15028151798883918    0.13547657220770995    0.1280449021163826    0.1260196460649334    
  0.10888729564563325    0.11513460177702874    0.13547649864408645    0.17295471793991166    0.2271924766997098    
  0.28631859015543776    0.32796980183382984    0.3413113287893042    0.32796990615563215    0.28631867545001916    
  0.2271924440729609    0.17295465699049686    0.13547652046539524    0.11513462055281685    0.10888729564563325    
  0.09740635186072688    0.10715702642823742    0.13914211571172722    0.19967943227311707    0.2863186022278759    
  0.3657185700909266    0.3955886251372576    0.39502522354480435    0.3955886410933678    0.36571862716723136    
  0.286318577953421    0.19967942264413802    0.13914207809505436    0.1071569970588793    0.09740635186072688    
  0.09153639855365697    0.10356680593607342    0.14374815172424132    0.22146505899464816    0.32796982091113897    
  0.39558860692930686    0.3727905993832923    0.34299345259372127    0.3727905689355342    0.395588627854004    
  0.32796979332633014    0.2214649809823664    0.14374817847838828    0.10356683650931188    0.09153639855365697    
  0.08987880971811303    0.10272033387611991    0.14589808502106696    0.22982244861881077    0.3413113311136851    
  0.3950251635876803    0.34299346825901134    0.3007988153200003    0.3429934203881953    0.3950251875987593    
  0.34131128173717784    0.2298223957893178    0.1458981241562308    0.10272035289763791    0.08987880971811303    
  0.09153640891842267    0.10356681479758417    0.14374818152649246    0.22146502235710236    0.3279698708874708    
  0.39558863196824257    0.37279049839522355    0.3429934235637958    0.37279056535955274    0.3955886083360439    
  0.3279698494200666    0.22146502104819057    0.14374823215772198    0.10356684326409829    0.09153640891842267    
  0.09740631303238409    0.10715703719318768    0.13914203467077055    0.19967945768532822    0.28631868536789645    