#     DFTpy    
  CRYSTAL 
    
  PRIMVEC    
  3.750620689655172    0.0    0.0    
  0.0    3.750620689655172    0.0    
  0.0    0.0    3.750620689655172    
  PRIMCOORD    
  2    1    
  Si    0.0    0.0    0.0    
  Si    1.8753103448275863    1.8753103448275863    1.8753103448275863    
  BEGIN_BLOCK_DATAGRID_3D    
  3d_datagrid_density    
  BEGIN_DATAGRID_3D#0    
  17    17    17    
  0.0    0.0    0.0    
  3.750620689655172    0.0    0.0    
  0.0    3.750620689655172    0.0    
  0.0    0.0    3.750620689655172    
  0.07216445767441614    0.1258644470587426    0.2988494266186051    0.4107770735279522    0.3186045861881464    
  0.188297715486474    0.10886724049074561    0.07233404811765014    0.06201990600099172    0.07233406459187111    
  0.10886724380480196    0.18829767915700693    0.3186045476404903    0.4107772011157025    0.2988494456298425    
  0.12586443604028572    0.07216445767441614    0.12586443235898492    0.18598902277803578    0.3426866125168732    
  0.40726011753792507    0.3018038203517689    0.17868646409433334    0.10489991740009692    0.07079964649172511    
  0.06113466897595746    0.07079967225060045    0.10489987798648884    0.17868646046031414    0.30180381932002837    
  0.4072600562626176    0.3426867136160609    0.1859890007739569    0.12586443235898492    0.29884937554423785    
  0.34268666629630135    0.40876103155847104    0.3719849118030155    0.2551758798199745    0.15400424550517305    
  0.09486998202877688    0.06703194517931388    0.05905145530374869    0.06703193739581934    0.09487001623800989    
  0.1540041753468997    0.25517587539607284    0.3719848954608004    0.40876092715573914    0.34268674531425786    
  0.29884937554423785    0.4107771293291714    0.4072601472183576    0.3719848956844891    0.28798232319592515    
  0.19347628978968373    0.1237643489735123    0.08281811560242919    0.06284470757683526    0.057019254130509775    
  0.06284471184198771    0.0828181016340114    0.1237643217846064    0.19347627759883504    0.28798236338077515    
  0.371984951204071    0.4072600485018266    0.4107771293291714    0.3186045665340479    0.3018038393283676    
  0.2551759009942321    0.19347622500157305    0.1370422044934412    0.09673316534006898    0.07226880269898953    
  0.05985907098243723    0.056177250289446964    0.059859074610438504    0.07226879483839062    0.09673312296243093    
  0.13704221871000613    0.19347630428629015    0.25517588834156985    0.3018038462693989    0.3186045665340479    
  0.18829773978233758    0.1786864901409742    0.15400417584458082    0.12376434112147265    0.09673314615613175    
  0.07713471530570744    0.06503478453334141    0.05884941253673327    0.057019240993433806    0.05884940421819161    
  0.0650347697802727    0.0771347183111606    0.09673313518461292    0.12376436036923537    0.15400420554425967    
  0.17868645427765595    0.18829773978233758    0.10886723232696224    0.10489992358968961    0.0948700291188147    
  0.08281805185971829    0.07226879506475113    0.06503479323969838    0.06112944860322025    0.0594786673662419    
  0.05905145587129943    0.059478665699145075    0.06112945631516967    0.06503479336518507    0.07226878094228756    
  0.08281811165724122    0.09487000982164401    0.10489989885355656    0.10886723232696224    0.07233407734720927    
  0.07079965787520394    0.06703193921053874    0.06284471090785126    0.05985908353889121    0.058849396472366075    
  0.05947868057595982    0.06061008428150993    0.06113468559646904    0.0606101074208091    0.05947866758019978    
  0.05884939884776546    0.059859096258274826    0.06284472349690338    0.067031951618294    0.07079963536185427    
  0.07233407734720927    0.06201991489244206    0.06113465821413217    0.05905147719195482    0.05701922512035664    
  0.056177232918876184    0.05701926457991477    0.05905148176937137    0.06113463678734208    0.062019915677894805    
  0.06113466353632495    0.059051476471474795    0.057019232918139554    0.056177235186509494    0.05701925216374822    
  0.05905147698891686    0.061134640123942686    0.06201991489244206    0.07233407480062083    0.07079968476405539    
  0.06703191804254104    0.06284471010199133    0.05985906257484064    0.058849408100773375    0.05947866866291225    
  0.060610099605100755    0.061134651324951    0.06061012546593897    0.059478640456752    0.05884941884456375    
  0.05985907202084296    0.06284469985087493    0.06703194340754984    0.07079965061513639    0.07233407480062083    
  0.10886723367350043    0.104899905535955    0.09487001009200238    0.08281807941265373    0.07226879180718852    
  0.06503479818415316    0.061129436461375634    0.05947868807647734    0.05905144966177012    0.0594786573479748    
  0.06112944634780818    0.06503478440981207    0.07226878853252652    0.08281814181839732    0.09486999813319617    
  0.10489992059432425    0.10886723367350043    0.188297724712774    0.17868648026738818    0.15400419856738704    
  0.12376431029746428    0.09673314038610199    0.07713472753738412    0.06503480322377939    0.05884939426391846    
  0.05701924391261947    0.05884941983294575    0.06503478090554729    0.0771347145718875    0.09673315955882812    
  0.12376434399090483    0.15400423998469384    0.1786864528767104    0.188297724712774    0.3186046024603055    
  0.3018038190837616    0.2551758919236949    0.1934762394739153    0.13704222585220344    0.0967331577699162    
  0.07226878904692935    0.059859076789043314    0.05617723031534133    0.05985907377473184    0.07226879626492515    
  0.09673310846366459    0.137042202605519    0.19347630924255718    0.25517588368048555    0.3018038458167312    
  0.3186046024603055    0.41077711780189574    0.40726010437613164    0.37198494495825013    0.28798233570864384    
  0.19347625104021943    0.12376436400744215    0.08281810489523302    0.06284468993976658    0.05701926124239181    
  0.06284471421545207    0.08281807901972171    0.12376433488187434    0.19347628127806632    0.2879823261450457    
  0.3719848827275445    0.40726006028251904    0.41077711780189574    0.29884938810620815    0.34268666053584546    
  0.4087609967554559    0.37198496454468805    0.2551758567116524    0.15400420333637452    0.0948700015842238    
  0.0670319331426693    0.05905145354594738    0.06703194092104131    0.09487002475637979    0.15400414394562095    
  0.2551758741478487    0.37198492257694826    0.40876101672554527    0.34268668547486847    0.29884938810620815    
  0.12586447723022984    0.1859889922226734    0.34268672695904256    0.40726009292488485    0.30180390064702994    
  0.17868650050674148    0.10489992547534646    0.07079963395090264    0.06113467604661367    0.07079965254323888    
  0.10489990245338088    0.17868647668848814    0.30180386632222517    0.4072600680242877    0.3426867465174783    
  0.18598896978091206    0.12586447723022984    0.07216445767441614    0.1258644470587426    0.2988494266186051    
  0.4107770735279522    0.3186045861881464    0.188297715486474    0.10886724049074561    0.07233404811765014    
  0.06201990600099172    0.07233406459187111    0.10886724380480196    0.18829767915700693    0.3186045476404903    
  0.4107772011157025    0.2988494456298425    0.12586443604028572    0.07216445767441614    0.1258644819545721    
  0.18598895341392155    0.34268671040664755    0.4072600263815664    0.3018038951347406    0.17868647451008976    
  0.10489993611319975    0.07079964646749863    0.061134670839971976    0.07079967015011608    0.10489991239445247    
  0.17868643687995844    0.3018038908936033    0.4072600959954672    0.3426867433274848    0.18598894547418932    
  0.1258644819545721    0.18598899219740764    0.24552050157508293    0.37532847893225463    0.3988224545856018    
  0.2858404542188518    0.17014548611115185    0.10158689937737972    0.06969444901747573    0.06061010465511071    
  0.069694471910665    0.10158686285989049    0.17014547602338756    0.2858404969614299    0.3988224145713151    
  0.3753286326669285    0.24552048047986894    0.18598899219740764    0.3426866853622978    0.3753285458711836    
  0.41210936162315637    0.3565636856876573    0.2422883090425022    0.14812322057386682    0.09313320524075956    
  0.06701520072158093    0.05947866062056286    0.06701520311078626    0.09313325023662178    0.14812318680448813    
  0.24228833605415262    0.35656369044907793    0.4121092340304568    0.3753286010934526    0.3426866853622978    
  0.407260090043298    0.3988223726506665    0.3565637357342419    0.2738276123045946    0.18565080036592882    
  0.12116262844510725    0.08308543778496674    0.0643507300924784    0.05884939410026762    0.06435074287990356    
  0.0830854548446265    0.12116263959486069    0.1856508033662336    0.2738276082613647    0.3565637128862216    
  0.39882237184888497    0.407260090043298    0.3018038659670275    0.2858404535203487    0.24228834283509373    
  0.1856507583662745    0.1341257828030123    0.09720191645181861    0.07470382634556445    0.06326031664766962    
  0.05985908990978058    0.06326033439641018    0.07470382610912787    0.09720187608925161    0.13412578338991568    
  0.18565079631540038    0.24228834801733629    0.28584045063920593    0.3018038659670275    0.17868649599533518    
  0.17014550131657172    0.1481231895867111    0.1211626146787377    0.09720189298077213    0.07997199670169972    
  0.06953647924835255    0.06435073940734262    0.06284471186979501    0.06435076416388667    0.06953644572869822    
  0.0799719920422481    0.09720187592847004    0.12116265858891138    0.14812324880282945    0.1701454255320132    
  0.17868649599533518    0.10489990654337418    0.10158688585341266    0.09313323722588965    0.08308540567391266    
  0.07470384551064799    0.06953646571397244    0.06741763849235517    0.06701520961629312    0.06703194248793952    
  0.06701519896807308    0.06741764627704322    0.06953646220526905    0.07470384308179871    0.08308544197372862    
  0.09313322691793588    0.10158687415448156    0.10489990654337418    0.07079966776215357    0.06969445912216793    
  0.0670152011803983    0.06435073916898547    0.06326033638599082    0.06435074626166412    0.06701521704097149    
  0.06969445390660832    0.07079967116305028    0.06969444391554518    0.06701519744639149    0.06435074098894965    
  0.06326035290633057    0.06435076134222693    0.06701520740399977    0.06969444846814177    0.07079966776215357    
  0.06113468213820737    0.06061010450252088    0.059478667557629414    0.05884938513561588    0.059859080272070674    
  0.0628446981446813    0.06703194392013026    0.07079963844099806    0.07233409051729066    0.07079964388600855    
  0.06703195623504374    0.06284467379499252    0.05985910510269479    0.0588494096025295    0.05947868604625849    
  0.060610085652901935    0.06113468213820737    0.07079966741055997    0.06969448310883722    0.06701518940424712    
  0.06435074550552258    0.06326034877147967    0.06435074730365815    0.06701522884781944    0.06969444667442767    
  0.07079966219708107    0.0696944718428931    0.06701516485013728    0.06435075739828895    0.06326032914905311    
  0.06435074867113716    0.06701521439245267    0.06969445392432994    0.07079966741055997    0.10489991730092857    
  0.10158688489198374    0.09313324498679491    0.08308541089465318    0.07470384899685936    0.06953647644366032    
  0.0674176009403777    0.06701522163530543    0.06703193815261234    0.06701521278871304    0.06741765535263233    
  0.06953647851053191    0.07470383413225605    0.08308544617151824    0.09313321987031384    0.1015868865153898    
  0.10489991730092857    0.1786864644311052    0.17014547367724303    0.14812324105894223    0.12116263880484511    
  0.09720189831183212    0.0799720156874653    0.06953648908005503    0.06435071821653215    0.06284471262088702    
  0.06435074044462827    0.06953648971859701    0.07997199875927126    0.0972019156444156    0.12116262894741807    
  0.14812322177006068    0.17014544015113464    0.1786864644311052    0.30180388280921966    0.28584047457791095    
  0.24228830737538165    0.1856507628314245    0.13412577358571937    0.0972018975974143    0.0747038485390599    
  0.06326033256574172    0.05985908970334439    0.06326033591148182    0.07470384820909792    0.09720187921386893    
  0.1341257860059085    0.18565082243430506    0.24228830867984094    0.28584043824054495    0.30180388280921966    
  0.4072600933393416    0.3988224649237155    0.35656370370537693    0.2738275874714251    0.18565075361376568    
  0.12116266242468376    0.08308545044316959    0.06435072545634227    0.0588494092123293    0.0643507566674154    
  0.08308540242916636    0.12116262490595629    0.18565079396220777    0.27382759032441834    0.3565637224229001    
  0.39882240910533967    0.4072600933393416    0.34268669601797463    0.3753285214862278    0.4121093517077623    
  0.35656374416368203    0.24228832464351768    0.14812321230210868    0.09313321731976412    0.0670151953166381    
  0.059478655423677224    0.06701519872336673    0.09313323311537215    0.14812318966611215    0.24228831917009586    
  0.35656371075123733    0.4121093211568777    0.3753285423427759    0.34268669601797463    0.1859890092037383    
  0.24552044011222368    0.3753285464980717    0.39882239661662694    0.2858405190195716    0.17014549295761427    
  0.10158689577651142    0.06969444505097343    0.060610105811541345    0.06969445119688926    0.10158687330053817    
  0.1701454630245197    0.28584049326206035    0.39882243703460607    0.3753285980105765    0.2455204702121037    
  0.1859890092037383    0.1258644819545721    0.18598895341392155    0.34268671040664755    0.4072600263815664    
  0.3018038951347406    0.17868647451008976    0.10489993611319975    0.07079964646749863    0.061134670839971976    
  0.07079967015011608    0.10489991239445247    0.17868643687995844    0.3018038908936033    0.4072600959954672    
  0.3426867433274848    0.18598894547418932    0.1258644819545721    0.29884942001456866    0.3426866796399354    
  0.40876095235605436    0.37198491796648947    0.2551758936973731    0.15400423650597211    0.0948700169220357    
  0.06703193331065557    0.05905147113854948    0.06703193940564281    0.09487001659897158    0.15400415329492234    
  0.25517588109645384    0.371984994214865    0.40876100110013436    0.3426866646777654    0.29884942001456866    
  0.3426867158112138    0.3753286490435989    0.41210922464184074    0.35656378191144156    0.24228827155475496    
  0.14812322054265373    0.09313322531943867    0.06701519399082921    0.05947867174600603    0.06701521609709228    
  0.09313318907770367    0.1481232274980964    0.24228827120802424    0.35656372502053907    0.4121093780279009    
  0.3753285657316262    0.3426867158112138    0.40876094803764046    0.41210922029276453    0.38890410077907267    
  0.3079637315089794    0.20824714564515456    0.1329917922089361    0.088873409070974    0.06741762803689615    
  0.06112942523093589    0.06741762199609416    0.08887343775120468    0.1329917407943467    0.20824715773176802    
  0.3079637338412541    0.38890398720317654    0.41210938059795277    0.40876094803764046    0.3719849517475097    
  0.3565637540565526    0.30796370381390037    0.23557978772345858    0.16548777626654587    0.11492787227458087    
  0.08468523372573238    0.06953647101616017    0.06503481228892265    0.06953647644151283    0.08468520511776838    
  0.11492786403186676    0.1654877780903419    0.23557975836906575    0.30796373853390874    0.3565636613787788    
  0.3719849517475097    0.25517583099652286    0.24228827546796222    0.20824716929370432    0.16548772523470562    
  0.12714799836401267    0.0996592981195942    0.08302038388858149    0.07470380775551773    0.07226878996039973    
  0.07470382822705182    0.08302035546677612    0.09965927094671415    0.12714802398504857    0.16548779966699878    
  0.20824715343711686    0.24228830170594481    0.25517583099652286    0.1540042148024359    0.14812325899597498    
  0.13299176194001755    0.11492786855839214    0.09965930139371232    0.08961894484293643    0.08468520557176726    
  0.08308543882670366    0.08281808627511009    0.08308544361947785    0.08468520263549838    0.08961892389651457    
  0.09965928015897586    0.11492787666810705    0.13299179301668138    0.14812320204397736    0.1540042148024359    
  0.09486998852899287    0.09313323616261525    0.0888734340173095    0.08468516977843484    0.0830203738996253    
  0.08468522295016441    0.08887344758427793    0.09313323892110012    0.09486998122554882    0.09313320284020922    
  0.08887344750435378    0.08468519758162928    0.08302037237176735    0.08468521647865676    0.08887342379463709    
  0.0931332250062781    0.09486998852899287    0.06703196012499195    0.06701520796593742    0.06741763153128216    
  0.06953647945181968    0.07470382835938227    0.08308543348320208    0.09313324085778406    0.10158688040277614    
  0.10489994988494644    0.1015868915764264    0.09313322030859583    0.08308543467593887    0.07470384271880784    
  0.06953650864105579    0.06741763590083763    0.0670151849503835    0.06703196012499195    0.05905148370301998    
  0.059478669736809216    0.06112944490588341    0.06503476731461896    0.0722688068329221    0.08281810576222458    
  0.09487000564941418    0.10489989489449505    0.10886724853752613    0.10489991213483099    0.0948699900841426    
  0.08281807976964511    0.07226879892143453    0.06503481670548099    0.0611294441803078    0.05947865757759643    
  0.05905148370301998    0.06703194360943784    0.06701522233641674    0.06741760711757785    0.0695364924680838    
  0.07470381146925026    0.08308545236594767    0.09313322939475097    0.10158689520825517    0.10489992144371132    
  0.10158694282072737    0.09313318027123015    0.08308546615034403    0.07470381874731721    0.0695364776181457    
  0.06741763654031123    0.06701519710704924    0.06703194360943784    0.09487001154732733    0.09313321431904974    
  0.08887343355761831    0.08468518867965853    0.08302037962761386    0.08468520976576925    0.08887340588751488    
  0.09313326059641605    0.09486999458071074    0.09313320249152532    0.08887343370644818    0.08468519891368072    
  0.08302037248472645    0.08468522725117449    0.08887341969116516    0.09313321920108268    0.09487001154732733    
  0.15400422088672958    0.1481232449081945    0.13299176379356528    0.11492785921579499    0.09965929664075555    
  0.08961894903358679    0.08468520814452674    0.08308542302298602    0.08281811454083444    0.08308544918739041    
  0.08468519558454761    0.08961896084752478    0.09965931292541894    0.11492787688657562    0.1329918127620797    
  0.14812320863833203    0.15400422088672958    0.2551758746831292    0.24228829080752776    0.20824713557332336    
  0.16548774909562822    0.1271480281954079    0.09965930083226479    0.08302035577053837    0.07470382949245781    
  0.07226877125648515    0.07470382498652617    0.08302037000059742    0.09965926441214047    0.12714800965792053    
  0.1654877775694629    0.20824717396547499    0.2422882638955781    0.2551758746831292    0.371984946591949    
  0.3565637362339958    0.3079637608373284    0.2355797247283305    0.16548774559514337    0.11492788893981999    
  0.0846852063121399    0.06953645650248287    0.06503480839616231    0.06953650360939664    0.08468518868394846    
  0.11492787239047783    0.1654877923998019    0.23557977725807802    0.30796369763162573    0.35656369720668196    
  0.371984946591949    0.4087609514063262    0.4121092631858325    0.38890403765423576    0.3079637265215185    
  0.20824715513951167    0.13299177213015473    0.08887341361104195    0.06741763757194548    0.06112940262711338    
  0.06741764173728285    0.08887342504115196    0.1329917396829506    0.20824715306118866    0.30796373570742    
  0.3889040766854537    0.4121093167355489    0.4087609514063262    0.342686756241532    0.375328561318484    
  0.4121093227986425    0.3565636988089057    0.2422883305614545    0.1481232723915339    0.09313321847850664    
  0.06701518732890066    0.059478684986510516    0.0670152003813383    0.0931332094424133    0.14812322683356827    
  0.24228830269622598    0.356563724328078    0.4121093985654153    0.3753285243772004    0.342686756241532    
  0.29884942001456866    0.3426866796399354    0.40876095235605436    0.37198491796648947    0.2551758936973731    
  0.15400423650597211    0.0948700169220357    0.06703193331065557    0.05905147113854948    0.06703193940564281    
  0.09487001659897158    0.15400415329492234    0.25517588109645384    0.371984994214865    0.40876100110013436    
  0.3426866646777654    0.29884942001456866    0.4107771993435554    0.407260059423978    0.3719849464577801    
  0.2879823097940046    0.19347632235650286    0.123764364770247    0.08281811437672022    0.06284470526098279    
  0.05701925575972981    0.0628447058945857    0.08281811849928998    0.12376430733882429    0.19347629421313864    
  0.287982371752483    0.3719849632726723    0.4072600120616892    0.4107771993435554    0.4072600337781615    
  0.39882240463704954    0.3565636527652019    0.2738275960171421    0.18565079185660988    0.12116261991471475    
  0.08308545302008391    0.06435073257695441    0.05884941175976651    0.06435075462836758    0.08308541124109872    
  0.12116263813218846    0.18565079673742127    0.2738276093336428    0.35656373308081984    0.3988223731317712    
  0.4072600337781615    0.37198490827310426    0.3565637124928625    0.307963776179364    0.23557973859381506    
  0.1654877993269878    0.11492787805433284    0.08468520294805601    0.06953647599893877    0.06503478748978747    
  0.06953647271245747    0.08468523340801655    0.11492784130943243    0.16548780765120472    0.2355797296318301    
  0.3079637281440591    0.35656376748449314    0.37198490827310426    0.2879823475534846    0.273827524606886    
  0.23557975827037964    0.18614844087066953    0.1411587283132934    0.10896463561333973    0.08961894615834567    
  0.0799719869821684    0.07713471913323654    0.07997198806441899    0.08961893457052118    0.10896463279300318    
  0.14115873270069001    0.18614843111152923    0.23557976014288454    0.2738275494598854    0.2879823475534846    
  0.1934762816788557    0.18565078190395937    0.16548783126960792    0.14115869645007117    0.12038332586858017    
  0.10662653068169195    0.09965932749639607    0.09720187397807312    0.09673315433191375    0.0972018889839857    
  0.09965931971169259    0.1066264510653791    0.12038334210731141    0.14115876688285772    0.16548781845640442    
  0.1856507805181725    0.1934762816788557    0.123764335220818    0.1211626447421824    0.1149278492229058    
  0.10896463626886155    0.10662649678912171    0.10896461570504683    0.11492786042458726    0.12116262628492803    
  0.12376432548457944    0.12116264552223958    0.11492783169482343    0.10896462894965106    0.10662647359161723    
  0.10896465415910417    0.11492787268941941    0.12116260254712334    0.123764335220818    0.0828181020887914    
  0.08308543903887193    0.08468522449191257    0.0896189077439587    0.09965931467684648    0.11492787520688937    
  0.13299177548595137    0.1481232175353004    0.15400419760988432    0.1481232025264544    0.1329917957461837    
  0.11492785853399518    0.09965930863959284    0.08961893865131548    0.0846852167834442    0.08308542306630937    
  0.0828181020887914    0.06284472250661356    0.06435074168129618    0.0695364803528266    0.079971992715714    
  0.09720192405047415    0.12116262303001459    0.14812327938096978    0.1701454436842211    0.17868652849757577    
  0.17014543927607662    0.1481231988130553    0.12116263225752637    0.09720191426984981    0.07997200614332013    
  0.06953648364265558    0.06435072567395918    0.06284472250661356    0.05701926478115944    0.058849400105918534    
  0.06503481110668906    0.07713469931982261    0.09673315146232142    0.12376434812581368    0.15400419528032136    
  0.17868643686320176    0.18829774840823152    0.17868646980302993    0.1540042013233211    0.12376430614314643    
  0.09673318568859451    0.07713473146406744    0.06503480848871564    0.058849391803990625    0.05701926478115944    
  0.06284472085040112    0.06435075577191982    0.06953645643510875    0.07997200217487206    0.09720190379092876    
  0.12116264874299176    0.14812322411242534    0.17014545846931786    0.17868646194942558    0.17014546939467887    
  0.14812318148017584    0.12116261424508797    0.09720190322666493    0.07997198910153173    0.0695364905234412    
  0.0643507290976666    0.06284472085040112    0.0828181000844901    0.08308543657368228    0.08468522302639608    
  0.0896189173811759    0.09965931938042029    0.11492785507558172    0.1329917525637262    0.14812325916302477    
  0.1540041790211202    0.1481232248958219    0.1329918037691144    0.11492786450671462    0.09965932257409896    
  0.08961894489791755    0.08468521158826024    0.08308543579918758    0.0828181000844901    0.12376433861266625    
  0.12116263450285802    0.11492785716843379    0.10896463051823144    0.10662650246052485    0.10896463307768392    
  0.1149278645740969    0.12116259627528499    0.12376434584333998    0.12116259365548032    0.114927861873913    
  0.10896464443210499    0.10662651764887547    0.10896464275424039    0.11492787370056717    0.12116262399993234    
  0.12376433861266625    0.19347628845760265    0.18565080295530723    0.16548779769789076    0.1411586870067804    
  0.12038333771919821    0.10662652514582706    0.09965930921563164    0.09720190034749368    0.09673315516825237    
  0.09720189786891509    0.09965933665187161    0.10662647827073596    0.12038333573134499    0.1411587581490847    
  0.1654878145393756    0.18565077307153488    0.19347628845760265    0.2879823329013205    0.27382762812267786    
  0.23557970549900664    0.18614844179952478    0.1411587022159767    0.10896465875773559    0.08961892672724703    
  0.07997197989810426    0.07713471416082247    0.07997200623075114    0.08961890810722183    0.10896463871515585    
  0.1411587452246499    0.18614841771574045    0.23557972906959865    0.2738275928825368    0.2879823329013205    
  0.3719849728650465    0.356563720202698    0.3079637877366994    0.23557976151022156    0.1654878005003757    
  0.1149278603387744    0.08468520209133733    0.06953646842849619    0.0650347914136114    0.06953648071245896    
  0.08468521716630337    0.11492784889287028    0.16548778779723816    0.23557976131580716    0.30796373117748616    
  0.35656369225317003    0.3719849728650465    0.4072601680206165    0.3988223942494845    0.35656369972626994    
  0.2738276001595583    0.1856508175804628    0.12116265668329745    0.08308544230857118    0.06435072862931845    
  0.058849410430526126    0.06435073706156277    0.08308543697827642    0.12116262134840103    0.18565084082803537    
  0.2738275879405148    0.3565638021219292    0.3988223629712167    0.4072601680206165    0.4107771993435554    
  0.407260059423978    0.3719849464577801    0.2879823097940046    0.19347632235650286    0.123764364770247    
  0.08281811437672022    0.06284470526098279    0.05701925575972981    0.0628447058945857    0.08281811849928998    
  0.12376430733882429    0.19347629421313864    0.287982371752483    0.3719849632726723    0.4072600120616892    
  0.4107771993435554    0.31860459401573127    0.30180385746952637    0.2551758769074487    0.19347624603363656    
  0.13704223118185602    0.09673317143118897    0.07226879462630878    0.05985906348432469    0.05617725084942542    
  0.05985907443522983    0.07226879963414433    0.0967331302792265    0.13704222330207577    0.19347632961901612    
  0.2551758974991605    0.3018038100425262    0.31860459401573127    0.30180384448058056    0.2858405456597595    
  0.24228819866318005    0.18565083818884343    0.13412575334750867    0.09720189415478306    0.07470383398669163    
  0.06326032447927459    0.05985908863099628    0.0632603502596974    0.0747038006611981    0.09720190936336251    
  0.1341257469872193    0.1856507957226624    0.24228833203177488    0.2858404900496099    0.30180384448058056    
  0.2551758251570613    0.24228827638549158    0.20824718084370697    0.16548775807887153    0.12714800711080596    
  0.0996593263704035    0.08302034843841939    0.07470383146563785    0.07226877681585529    0.0747038205501583    
  0.08302037345649166    0.09965927469133376    0.12714801274072404    0.16548775704202834    0.20824713020278893    
  0.2422883043908159    0.2551758251570613    0.19347628037762984    0.18565081813679768    0.165487766702166    
  0.14115875333909186    0.12038330046153502    0.10662649365360836    0.0996593246527293    0.09720189650012313    
  0.09673316334342745    0.0972018926025644    0.09965930223861325    0.10662648696455243    0.12038330993466637    
  0.1411587638952976    0.16548778329553657    0.18565078504666427    0.19347628037762984    0.13704218715508237    
  0.1341257579173239    0.1271480386726745    0.12038324950303447    0.11768159170219904    0.12038332792684212    
  0.1271480587037497    0.13412574838347782    0.13704222569481625    0.13412574482296455    0.1271480219363051    
  0.1203832805111612    0.11768161370824452    0.1203833351384182    0.12714802898175506    0.13412575207676977    
  0.13704218715508237    0.0967331668917543    0.09720191162397378    0.0996592932141305    0.10662651220866955    
  0.1203833135802335    0.14115875409393924    0.16548775242599048    0.18565078448194475    0.1934762694420723    
  0.1856508177262183    0.16548777470352263    0.1411587388078116    0.12038328999506132    0.10662651706023799    
  0.09965930673140538    0.09720187217423594    0.0967331668917543    0.07226876819298717    0.07470382417247466    