#     DFTpy    
  CRYSTAL 
    
  PRIMVEC    
  4.445103448275861    0.0    0.0    
  0.0    4.445103448275861    0.0    
  0.0    0.0    2.4489655172413793    
  PRIMCOORD    
  4    1    
  Si    0.0    0.0    0.0    
  Si    2.2225517241379307    2.2225517241379307    1.2244827586206897    
  Si    0.0    2.2225517241379307    0.6122413793103448    
  Si    2.2225517241379307    0.0    1.8367241379310346    
  BEGIN_BLOCK_DATAGRID_3D    
  3d_datagrid_density    
  BEGIN_DATAGRID_3D#0    
  19    19    11    
  0.0    0.0    0.0    
  4.445103448275861    0.0    0.0    
  0.0    4.445103448275861    0.0    
  0.0    0.0    2.4489655172413793    
  0.04971104091810671    0.09974992917037165    0.29146029197102413    0.4862913998358021    0.5121183990818313    
  0.4891158257942141    0.4852532968346613    0.4621292105960245    0.4018742407968947    0.3679308587241057    
  0.40187429258093565    0.4621291315378695    0.4852532860213861    0.48911579625955437    0.5121184342429338    
  0.48629155457875706    0.29146027129405033    0.09974993488069918    0.04971104091810671    0.09974994483374225    
  0.15954356112845933    0.3379148612596587    0.4755157732407457    0.47375740235636093    0.4476958881157569    
  0.44878652370731464    0.44347170434673566    0.4077663115414083    0.3845661391269342    0.40776626911453917    
  0.4434718154024422    0.44878645017303304    0.4476959884163153    0.47375742449339914    0.4755158757288051    
  0.3379148805687002    0.15954353405701452    0.09974994483374225    0.29146022134013827    0.33791487701155554    
  0.41876608586686787    0.4274722186864105    0.3812528994378092    0.3530256475890126    0.36166132845622795    
  0.3842640600561828    0.3939179675895121    0.3934258810297542    0.3939179406354521    0.3842640261410526    
  0.3616612866407338    0.35302568201496065    0.3812528446815861    0.42747222273215296    0.4187660705738264    
  0.33791482299312864    0.29146022134013827    0.4862914994862932    0.4755158979188275    0.42747211026968646    
  0.3496576758616252    0.2853403722043451    0.25906674423880754    0.26995205312792037    0.303416490105163    
  0.337062805434122    0.3506867968832075    0.33706292150837464    0.3034165290145958    0.2699520244714695    
  0.2590667595738345    0.2853402953222156    0.3496577106324651    0.4274721648080493    0.4755159263048098    
  0.4862914994862932    0.5121184416688429    0.4737573833732687    0.3812529321173517    0.2853403615757335    
  0.2217848180131946    0.1980304241703068    0.2084711251581561    0.24194012749779914    0.27876665295014236    
  0.29477977459559374    0.27876656252986426    0.24194012019895592    0.20847112140382246    0.19803041396113313    
  0.22178479607836277    0.2853403946181195    0.3812528873011002    0.4737574516162576    0.5121184416688429    
  0.4891158252685559    0.44769590164307144    0.3530256768321442    0.2590667580008324    0.1980304561515791    
  0.17577056700320937    0.1864066728940046    0.2195211175953846    0.25615079350022396    0.2721225055999513    
  0.2561508664219788    0.21952115199333636    0.18640670083727537    0.17577053759767117    0.1980304556143196    
  0.2590667567886143    0.3530255431781124    0.44769588845438446    0.4891158252685559    0.485253345858422    
  0.44878651180773393    0.3616613675130445    0.2699519983543908    0.20847115000508495    0.1864066129014795    
  0.19817330721192508    0.23370015796508395    0.27349790550677194    0.2909739406031448    0.2734979267367428    
  0.23370015202764127    0.1981732454540768    0.18640666891401628    0.20847110899123344    0.2699520333799519    
  0.36166128401653586    0.4487865899802464    0.485253345858422    0.46212919132792724    0.44347179376229146    
  0.38426406902679244    0.3034164753766832    0.24194010003658734    0.21952109325880875    0.23370018250055855    
  0.2747099736270589    0.32071969375724635    0.34082582728554056    0.3207196898415274    0.27470998418644704    
  0.23370011944454247    0.2195211138603381    0.24194007639891707    0.3034165866028153    0.3842640637278016    
  0.44347170715108897    0.46212919132792724    0.40187436590219067    0.40776626098978674    0.3939179780535071    
  0.33706289817136587    0.2787666432257912    0.25615079541851904    0.2734980198961779    0.3207197335854557    
  0.373196054714201    0.396087965760405    0.37319604794477707    0.32071971361850293    0.2734980283302893    
  0.2561508206670361    0.27876654656395133    0.33706298006727325    0.39391802206815535    0.4077662636926064    
  0.40187436590219067    0.3679308248135903    0.3845661348011591    0.39342591617546513    0.35068671148723124    
  0.29477985070309276    0.27212249079976963    0.2909738947275618    0.3408257919483643    0.39608781333896226    
  0.4203113391051313    0.3960878508740625    0.34082582274074275    0.2909739200272575    0.2721224674000423    
  0.29477980612500954    0.35068675910660546    0.3934260474457873    0.3845661117860792    0.3679308248135903    
  0.4018743635708383    0.40776630864995994    0.3939180460476334    0.3370628738034072    0.2787666356436009    
  0.25615078114901624    0.2734980408645554    0.3207196653323812    0.37319605300486103    0.39608791876729266    
  0.37319609900491724    0.32071969025708297    0.27349793528216076    0.2561508222429587    0.278766580728289    
  0.3370629507014544    0.3939180275580835    0.407766260893129    0.4018743635708383    0.46212906361021255    
  0.44347173996383027    0.3842639630148475    0.303416475838205    0.24194017414684774    0.219521149351912    
  0.2337001723914575    0.27470997460917107    0.3207196278985189    0.34082583481700296    0.3207196914267845    
  0.27470996516508894    0.2337001571716764    0.2195211567430127    0.24194015310868044    0.3034165121338776    
  0.38426391431656814    0.44347170301505434    0.46212906361021255    0.4852533361387646    0.4487865434830636    
  0.36166126840094104    0.2699519863668432    0.20847111934870763    0.1864066066743172    0.19817329743077863    
  0.23370021004181638    0.27349783561813884    0.29097395169225304    0.27349795335887156    0.23370019699645134    
  0.19817328182708427    0.18640668373742555    0.20847107759590067    0.26995206506949565    0.3616613040943307    
  0.44878650818218063    0.4852533361387646    0.48911584494487637    0.4476959832024103    0.3530256456796825    
  0.25906674897515003    0.1980304543861845    0.17577057102547108    0.18640669924405792    0.2195211545058351    
  0.25615087063981845    0.27212243611025433    0.2561508378814694    0.2195211640034844    0.1864066457532864    
  0.17577054806413367    0.19803044605282455    0.2590668069220791    0.35302565382056517    0.4476958933444602    
  0.48911584494487637    0.5121184051749048    0.4737573232650881    0.3812528303049477    0.2853403436349465    
  0.22178485925223232    0.1980304341469015    0.20847113835724637    0.24194011765333945    0.27876661752747045    
  0.29477983977629973    0.2787666527891189    0.24194011416907818    0.20847116327514364    0.19803040011258033    
  0.22178484017258632    0.28534042482602695    0.3812527580228037    0.47375730371278785    0.5121184051749048    
  0.4862915511871878    0.47551592366496354    0.4274721635346319    0.3496576281831004    0.2853403683312433    
  0.25906672741592673    0.2699520545465479    0.3034164662684666    0.33706286639200683    0.350686714483269    
  0.33706287929204987    0.30341647802923344    0.2699519388959384    0.25906678817816114    0.2853403583188334    
  0.3496576792539663    0.42747209392640334    0.47551593118192287    0.4862915511871878    0.2914602855633565    
  0.3379148901796773    0.41876609436473317    0.42747214707329856    0.3812528610971169    0.35302555920729706    
  0.3616613509305965    0.38426400010319073    0.39391801561054207    0.39342592006621935    0.3939179406963407    
  0.3842640518834976    0.3616613036044124    0.35302556810525587    0.3812527876289315    0.42747221196117197    
  0.4187660880068246    0.3379148539214668    0.2914602855633565    0.09974995730695566    0.15954352778736142    
  0.3379147499651879    0.4755158796933494    0.4737574336491122    0.44769588847685876    0.44878662327271057    
  0.4434717759258462    0.407766185078263    0.3845661789243853    0.4077662525700691    0.44347170244952866    
  0.4487866083915214    0.44769589674987764    0.47375736991600564    0.47551593447529356    0.3379147648025935    
  0.1595434984085109    0.09974995730695566    0.04971104091810671    0.09974992917037165    0.29146029197102413    
  0.4862913998358021    0.5121183990818313    0.4891158257942141    0.4852532968346613    0.4621292105960245    
  0.4018742407968947    0.3679308587241057    0.40187429258093565    0.4621291315378695    0.4852532860213861    
  0.48911579625955437    0.5121184342429338    0.48629155457875706    0.29146027129405033    0.09974993488069918    
  0.04971104091810671    0.09638433282453772    0.15312327512287296    0.31890112846451885    0.43671307227178546    
  0.4204202194737457    0.386607854659538    0.389929863216358    0.41735931170197693    0.4416014223569257    
  0.4495745706887351    0.44160154814969693    0.4173592640624688    0.38992988800274875    0.38660782809464145    
  0.42042018219521704    0.43671317753762046    0.3189011054081145    0.15312326618502384    0.09638433282453772    
  0.15881461920172144    0.21751459432982112    0.3577043093859771    0.42742241259156344    0.3926784569495733    
  0.35713567593459244    0.3606234249059579    0.38970714197287826    0.4174611309442383    0.42746545329607244    
  0.41746112279347763    0.389707244454489    0.3606233505982481    0.35713572783672853    0.39267845343336044    
  0.4274225780586346    0.35770434033939574    0.2175145695317831    0.15881461920172144    0.35549022847428846    
  0.38651527101354566    0.42313810665646984    0.3905223494675373    0.3261463411543966    0.2897043672528893    
  0.29300112475695766    0.32243902592514495    0.3545217155161632    0.36775389403478864    0.35452165481366077    
  0.3224389921717374    0.29300109262676444    0.28970438112571806    0.32614626244429784    0.39052234830954224    
  0.4231380791340334    0.3865151723892243    0.35549022847428846    0.5292110740931015    0.505784324202141    
  0.43226560999964136    0.33422723199989857    0.25832362109667145    0.22391135957496053    0.22634082530423733    
  0.2529086030852023    0.2844404181386626    0.2984384821203427    0.2844405200881793    0.25290865463660983    
  0.22634076462368677    0.22391138624632517    0.25832355506729765    0.3342273105997046    0.4322656217691138    
  0.5057843783339391    0.5292110740931015    0.559680500561592    0.5134003936227625    0.4039541855696043    
  0.29213493246625827    0.217242192074406    0.18501716136249746    0.18693590436699262    0.21110241095416418    
  0.24014623297708926    0.2531344123162796    0.24014616376192124    0.21110241155572212    0.18693588209338144    
  0.18501715552082634    0.2172422059625645    0.29213497351487255    0.40395419313565334    0.5134003700879033    
  0.559680500561592    0.55494843627821    0.5076878563322    0.39749559576366905    0.28613996872628744    
  0.21189428674115096    0.1801314700686963    0.18223124373216848    0.2064211560708064    0.23541941318013584    
  0.24837005219129896    0.23541944247465643    0.2064211733285729    0.18223128909413788    0.18013148504323295    
  0.21189426747521878    0.2861400073420838    0.39749546427253557    0.507687789348148    0.55494843627821    
  0.5340656953193135    0.5032089237010374    0.41847534591715907    0.31639108204308614    0.24114763413427576    
  0.20803360819440034    0.21094500682877038    0.2378218981693718    0.27009170597388593    0.2845107175741546    
  0.2700916968760516    0.23782187874960867    0.210944925944255    0.20803363211588718    0.2411475802272618    
  0.316391137787214    0.41847523247448976    0.5032089137839958    0.5340656953193135    0.4068785032151284    
  0.42129629065717306    0.4207937672660228    0.3638586305123069    0.29531306866232826    0.26067189522855355    
  0.2651718067273295    0.29683489008670627    0.3335238450465493    0.34945721739931246    0.3335238474570585    
  0.29683499590770396    0.26517174509931185    0.26067194271041827    0.29531305146568604    0.36385875581480287    
  0.42079383856855196    0.4212962387549575    0.4068785032151284    0.23363553303089887    0.28394346153654293    
  0.380316793172396    0.3995489252933859    0.3498438904811043    0.31542386381828835    0.3216896595762629    
  0.3574148279723326    0.3971567707997832    0.41392569971927745    0.39715671970533456    0.35741478853076697    
  0.32168962900569636    0.31542387454653836    0.34984384484294745    0.3995489406379175    0.38031677535668745    
  0.28394340989305084    0.23363553303089887    0.16715309532988198    0.22355976786161444    0.3530393507360832    
  0.4106056428002473    0.37281862476243155    0.3392400129532764    0.34623396351945596    0.38314007144898776    
  0.4237110783635754    0.44077498205248267    0.42371110514114607    0.38314005334572376    0.34623394847736527    
  0.339239926058551    0.3728185763485864    0.4106057348566954    0.35303945695402256    0.22355970217204663    
  0.16715309532988198    0.23363558223727726    0.2839435102477164    0.3803167710745428    0.399548868609534    
  0.3498438882398861    0.31542385794886396    0.32168966373710867    0.3574147329712091    0.3971567178842728    
  0.41392566139546266    0.3971568022125073    0.3574147431666891    0.3216895399053328    0.315423901261901    
  0.3498438180732824    0.3995489527925871    0.3803167931262001    0.28394345784232705    0.23363558223727726    
  0.4068784409088708    0.4212961882663351    0.4207937530809843    0.36385864154160147    0.29531312416063454    
  0.2606719553654162    0.2651717599644104    0.2968349220742834    0.3335237941435047    0.3494572412558972    
  0.3335237807504328    0.29683492808840545    0.2651717501559339    0.2606719611960104    0.2953131334368256    
  0.36385864494310577    0.4207936580078767    0.42129617913376893    0.4068784409088708    0.534065641997631    
  0.5032089303455195    0.4184752279706441    0.3163910397956476    0.24114764379450615    0.20803355875050278    
  0.21094498197412342    0.2378219861059302    0.27009163027157623    0.28451073334101457    0.27009172457781283    
  0.2378219526065283    0.21094495889538264    0.20803368382015336    0.2411475884934191    0.316391130227864    
  0.4184752917565944    0.5032089509113529    0.534065641997631    0.5549484783123899    0.5076879778623894    
  0.3974955762195597    0.2861399799471645    0.21189428370414007    0.18013148033187762    0.18223125550224822    
  0.2064211564830026    0.23541946729134047    0.24836999565524662    0.23541948175396227    0.20642117170376922    
  0.18223122295749603    0.18013147968780735    0.21189427054146256    0.2861400463780347    0.39749555815151744    
  0.5076878697629934    0.5549484783123899    0.559680460536925    0.5134003643568151    0.40395409661457865    
  0.29213488591315356    0.21724227822174913    0.1850171643258879    0.18693587638177275    0.21110240584877    
  0.2401462444605892    0.2531344767601043    0.24014624138238627    0.21110240260332994    0.18693591518417138    
  0.18501714918175496    0.21724225028239208    0.2921349939560939    0.40395405488764885    0.5134003192005928    
  0.559680460536925    0.5292110311068854    0.5057843547726949    0.4322656928026236    0.33422722928858994    
  0.258323607346148    0.22391134308884508    0.22634082543612652    0.25290857368427366    0.2844404326735693    
  0.29843842024483713    0.28444048208153727    0.25290861967526007    0.226340731071409    0.22391141020041214    
  0.25832359825882506    0.3342272861832056    0.4322656507484834    0.5057843613173708    0.5292110311068854    
  0.35549034788436534    0.38651528725417966    0.4231381371339438    0.39052229128733745    0.32614631038062925    
  0.2897043126296056    0.29300113812483763    0.32243897051287485    0.35452173120215774    0.36775387165981327    
  0.3545217208225921    0.3224390030916211    0.29300107497545547    0.2897043325025258    0.3261462743305661    
  0.3905223161727283    0.4231381634568528    0.3865152567101327    0.35549034788436534    0.15881464912719348    
  0.2175145678080233    0.35770424133352724    0.42742249194680243    0.39267845538017676    0.35713575128540415    
  0.3606234637922383    0.389707216707301    0.41746106669597766    0.42746554868117725    0.41746106096691754    
  0.3897071234225044    0.3606234672945316    0.3571356649950223    0.3926783963205932    0.427422553500284    
  0.3577042639072294    0.21751452667276047    0.15881464912719348    0.09638433282453772    0.15312327512287296    
  0.31890112846451885    0.43671307227178546    0.4204202194737457    0.386607854659538    0.389929863216358    
  0.41735931170197693    0.4416014223569257    0.4495745706887351    0.44160154814969693    0.4173592640624688    
  0.38992988800274875    0.38660782809464145    0.42042018219521704    0.43671317753762046    0.3189011054081145    
  0.15312326618502384    0.09638433282453772    0.2680437305915018    0.3103237603601651    0.3819658130868138    
  0.3815580721020021    0.3300318693537308    0.30049044377698064    0.3126030693975857    0.35595340486295823    
  0.40501535942292605    0.42648425522369143    0.40501541804419766    0.3559533745522234    0.3126031116555272    
  0.3004904509927686    0.33003186469656    0.3815581984549485    0.3819657828181542    0.31032379094760487    
  0.2680437305915018    0.3249114797806931    0.3557036293811381    0.3951684052001948    0.3688421969069598    
  0.3110143631026337    0.28123372060269225    0.2921172255600067    0.333144497537628    0.37976900957267257    
  0.40008273940163974    0.3797690755019158    0.3331445691078972    0.29211710617536013    0.28123376825459906    
  0.3110143367002874    0.36884226337641896    0.39516842028255506    0.3557035778248065    0.3249114797806931    
  0.447723188972983    0.44367540435612846    0.40812240831682445    0.3339447524264187    0.2665118534009971    
  0.2368610155254694    0.24508901943003067    0.2803575854628312    0.32116682749862413    0.339088283265785    
  0.32116682088673476    0.2803575361633987    0.2450890056081738    0.23686099705461153    0.2665118437604052    
  0.33394475266209683    0.4081224526323466    0.4436753318975708    0.447723188972983    0.5192896966509452    
  0.4836319111563278    0.39393911962420525    0.29412300208363434    0.22398427084136494    0.19523206451574202    
  0.20139805398427352    0.23128522537480864    0.2662167630340237    0.28171946412122667    0.26621683953551156    
  0.23128517144432598    0.20139798325421424    0.19523211723075465    0.2239842636015878    0.29412308910272983    
  0.39393912496448297    0.4836319705882856    0.5192896966509452    0.5301503253530985    0.48457903743961867    
  0.3796227785510645    0.27460050756001164    0.20520964639464825    0.17690702564951435    0.18202324465883402    
  0.2092655936998875    0.24078626937883996    0.25470008630639646    0.2407862689189404    0.20926557463853115    
  0.18202322894733194    0.17690704557943884    0.20520962386425393    0.27460051163943355    0.3796228200457662    
  0.48457902983482026    0.5301503253530985    0.5442964367223087    0.5012418161346298    0.3981615737800725    
  0.29181758547561854    0.22063418880743133    0.19112118308368234    0.19584962983997944    0.22313029855750738    
  0.25478673035130867    0.26879004250001653    0.25478676218614904    0.22313031103448686    0.19584966032867065    
  0.1911211675277235    0.22063416833005886    0.29181764636655017    0.3981614819959598    0.5012418629435667    
  0.5442964367223087    0.5106512392413091    0.4946850565170922    0.4348067088851322    0.34570383285116024    
  0.27366432218420106    0.2415085554492089    0.24657556407778683    0.2754472494585516    0.3076866023796795    
  0.32157864877439774    0.3076865965194583    0.2754472406124854    0.2465755061540901    0.2415085153264286    
  0.2736642662024807    0.34570388680844133    0.4348066855145596    0.49468514718622353    0.5106512392413091    
  0.31284973293355095    0.3547492082773162    0.4204815194992031    0.412174127109336    0.35601784852023277    
  0.3216546903922115    0.3264010028629599    0.3535064984599225    0.37767573136737376    0.3859520503783896    
  0.37767568350574177    0.35350657879626235    0.3264010038593639    0.3216546980831091    0.35601779808354134    
  0.4121742590217198    0.42048152488330437    0.3547491394719546    0.31284973293355095    0.1144688386978495    
  0.17414877372238446    0.34014091891679565    0.4525984577519645    0.435692510372346    0.4030263430686247    
  0.40513375668015367    0.422133998030683    0.42633602837624923    0.4232996339852757    0.426335997456601    
  0.4221339011729136    0.4051336834059694    0.40302637120322843    0.43569242721213836    0.4525985383577337    
  0.3401409787418838    0.1741487159701693    0.1144688386978495    0.06017988943408289    0.11204996619439947    
  0.2947880437715952    0.4613362828395102    0.46872302174987224    0.4386924478612703    0.43894337041382225    
  0.4483543027443621    0.4403318926105497    0.4310527200157222    0.4403318848760425    0.44835432026804467    
  0.43894326925908983    0.438692441145849    0.4687229392500523    0.4613363460977554    0.2947881289895487    
  0.11204991019565584    0.06017988943408289    0.11446883916838563    0.17414878654582872    0.34014099081093735    
  0.45259844193197396    0.4356924355208255    0.4030263260036558    0.4051337035922968    0.4221338589610942    
  0.4263360125983993    0.4232994859627713    0.4263360508315069    0.4221338974641581    0.4051336083900901    
  0.4030263899382043    0.43569238598563964    0.45259854937442734    0.3401409507889006    0.17414875038986594    
  0.11446883916838563    0.31284973535864513    0.3547491386650209    0.4204814527985793    0.4121741897244381    
  0.35601792173382224    0.3216547299095048    0.3264009798700927    0.3535065345983163    0.3776756888938433    
  0.3859520388352037    0.3776756981731848    0.35350645473497616    0.32640091431591256    0.32165470410131736    
  0.3560178520529356    0.4121741668034446    0.4204814115033971    0.35474913161827204    0.31284973535864513    
  0.5106513073595188    0.49468516891257375    0.43480662044983226    0.3457038139288739    0.27366433667765394    
  0.2415085093201784    0.2465755356287412    0.2754473633506189    0.30768655885243434    0.32157864818694193    
  0.30768660508981027    0.2754473087119043    0.24657551754097554    0.2415085547164811    0.2736642705624552    
  0.34570389706737503    0.4348066636958875    0.4946851386286863    0.5106513073595188    0.5442963737835356    
  0.5012419686746562    0.3981615811694923    0.2918176000215067    0.22063414673802806    0.19112116417623215    
  0.19584966314476132    0.22313028842075083    0.25478679923453845    0.26879005660148936    0.2547867434940581    
  0.22313030422740124    0.1958496060088608    0.19112118009021278    0.2206341544463408    0.2918176495518412    
  0.39816157837904215    0.5012419813748032    0.5442963737835356    0.5301503058513101    0.48457904528851803    
  0.3796226956347214    0.27460047774447743    0.20520968120219307    0.1769070319068662    0.18202322511592042    
  0.20926555428809696    0.24078628424347154    0.25470014647347883    0.24078627064666328    0.20926559491122845    
  0.18202324334194045    0.17690702835622277    0.20520963806747927    0.2746005070008184    0.3796226757755493    
  0.48457904937983537    0.5301503058513101    0.51928973669069    0.48363194324247505    0.3939392209045696    
  0.29412300811657766    0.223984271957502    0.1952320457106015    0.20139803048886873    0.23128518538127754    
  0.2662167991165676    0.2817194231146322    0.2662168169210754    0.23128519423891727    0.20139799280853526    
  0.19523213312413396    0.22398427399408338    0.2941230191097082    0.39393918869865335    0.48363198837590854    
  0.51928973669069    0.4477232451835071    0.44367550719933097    0.4081224271534296    0.3339446776282259    
  0.26651186332021876    0.2368609771308771    0.24508905818550067    0.28035753193352114    0.3211668797184389    
  0.33908827642759604    0.32116685407682344    0.2803576156289971    0.24508897125101983    0.23686095687131636    
  0.266511812985001    0.3339447371856153    0.4081224790511634    0.4436753963910114    0.4477232451835071    
  0.3249115472426211    0.3557036773329359    0.3951683338347646    0.36884226577429835    0.31101435513565295    
  0.2812337220728711    0.2921172485196241    0.33314452790287336    0.37976898374585544    0.4000828377531801    
  0.3797689878965909    0.3331444860801391    0.29211722114327776    0.2812336784562369    0.31101430314168255    
  0.368842348595877    0.39516832038189786    0.35570358528521884    0.3249115472426211    0.2680437305915018    
  0.3103237603601651    0.3819658130868138    0.3815580721020021    0.3300318693537308    0.30049044377698064    
  0.3126030693975857    0.35595340486295823    0.40501535942292605    0.42648425522369143    0.40501541804419766    
  0.3559533745522234    0.3126031116555272    0.3004904509927686    0.33003186469656    0.3815581984549485    
  0.3819657828181542    0.31032379094760487    0.2680437305915018    0.431054262974397    0.4232980580553457    
  0.38595353709532476    0.32157731109803905    0.26879124022303374    0.2546989724646036    0.2817206175191394    
  0.3390869493665751    0.4000841433987025    0.4264827790792152    0.4000842103039175    0.3390869455662203    
  0.28172064417496606    0.25469896505811407    0.26879122570726244    0.3215773515788989    0.3859535001935866    
  0.4232980337025982    0.431054262974397    0.4403304702166591    0.42633754950285313    0.3776743644246429    
  0.3076878576002489    0.2547856507758321    0.24078741578711935    0.26621569474490603    0.3211681421408312    
  0.3797676314999753    0.4050169127642083    0.37976769108313607    0.32116821551409236    0.2662155649694025    
  0.24078740308988641    0.25478562983871056    0.30768789519760237    0.3776743421867164    0.4263374310458164    
  0.4403304702166591    0.4483557751815004    0.42213243592677585    0.3535077986963912    0.2754461035212827    
  0.22313140197788958    0.20926453652345026    0.23128633701056212    0.2803563392853067    0.3331457729676038    
  0.35595201929987885    0.33314573593156843    0.28035634202415793    0.23128631954919177    0.20926450094777307    
  0.2231313947623777    0.2754460826144917    0.3535077887876581    0.4221323963620669    0.4483557751815004    
  0.4389418414977802    0.4051350970318416    0.32639961769750514    0.24657665416729607    0.1958485690235383    
  0.18202417858558695    0.2013970068387611    0.24509019902021253    0.2921158345605004    0.3126044377631199    
  0.2921159167994366    0.24509016194040545    0.20139691520879863    0.18202423859500994    0.19584853385759932    
  0.2465767664239745    0.32639962231930925    0.40513514921783184    0.4389418414977802    0.43869399593825714    
  0.40302499746545534    0.32165606646149836    0.24150739068865754    0.19112222740130416    0.1769060341780287    
  0.19523320361072216    0.2368598854096639    0.28123499418871994    0.300489130562772    0.28123493676728956    
  0.23685986078306534    0.1952331573419845    0.17690604893909523    0.19112222856958289    0.2415074003402398    
  0.3216561065246216    0.4030249852689651    0.43869399593825714    0.46872142187947213    0.4356938871173408    
  0.3560165491357301    0.2736655187367377    0.22063308723239758    0.20521069317820342    0.22398317773339343    
  0.2665130535362741    0.311013007993504    0.3300332146789493    0.3110130654912902    0.2665130663478497    
  0.22398319662215066    0.2052107126610442    0.22063304802094058    0.2736655742484189    0.3560164787775817    
  0.4356938770586281    0.46872142187947213    0.46133779122933904    0.4525969430392199    0.4121756213998087    
  0.3457025080034424    0.2918188235634329    0.27459927743034934    0.29412430812813184    0.3339433896937294    
  0.36884356227260034    0.38155676838808605    0.368843562469045    0.3339433900144319    0.29412427727580515    
  0.2745992710750834    0.29181877609631846    0.34570256798259563    0.41217560015366334    0.4525970165631293    
  0.46133779122933904    0.2947867731389972    0.3401423618979509    0.42048005711059905    0.43480815684361734    
  0.39816003684281304    0.3796240864852374    0.39393781576709946    0.4081239413753663    0.39516700571282937    
  0.3819671039569851    0.3951668827337551    0.4081240008836103    0.3939378015220863    0.37962410880847    
  0.39816004341175454    0.4348082827524615    0.4204801073966599    0.34014229441424915    0.2947867731389972    
  0.11205083006649084    0.17414772297706496    0.35475041915304206    0.49468350090954083    0.5012435485415926    
  0.48457740172256825    0.48363358367419945    0.4436740370986321    0.35570494224041377    0.3103225839620666    
  0.35570494992435686    0.44367393074845207    0.48363348351447766    0.48457743422532007    0.5012434827119997    
  0.494683574430325    0.3547505234039355    0.17414768423201887    0.11205083006649084    0.060179201647769444    
  0.11446970921578359    0.31284842616947633    0.5106528713048855    0.5442948650057582    0.5301519219324939    
  0.5192881105692445    0.447724702992913    0.32491011511040097    0.2680449431411332    0.3249101188646618    
  0.4477247403032    0.5192880868939609    0.5301519671625446    0.5442947698077808    0.5106529622026357    