#     DFTpy    
  CRYSTAL 
    
  PRIMVEC    
  5.539793103448275    0.0    0.0    
  0.0    5.539793103448275    0.0    
  0.0    0.0    3.0520689655172406    
  PRIMCOORD    
  4    1    
  Si    0.0    0.0    0.0    
  Si    2.7698965517241376    2.7698965517241376    1.5260344827586203    
  Si    0.0    2.7698965517241376    0.7630172413793102    
  Si    2.7698965517241376    0.0    2.2890517241379307    
  BEGIN_BLOCK_DATAGRID_3D    
  3d_datagrid_density    
  BEGIN_DATAGRID_3D#0    
  25    25    13    
  0.0    0.0    0.0    
  5.539793103448275    0.0    0.0    
  0.0    5.539793103448275    0.0    
  0.0    0.0    3.0520689655172406    
  0.06601502493243332    0.11460024667107195    0.2764968013219561    0.40374703173844717    0.34892908954470353    
  0.24718401421161412    0.1909353397660807    0.1837288175797915    0.21703655946983624    0.28058835469445786    
  0.3465537808704741    0.3833163797289065    0.3917396974242819    0.3833167151387341    0.3465532686418575    
  0.2805890403373815    0.21703598471515287    0.18372945335536728    0.19093465133591458    0.24718475534911943    
  0.34892826919934605    0.40374788375091136    0.27649646532189837    0.1146003542757845    0.06601502493243332    
  0.11460032110503547    0.16943076095401124    0.31866229320966627    0.4018841720511126    0.33022532448597036    
  0.2325311763413268    0.18020021918307683    0.17350632483409437    0.20457410159659084    0.2644129381590011    
  0.3291519692314894    0.36971858130104934    0.3810755295030132    0.3697182935883636    0.32915235402180953    
  0.264412329041591    0.20457479306199808    0.173505687661815    0.18020091795374615    0.2325304374752366    
  0.3302260501227085    0.4018834728791875    0.31866275396391025    0.16943058923240048    0.11460032110503547    
  0.27649674471546876    0.3186623869881683    0.38878155359161015    0.372288283524426    0.278587675888532    
  0.19501442186947848    0.15283231471385372    0.14745521243107496    0.17261287080350782    0.2219321051694941    
  0.27954608612699994    0.32265177848472476    0.33766588926515473    0.3226519876949516    0.27954558093170995    
  0.2219326980861523    0.17261233349766714    0.14745582113891015    0.15283164795526455    0.19501519159934166    
  0.27858682070441565    0.3722890007149939    0.38878108886846763    0.3186626271867397    0.27649674471546876    
  0.4037473986749665    0.4018838670989742    0.37228833584135795    0.2973867832197467    0.2113946525107508    
  0.14981766425703613    0.11972604752126279    0.11580714836434892    0.1335661794208086    0.16869819773733355    
  0.21178813346945183    0.24718912901481446    0.2606217185466059    0.24718894237144015    0.2117885035670637    
  0.16869765672573314    0.13356674584515812    0.11580658050298849    0.11972663183120344    0.14981702881360448    
  0.211395251071251    0.29738620628322504    0.37228886278865386    0.40188358994988443    0.4037473986749665    
  0.3489287066470671    0.3302255551345606    0.27858749415937134    0.21139475614128453    0.151291520733219    
  0.11076528269709278    0.09075127223976243    0.08789016326846763    0.09918658517650318    0.12147083120227131    
  0.1490636443214245    0.1723533295819636    0.18140899983741515    0.17235350086762588    0.14906324090731085    
  0.12147125701206386    0.09918611086044932    0.0878906592603413    0.09075073258960684    0.11076582764492769    
  0.15129093991834958    0.21139528650919034    0.2785870339330852    0.33022580610141716    0.3489287066470671    
  0.2471844269802641    0.23253091447356458    0.19501460114292085    0.14981756935036966    0.1107653186524132    
  0.084260706117681    0.07074497770474623    0.06840855079191407    0.07527513181544634    0.08900158627409517    
  0.10583286086137057    0.1200374579669194    0.12562729778277731    0.12003729748398798    0.10583312227904203    
  0.08900123175279319    0.07527556484965467    0.06840812307012863    0.07074540244852176    0.08426023778268228    
  0.11076580540531553    0.1498171709437946    0.19501494193658034    0.2325307312835423    0.2471844269802641    
  0.19093503370927267    0.1802004203242231    0.15283212632355267    0.11972615021134103    0.09075118663392047    
  0.0707449500255786    0.06024322189939241    0.05791925649128113    0.06224741847755643    0.07144120246279193    
  0.0826849514189894    0.09213435818454499    0.09589292993183111    0.09213448902483377    0.08268469467014926    
  0.07144153998768972    0.062247061765100455    0.05791966056617253    0.0602427969908926    0.07074540848217493    
  0.09075072488611945    0.11972658396756598    0.15283179427414326    0.1802006456442942    0.19093503370927267    
  0.18372918609593744    0.1735060711753393    0.14745539769089147    0.11580704614053888    0.0878902183638348    
  0.06840853120854262    0.05791928349202812    0.05510494046506392    0.05837004577129417    0.0659663530651717    
  0.07538854948316978    0.08332789900240074    0.08648957892343473    0.08332778220170664    0.07538873909059086    
  0.06596603271935346    0.05837041284583228    0.055104569663651085    0.0579196852557323    0.06840809297100484    
  0.08789063034009184    0.11580663632445903    0.14745570776905856    0.17350588108388984    0.18372918609593744    
  0.21703626440861265    0.2045744173409274    0.1726126828198652    0.13356632180875638    0.0991865519412524    
  0.07527514107223886    0.06224746212366783    0.058370042413857195    0.061588388114205646    0.06978059998888612    
  0.08020883219150303    0.08903062410657835    0.09249607214946501    0.08903076071716388    0.08020857126166928    
  0.06978094409926759    0.061588030823907965    0.05837045497949574    0.06224701573947105    0.07527564235304514    
  0.09918603878403709    0.1335668143526469    0.17261237125103718    0.20457462436096271    0.21703626440861265    
  0.28058871554248754    0.26441255857339385    0.22193225331793365    0.16869805275439248    0.12147084049529434    
  0.08900156655195403    0.07144117742263416    0.0659663582402196    0.06978055155229222    0.08016213504932991    
  0.09368091918268943    0.10525060117908995    0.1097723527137277    0.1052504457459482    0.09368117580539072    
  0.08016174206527772    0.06978097588944052    0.06596593922178065    0.0714416393952568    0.0890010565137447    
  0.1214713618359627    0.16869759109009058    0.2219326192532427    0.26441236044738553    0.28058871554248754    
  0.3465535206326412    0.32915220797748496    0.2795459566283317    0.2117882679945004    0.14906364857730972    
  0.10583282318254061    0.0826850267244449    0.07538847160907367    0.08020888895628882    0.09368094344705202    
  0.11142213277395557    0.12681074656807118    0.1328879716792992    0.12681088963377768    0.11142182896145587    
  0.09368129244353708    0.0802084655385433    0.0753889433428965    0.08268453277086471    0.10583336867753317    
  0.14906305773701709    0.21178879325281308    0.2795455835229503    0.3291524468510352    0.3465535206326412    
  0.38331676967495965    0.3697183668724937    0.3226517634157792    0.2471891404924741    0.17235324573023864    
  0.12003752268715226    0.09213430037236732    0.08332797990521328    0.08903049457866753    0.10525069251546765    
  0.12681070213135145    0.14572732953862907    0.15328403753352282    0.14572712218125916    0.12681098664737653    
  0.10525032800669658    0.08903093800813747    0.08332753825905037    0.0921348029698935    0.12003696796966666    
  0.17235380023025862    0.24718866678950113    0.32265223669705295    0.36971808291337865    0.38331676967495965    
  0.3917395899879386    0.3810755802885694    0.33766585619242867    0.26062166059949116    0.18140912313211505    
  0.12562713876356046    0.09589306421674766    0.08648943920957604    0.09249620922662634    0.1097722487573317    
  0.13288800391250907    0.15328392724668083    0.16146939051741635    0.15328417664688757    0.1328877047326003    
  0.10977265953702499    0.09249578324322452    0.08648992219313349    0.095892535735852    0.12562769865122245    
  0.18140853667579462    0.2606222648824944    0.33766537570551636    0.38107583415474283    0.3917395899879386    
  0.38331687835534795    0.3697182465307259    0.3226519117895728    0.24718911273645616    0.17235329959993037    
  0.12003748278693666    0.09213432858873362    0.08332795911686608    0.08903048248390213    0.10525069181901736    
  0.12681073240731017    0.14572726262782823    0.1532840151584887    0.1457271075978213    0.12681097881011966    
  0.10525029633406309    0.08903095953945596    0.0833275075266569    0.09213482131575286    0.12003693613049894    
  0.17235383111669225    0.24718856769535694    0.3226523461170942    0.36971805427879945    0.38331687835534795    
  0.3465534685873466    0.3291523028126409    0.27954583480320316    0.21178833879788914    0.14906357275355533    
  0.10583285994025877    0.08268499537556391    0.07538852966879593    0.08020881930926503    0.09368099545467623    
  0.11142208057312243    0.12681083054192807    0.13288788206600385    0.1268109998665095    0.11142173979260966    
  0.093681334790168    0.08020843810512202    0.07538897022167448    0.0826844684390834    0.10583341724466414    
  0.14906297220804596    0.21178889985234695    0.279545468510787    0.32915258784814616    0.3465534685873466    
  0.2805888304765039    0.2644124075318295    0.22193237908895314    0.16869794731741186    0.1214709308406144    
  0.08900149990722994    0.0714412268972274    0.065966304331601    0.06978059880907073    0.08016206654519706    
  0.09368098966246474    0.10525052599615183    0.10977243476126841    0.10525038559094434    0.09368125757421905    
  0.0801617088592111    0.06978103933330122    0.06596587378603633    0.07144169099438072    0.0890009925361213    
  0.12147141685826744    0.16869748960392794    0.22193276474168466    0.26441224439412647    0.2805888304765039    
  0.21703608531513827    0.20457453926888805    0.17261261158961197    0.1335664545009089    0.09918644037558336    
  0.07527523991376119    0.062247379923879055    0.05837011258711312    0.061588312381655304    0.06978068240254873    
  0.0802087626014948    0.08903069947062629    0.09249596890415933    0.08903081100867852    0.08020848136856464    
  0.06978100765937235    0.06158793270624019    0.05837053328313926    0.06224695052774166    0.07527569843111628    
  0.09918595250701537    0.13356690855884154    0.17261223611416598    0.20457471002980848    0.21703608531513827    
  0.18372933450548648    0.17350591655713865    0.14745548901572417    0.11580693063517379    0.08789031294912557    
  0.0684084385856199    0.05791936529911931    0.055104878406964396    0.0583701298893373    0.06596624954480641    
  0.0753886249237018    0.08332781625669208    0.08648970351881648    0.08332765715655872    0.07538883648038444    
  0.06596595056471653    0.058370510089890915    0.05510447605569892    0.05791975293870984    0.06840800577889616    
  0.08789074957775753    0.11580655251942602    0.1474557926349431    0.17350577619142324    0.18372933450548648    
  0.1909348894076497    0.18020061398056592    0.1528319582309767    0.11972625781162283    0.09075108630920556    
  0.07074505586427574    0.06024312827546038    0.05791935521541079    0.06224733398052667    0.07144130039456058    
  0.0826848601810642    0.09213447790173643    0.09589281920822089    0.09213462209825093    0.08268456951069934    
  0.07144161968930815    0.06224697667718589    0.057919754290286625    0.06024270210022781    0.07074551426556612    
  0.09075061298817816    0.11972671183272467    0.1528316857598891    0.18020081160032766    0.1909348894076497    
  0.24718456233678737    0.2325307630925252    0.19501478797238284    0.14981744906039082    0.1107654502292323    
  0.08426059381419095    0.07074507001417984    0.0684084427231233    0.07527522222546441    0.08900147200572078    
  0.10583299177270636    0.1200373025226057    0.12562741877951678    0.1200371957026781    0.10583322925410324    
  0.08900111714897344    0.07527564199158537    0.06840802660364607    0.0707455159585105    0.08426011663192809    
  0.11076592728038763    0.14981697397315044    0.19501516058218812    0.23253055042017964    0.24718456233678737    
  0.3489285781988332    0.3302257895449151    0.27858725449128624    0.21139487909033908    0.15129142361409986    
  0.11076537350139003    0.09075116038259402    0.08789024621438564    0.09918647725085797    0.12147096023528445    
  0.149063488104497    0.17235343895546454    0.18140890960589795    0.17235363566689849    0.14906314034468346    
  0.12147133949198265    0.09918602039560577    0.08789076042553075    0.09075063390180965    0.11076596090026386    
  0.1512907870088353    0.21139548170478656    0.2785868474715176    0.3302260481821265    0.3489285781988332    
  0.40374758223907714    0.4018837310196552    0.3722885036174007    0.2973866451738449    0.21139476483095804    
  0.1498175463224238    0.11972613154152349    0.1158070573097066    0.13356626794034532    0.16869805375119856    
  0.21178828290290974    0.2471889497591071    0.26062183882269946    0.24718881065015755    0.2117886364287666    
  0.16869755144773346    0.13356685116456798    0.11580649091824048    0.11972670564785838    0.1498169071437121    
  0.21139542198807967    0.297386080665867    0.37228893550987513    0.40188338999230816    0.40374758223907714    
  0.27649661264008735    0.3186624607460064    0.3887815548333166    0.37228844725396865    0.27858754356584114    
  0.19501452925571883    0.15283225745539658    0.14745526221971575    0.17261283610644443    0.2219322354729466    
  0.27954603373494824    0.32265183603868164    0.33766583707590414    0.3226521019292359    0.2795455591417758    
  0.22193274227491697    0.1726122281158087    0.14745590541635364    0.15283160626213543    0.19501523423402475    
  0.2785867560032324    0.3722890822666325    0.388781007311599    0.31866270642988476    0.27649661264008735    
  0.1146003736209346    0.1694307212633845    0.31866226829510425    0.40188407943775867    0.3302253828346949    
  0.23253115563261903    0.1802002983622467    0.17350626900683863    0.2045741531696199    0.2644128428753401    
  0.3291519960775711    0.369718523556811    0.3810756703061418    0.3697182570919248    0.32915235831839923    
  0.26441231310192026    0.2045748581058837    0.1735056362196813    0.180200932165833    0.23253041336893604    
  0.3302261089106788    0.401883482846595    0.31866276417349226    0.1694305438215627    0.1146003736209346    
  0.06601502493243332    0.11460024667107195    0.2764968013219561    0.40374703173844717    0.34892908954470353    
  0.24718401421161412    0.1909353397660807    0.1837288175797915    0.21703655946983624    0.28058835469445786    
  0.3465537808704741    0.3833163797289065    0.3917396974242819    0.3833167151387341    0.3465532686418575    
  0.2805890403373815    0.21703598471515287    0.18372945335536728    0.19093465133591458    0.24718475534911943    
  0.34892826919934605    0.40374788375091136    0.27649646532189837    0.1146003542757845    0.06601502493243332    
  0.12564281973573205    0.18063147114728456    0.323906779633702    0.39446937698938866    0.31556483686006803    
  0.21393621516577901    0.1559113273058626    0.1386679480861869    0.15144497520173558    0.18690909358206528    
  0.23340862101939538    0.27265825839916363    0.28787825016119406    0.2726580674131199    0.23340900421739377    
  0.18690860339866053    0.1514455883358578    0.13866729646291984    0.1559119729160988    0.21393550000254363    
  0.31556555967664135    0.3944687460695506    0.32390718695023785    0.1806313235010275    0.12564281973573205    
  0.1812345256969136    0.23524820443268227    0.3546339597120422    0.3874411184880861    0.298683078972258    
  0.2020037512888209    0.1479324823279677    0.1318487540480722    0.14378084127368382    0.17675627135721736    
  0.22003432101190956    0.25691789385876534    0.2713680469550948    0.2569181499210203    0.2200338676745305    
  0.1767567517588658    0.14378032992232231    0.1318493740988283    0.14793183112681607    0.20200451082844384    
  0.298682264513731    0.3874418676674849    0.3546335214776213    0.23524849291458888    0.1812345256969136    
  0.32854378002306445    0.3585486865048896    0.3945735343839753    0.35080945054191986    0.2528132018520255    
  0.17136327635436482    0.127498575499658    0.11439632972268837    0.12409974033401566    0.15070422747850695    
  0.18569121288342288    0.2159384941326805    0.22792934404328755    0.21593828711633326    0.18569147596214475    
  0.15070378239193422    0.12410030223798102    0.11439578702149314    0.12749913950158004    0.17136265995223737    
  0.2528138153560846    0.35080885211285384    0.39457403869500834    0.3585484890238654    0.32854378002306445    
  0.4086302335449616    0.4001097947040012    0.3585110007730131    0.2786936446915241    0.1944579132303465    
  0.13444358379830415    0.10264971883785305    0.09301524004415036    0.09997451663037811    0.11897290950412474    
  0.1439083865515082    0.16548462966248795    0.17400471108849136    0.16548484094303667    0.14390805704048876    
  0.11897328616777746    0.09997411616274932    0.09301574473966326    0.1026491626404074    0.13444415115574587    
  0.1944572928975282    0.2786942642437076    0.3585105727956037    0.40011001860956297    0.4086302335449616    
  0.341248483087008    0.3218484415476531    0.26943109060108966    0.20262562124762892    0.1433642180569684    
  0.10277927849912565    0.08096780280229708    0.07414327551111004    0.07868985755169987    0.09127556974768762    
  0.10765879488571398    0.12171077601903989    0.12722427761439642    0.12171063137422891    0.10765901574878056    
  0.09127519952006335    0.07869028573852961    0.07414280941448803    0.08096829562317556    0.10277875521112097    
  0.14336476365822765    0.2026250867429728    0.26943141817943833    0.3218482445885246    0.341248483087008    
  0.2528631864342091    0.23750565751612188    0.1983869092188921    0.15125776343303374    0.11029475480631357    
  0.08201515740590416    0.06651857361023923    0.06142100654783629    0.06426407231618263    0.07267925637849079    
  0.08360078915887037    0.09288520435883234    0.09653287839763307    0.092885317220045    0.08360053217061438    
  0.072679593279054    0.06426369749934448    0.0614214434565694    0.06651808722745417    0.08201565738229524    
  0.11029427517780117    0.15125827456495192    0.19838650962954027    0.2375058746622959    0.2528631864342091    
  0.21349133964509667    0.20093592797295745    0.16908582967197044    0.13062504639725367    0.096853284724962    
  0.07328565717740593    0.06024391171349678    0.0557301611889462    0.057653170062950225    0.0641247451070678    
  0.07259903744124802    0.07978729333001455    0.08262478106601348    0.07978718445769849    0.07259924779470806    
  0.06412443604236645    0.05765357364482107    0.05572974619504006    0.06024433573418823    0.07328521676338086    
  0.09685373061727733    0.13062463969585997    0.16908617896810968    0.20093576930596221    0.21349133964509667    
  0.2278536494936666    0.21427098108653264    0.17973287324642795    0.13803600468881577    0.10151985972774005    
  0.07602729133165206    0.061802618441822735    0.056714332718626415    0.05846876500143652    0.0649305445629733    
  0.07349147379275833    0.0807929385225883    0.08367751389251181    0.0807930878221509    0.0734912147490363    
  0.0649308437192748    0.05846840208972835    0.05671477496515889    0.061802180359135275    0.07602775185180814    
  0.10151938050289697    0.13803642468130645    0.17973255352691378    0.2142711892882423    0.2278536494936666    
  0.2907743764178285    0.27345412182687096    0.22821564262649408    0.17232831009378646    0.12328919176936513    
  0.08938984922963342    0.07055448216959602    0.06374741937592844    0.06585502134368366    0.07400686626422166    
  0.08495738103689152    0.09439620778898523    0.09811302807684699    0.09439606846363645    0.08495762028577485    
  0.07400654313595041    0.06585541988693033    0.06374698993965751    0.07055492615759354    0.08938940152660318    
  0.12328963912997987    0.1723278685748388    0.22821599040252313    0.2734539737257779    0.2907743764178285    
  0.3729202510585645    0.3556240223498636    0.30345517713060005    0.22928777158253016    0.15979424452775043    
  0.11149829445035096    0.08507179010148172    0.07554721061543122    0.07834661699631097    0.08958885057811901    
  0.10492232651883958    0.11832955806606886    0.1236418515646217    0.11832972329616435    0.10492202987843001    
  0.08958920803920005    0.07834621061595423    0.07554768500970503    0.08507129746539337    0.11149884049188254    
  0.15979364105924831    0.22928836766898575    0.3034547567500616    0.35562424785844565    0.3729202510585645    
  0.39773658489173963    0.3966199812075447    0.3681673393185616    0.29219399383798683    0.20316622662286196    
  0.1376737628045673    0.10197205677194464    0.08923819502159791    0.09297295075864116    0.10815132779156135    
  0.1290295993794043    0.14752564717072636    0.15496048488616265    0.147525478260964    0.12902985544438264    
  0.10815090836039115    0.09297339222461885    0.08923775615138525    0.10197257451164418    0.1376732040480917    
  0.20316680986131874    0.29219332454183833    0.3681678636171683    0.3966198010269147    0.39773658489173963    
  0.3458766090046685    0.36918323316690904    0.38988362571665913    0.3365878712657687    0.23871359291688798    
  0.1595203839963293    0.11592609646767897    0.10047558955402963    0.10498301017176351    0.12356515288668952    
  0.1493581965236778    0.1723884939957724    0.18171877349877497    0.17238860755318444    0.14935783667660837    
  0.1235655771105355    0.10498254589355648    0.10047614408665796    0.11592546556051947    0.15952101836161411    
  0.2387128202344987    0.3365884896872304    0.38988322226783706    0.3691834647497157    0.3458766090046685    
  0.3108600147827886    0.344124656874483    0.38897146721144404    0.35108016370767986    0.252234299531135    
  0.16806317413569297    0.12141946047518483    0.1048966466717664    0.10965284725146375    0.1295371682160209    
  0.15731114113850436    0.18218058202551873    0.19226430510802345    0.18218042032561765    0.15731146105105637    
  0.12953675219909594    0.10965333267181862    0.10489614296076764    0.12142005616808366    0.16806253880434122    
  0.25223502997913677    0.35107953103814243    0.38897189163669965    0.3441244633003645    0.3108600147827886    
  0.34587656000375006    0.3691832574979054    0.3898836360061314    0.3365879098096392    0.23871355038803393    
  0.1595203892047877    0.11592603268717501    0.10047561433572325    0.10498296402513083    0.12356517828994766    
  0.14935817243446603    0.17238845530457103    0.18171866210185947    0.17238867646161568    0.14935776228778924    
  0.12356555646462536    0.10498254680248764    0.10047617065149395    0.11592543308522361    0.15952105080793558    
  0.23871282525232831    0.33658856653545033    0.38988315590230677    0.3691835038123366    0.34587656000375006    
  0.3977367375696402    0.396619950953565    0.3681674020482597    0.29219384665460924    0.20316632106052665    
  0.13767375182365132    0.10197211735387599    0.0892381524229508    0.09297299442250141    0.10815129265949841    
  0.12902964411077378    0.14752560579879026    0.15496051617440829    0.14752543936774096    0.12902988463037307    
  0.10815085542363208    0.09297347122519053    0.08923766050887899    0.10197265266275318    0.13767314138312428    
  0.2031668620597041    0.292193274983987    0.3681679126872283    0.39661971342875196    0.3977367375696402    
  0.3729201160636614    0.3556241285297968    0.3034551194902699    0.22928793312424056    0.15979411697393633    
  0.11149839119770867    0.08507170062433818    0.07554729020528697    0.07834653854252624    0.0895889240201778    
  0.10492220576327058    0.11832968029023812    0.12364177344457612    0.11832984264333075    0.10492194001791368    
  0.08958928855206325    0.07834616018259845    0.07554775462199596    0.08507120380512803    0.11149891880264404    
  0.15979355857246563    0.22928847736474017    0.30345465059520965    0.35562442784756854    0.3729201160636614    
  0.29077450026008816    0.273453916598232    0.2282158188537093    0.17232820990445216    0.12328926744639329    
  0.08938976010612867    0.07055455571547865    0.06374732551377804    0.06585509093868307    0.07400677524288285    
  0.08495750317757618    0.0943960766912125    0.09811309429778811    0.0943959242758152    0.08495771339437042    
  0.07400646421396598    0.06585550251345805    0.06374691009578176    0.07055502373706558    0.08938925089465323    
  0.12328978038255381    0.17232772963934606    0.2282162152851192    0.2734537461954068    0.29077450026008816    
  0.22785345405715046    0.2142711431267468    0.17973272703600812    0.1380361457731912    0.10151974347180745    
  0.07602739293064902    0.06180252925785177    0.056714443786637876    0.05846868901370283    0.06493062779775513    
  0.07349135195820082    0.08079308265647371    0.08367743140774524    0.08079315999015756    0.07349112049260402    
  0.06493093898452858    0.0584683246108071    0.056714863194274795    0.06180205692987143    0.0760278734248474    
  0.10151926581673025    0.13803659399808632    0.17973236063097048    0.21427138328068118    0.22785345405715046    
  0.21349151675159278    0.20093581555408344    0.1690859411419445    0.130624910986357    0.09685340046367143    
  0.07328555696261106    0.060243993100506626    0.055730072984947844    0.0576532701732708    0.0641246469786057    
  0.07259911739469253    0.07978720199042123    0.08262485859884626    0.07978707375960867    0.07259935101112155    
  0.0641243340410807    0.0576536683739606    0.055729649916382754    0.06024442833864095    0.07328511423425162    
  0.09685384159216709    0.1306245377327632    0.16908631069485833    0.20093563819707433    0.21349151675159278    
  0.25286302203718997    0.2375058602381224    0.19838677658915402    0.15125791065636307    0.11029466063617172    
  0.08201525109851265    0.06651847975093057    0.06142108798369914    0.06426397006766871    0.07267933717372416    
  0.08360072146310722    0.09288529608896409    0.09653279536150745    0.09288543418229106    0.08360042051670687    
  0.07267967704879037    0.06426360032703493    0.06142153149294274    0.0665180218595808    0.08201574360796132    
  0.11029414564902788    0.15125836111881089    0.1983863912742756    0.23750604674965325    0.25286302203718997    
  0.3412486796459753    0.3218483752952069    0.2694311508410399    0.20262546658205915    0.14336436275798858    
  0.10277918277373793    0.08096789892029863    0.07414318463140869    0.07868994700519069    0.09127548469859408    
  0.1076588573212515    0.12171070656460986    0.12722441720403632    0.12171055507553402    0.10765911847112429    
  0.09127510562041016    0.07869038288177672    0.07414274148612673    0.08096836497928211    0.10277869398485444    
  0.1433648347930198    0.20262502664444104    0.2694315507466559    0.3218481672892505    0.3412486796459753    
  0.40863010013247036    0.40010993513803533    0.35851085094212953    0.27869375586361533    0.19445780201078408    
  0.13444364480789578    0.10264962369384678    0.09301533120754965    0.09997442856135297    0.11897297297600974    
  0.1439083310357306    0.1654847041373531    0.1740046129073786    0.16548488998223115    0.1439079626656885    
  0.11897336409557656    0.09997399095859072    0.09301582556833798    0.1026490865834463    0.134444220051961    
  0.1944571793414694    0.2786944053161862    0.3585103547427582    0.400110108506766    0.40863010013247036    
  0.328543846936487    0.3585486630216442    0.3945736834541801    0.35080937969349746    0.2528132092339737    
  0.17136322476696503    0.12749864603363414    0.1143962616328911    0.12409981492473064    0.15070417887010562    
  0.18569132770082694    0.21593836525302973    0.2279294765946065    0.2159382206823393    0.1856916024684962    
  0.15070372505928542    0.12410036447420389    0.11439572602045504    0.12749924550626718    0.1713625457285999    
  0.2528139132969303    0.35080876945314604    0.39457416453767363    0.3585483870903268    0.328543846936487    
  0.1812344585888763    0.23524829777778952    0.35463377183162204    0.38744114218394643    0.29868299319791813    
  0.20200383301540953    0.14793245862693624    0.1318488000214204    0.1437808086470108    0.1767562930215002    
  0.22003428411384326    0.2569179903401797    0.27136808147968927    0.25691818648991044    0.2200337772170503    
  0.17675683033529727    0.14378030790301854    0.13184941954273588    0.1479317313386875    0.20200458136585528    
  0.2986822383185606    0.38744191951188434    0.3546334048286213    0.23524848224210185    0.1812344585888763    
  0.12564281973573205    0.18063147114728456    0.323906779633702    0.39446937698938866    0.31556483686006803    
  0.21393621516577901    0.1559113273058626    0.1386679480861869    0.15144497520173558    0.18690909358206528    
  0.23340862101939538    0.27265825839916363    0.28787825016119406    0.2726580674131199    0.23340900421739377    
  0.18690860339866053    0.1514455883358578    0.13866729646291984    0.1559119729160988    0.21393550000254363    
  0.31556555967664135    0.3944687460695506    0.32390718695023785    0.1806313235010275    0.12564281973573205    
  0.31085982374063914    0.34412457102735133    0.3889717376017896    0.3510795926583847    0.2522349316444008    
  0.1680625520971061    0.12142002242088785    0.10489613591172485    0.10965333856812018    0.12953672608594627    