#     DFTpy    
  CRYSTAL 
    
  PRIMVEC    
  5.916827586206897    0.0    0.0    
  0.0    5.916827586206897    0.0    
  0.0    0.0    5.916827586206897    
  PRIMCOORD    
  8    1    
  Si    0.0    0.0    0.0    
  Si    1.4792068965517242    1.4792068965517242    1.4792068965517242    
  Si    0.0    2.9584137931034484    2.9584137931034484    
  Si    1.4792068965517242    4.437620689655172    4.437620689655172    
  Si    2.9584137931034484    0.0    2.9584137931034484    
  Si    4.437620689655172    1.4792068965517242    4.437620689655172    
  Si    2.9584137931034484    2.9584137931034484    0.0    
  Si    4.437620689655172    4.437620689655172    1.4792068965517242    
  BEGIN_BLOCK_DATAGRID_3D    
  3d_datagrid_density    
  BEGIN_DATAGRID_3D#0    
  27    27    27    
  0.0    0.0    0.0    
  5.916827586206897    0.0    0.0    
  0.0    5.916827586206897    0.0    
  0.0    0.0    5.916827586206897    
  0.06555037221217191    0.11273448382610776    0.2708850904309091    0.3982357357862443    0.3373944176554512    
  0.2151756758523042    0.12881791171589832    0.08081471979835506    0.05571567757234118    0.0427202577769287    
  0.03587653214105599    0.03228793338401551    0.030581725488352352    0.03007479937879724    0.030581725671400405    
  0.03228788176448507    0.035876540218878435    0.04272023810527292    0.05571570457619444    0.08081471160883494    
  0.128817926299131    0.21517573273175178    0.3373945357045931    0.3982356685489695    0.27088514299539    
  0.11273445270378914    0.06555037221217191    0.11273444240858517    0.16660674515187104    0.3160761171807124    
  0.40433709001303453    0.3276374869914288    0.20947765343941452    0.1274749205573194    0.08133333428565587    
  0.05676209038101222    0.04377524759810036    0.03675765776503437    0.03298382512968819    0.0311385703177983    
  0.030581695831399837    0.03113855121732629    0.032983848786833095    0.036757639998872785    0.04377526967041916    
  0.05676209278518875    0.08133336519292436    0.12747491193040766    0.20947762771680395    0.32763752261357676    
  0.4043372083825655    0.316076056232969    0.16660680305781453    0.11273444240858517    0.2708850521421843    
  0.31607594277828166    0.39800124482304283    0.3939298532312436    0.29634496387044473    0.19363000230464755    
  0.12390402836943774    0.08301402376205205    0.05999617692357328    0.04702391019585164    0.039510356989056625    
  0.03520664798599007    0.032983815320910714    0.03228788962174916    0.03298383256140101    0.035206618631375766    
  0.03951033988510148    0.047023877128381124    0.05999618497196447    0.08301399900972685    0.1239040222831526    
  0.19363000805013614    0.2963449374004632    0.3939297626776318    0.39800134209445637    0.31607596858205467    
  0.2708850521421843    0.39823563401569895    0.40433721248634336    0.3939298638094865    0.33376349190600346    
  0.24704261422101892    0.17146650458026524    0.11903755573700886    0.08585581274391048    0.06541626313582219    
  0.05266966598667235    0.04454151202198857    0.03951033862681443    0.036757641662959126    0.0358765262585669    
  0.03675765224634094    0.03951034589303555    0.044541498123730754    0.05266969549895316    0.06541619997590746    
  0.08585586445002072    0.11903754876186126    0.17146649095384264    0.2470426549077276    0.33376366907563654    
  0.39392982425326156    0.4043371234110652    0.39823563401569895    0.3373945435785377    0.32763740899036137    
  0.2963450243926914    0.24704262544228592    0.1935456165026075    0.14783288440180054    0.11362592991493808    
  0.0895794359803378    0.07289501554629516    0.06107129218492533    0.05266967168249933    0.047023882203810236    
  0.043775272304061676    0.042720202655474486    0.04377527573688779    0.04702388149012948    0.052669711482062315    
  0.06107133535898925    0.07289500725255053    0.08957941218425328    0.11362592474675662    0.14783284778044398    
  0.1935455991845555    0.24704261483941073    0.29634500050173984    0.32763749300741    0.3373945435785377    
  0.21517564576237486    0.20947771487114886    0.19363002935124995    0.17146654709458814    0.14783288391247673    
  0.1262342565492815    0.10827747372126839    0.09395585463073108    0.08237943867857196    0.07289505097604612    
  0.06541625568610726    0.05999619203075761    0.05676206917466685    0.05571571947428298    0.05676210552036598    
  0.05999619350777243    0.06541621891004726    0.07289498704703869    0.08237942326516329    0.09395584019894855    
  0.10827754991411213    0.1262342586948298    0.1478328772040001    0.17146659121348212    0.1936300124371387    
  0.20947772010304982    0.21517564576237486    0.1288179235175185    0.12747487894578693    0.12390403582850867    
  0.1190375571179458    0.11362592776006435    0.10827750203026934    0.1033415150955938    0.09863572613417375    
  0.09395585494557322    0.08957934627490052    0.08585588450478707    0.08301398131341871    0.08133337263159438    
  0.0808146566377273    0.0813334363276271    0.0830139956034352    0.08585588914181567    0.0895793953265007    
  0.09395582840647188    0.09863564587200464    0.10334159242326886    0.10827747500922985    0.11362596444066125    
  0.1190374752814275    0.12390403478072377    0.12747486039395126    0.1288179235175185    0.08081463924409726    
  0.08133342764812647    0.08301398990773931    0.08585589071374838    0.08957942282123386    0.09395578694698573    
  0.09863573232205125    0.10334152683021512    0.10827749128955681    0.11362595177705942    0.11903758638292422    
  0.1239039895457511    0.12747485754150747    0.12881792480028723    0.12747489501635248    0.1239040086290584    
  0.11903755874997557    0.11362594916782705    0.1082774999951127    0.10334155262738771    0.09863571629748893    
  0.09395579565845663    0.08957941673042308    0.08585589291919618    0.08301400124483052    0.08133340558685022    
  0.08081463924409726    0.055715720286557725    0.05676206662060505    0.059996203824380465    0.06541624891615487    
  0.07289505399604788    0.08237943132198733    0.09395584611608773    0.10827755951810061    0.12623425879556227    
  0.14783283316351753    0.1714665606910451    0.19363006685660616    0.20947768262763444    0.21517568321828717    
  0.20947771370883853    0.1936299290752682    0.1714666219532565    0.14783283606122838    0.12623427987419114    
  0.10827750086553659    0.09395584289937092    0.08237941684332223    0.0728950554032973    0.06541622009726461    
  0.059996232037696766    0.056762097928864455    0.055715720286557725    0.0427201909486362    0.04377529574645893    
  0.04702388301685494    0.05266972971870397    0.06107128983718532    0.07289500967293776    0.08957942782273245    
  0.11362594119727254    0.14783291058861786    0.19354558145059306    0.24704260686393645    0.2963449732241073    
  0.32763743368847825    0.3373944783649056    0.3276374892221709    0.29634501227535304    0.24704260774597872    
  0.19354560775062982    0.14783279061472074    0.11362594284430642    0.08957938363317362    0.07289506108325715    
  0.06107129196877562    0.052669700250209    0.04702386913800811    0.043775281558926356    0.0427201909486362    
  0.03587656702156819    0.036757615141518506    0.03951037374918738    0.044541463983742605    0.05266973038735134    
  0.06541620971244269    0.08585582251310106    0.11903752663175818    0.17146653501297487    0.24704258014377375    
  0.3337636337381206    0.393929933714525    0.40433715218182076    0.398235708472762    0.4043371185817216    
  0.3939298710299746    0.33376370163630625    0.2470426191198834    0.17146658754505423    0.11903751364590484    
  0.08585590176769563    0.06541620476055329    0.052669714835009304    0.044541494647974356    0.03951040000129711    
  0.03675761491424727    0.03587656702156819    0.032287881942201516    0.03298385200408717    0.035206597657970726    
  0.039510339868214873    0.04702386101623265    0.059996185212104994    0.08301399625194474    0.12390401275183016    
  0.1936300441654183    0.29634495312313985    0.39392973468674064    0.3980014170128178    0.31607593451919536    
  0.2708850092609836    0.3160759306889966    0.39800125750592275    0.393929775357334    0.2963449890674985    
  0.19362997032105708    0.12390399698343481    0.08301398420081207    0.05999620928501668    0.047023880912755514    
  0.03951039186072941    0.035206606330004796    0.03298385333339405    0.032287881942201516    0.03058173853005278    
  0.031138529691953375    0.03298387266348122    0.03675764036869782    0.04377528370336941    0.056762092203422425    
  0.08133339812036154    0.12747492813051303    0.20947761919719    0.3276374046550589    0.4043371571603957    
  0.3160759764466305    0.1666068438608642    0.11273442475900515    0.1666068174747263    0.31607598896426564    
  0.4043373338996729    0.3276374324471963    0.20947761448090327    0.12747487175433875    0.0813334321406213    
  0.056762047948115874    0.0437753110375915    0.03675761358860572    0.03298385467842982    0.031138522503222407    
  0.03058173853005278    0.03007475472998623    0.030581770118570512    0.03228790819697418    0.03587655707195329    
  0.04272025027636435    0.0557156726560595    0.0808147103973852    0.1288179828337887    0.21517572338481028    
  0.3373944573152978    0.3982356227222074    0.2708851132914909    0.11273441373513987    0.06555041512434387    
  0.11273444880068668    0.27088512063611636    0.3982357340085227    0.337394515633938    0.2151756442639641    
  0.12881792760722888    0.08081468224681901    0.05571570374436577    0.04272020698896952    0.03587654258107898    
  0.03228788647000175    0.030581740980296056    0.03007475472998623    0.030581718635631864    0.03113852430140785    
  0.03298382974249042    0.03675762352441441    0.04377527787906578    0.05676209307284928    0.08133340144335854    
  0.12747490660316796    0.20947763740124348    0.3276375199266578    0.40433707291419946    0.3160760656500779    
  0.1666067946937625    0.11273443816647778    0.1666067619929871    0.3160760846880164    0.40433730498485926    
  0.3276374434077068    0.209477656202826    0.1274748606266739    0.08133339181916799    0.056762086089733696    
  0.04377529474999306    0.036757656795851065    0.0329838615704638    0.0311385244358636    0.030581718635631864    
  0.03228784507955771    0.03298385056418802    0.035206629908737005    0.039510341037569716    0.04702390381502968    
  0.05999616728862772    0.08301396893227789    0.1239040601730946    0.1936299733448728    0.2963449356824419    
  0.39392978888422253    0.39800131426875235    0.31607595737671956    0.2708850172323456    0.3160759009209751    
  0.39800124663124453    0.39392983058675973    0.2963448602202551    0.19363001310512493    0.12390401439339092    
  0.08301401539107768    0.059996179549391224    0.04702389595270271    0.03951038177867208    0.03520661460390795    
  0.032983836903486635    0.03228784507955771    0.035876537909473656    0.036757672027911394    0.03951036205513102    
  0.04454150679850526    0.052669703678352636    0.06541620842966324    0.08585583794825792    0.11903760519943014    
  0.17146654722588042    0.24704264612865937    0.3337634925698393    0.3939299315977353    0.4043370165945085    
  0.398235666868263    0.40433711855997806    0.39392989763734526    0.33376366531105495    0.24704269295248163    
  0.17146655144748943    0.11903750467845761    0.08585584629544607    0.06541623429438635    0.05266967078574095    
  0.04454147088804775    0.03951038463123701    0.03675765425809223    0.035876537909473656    0.042720214475474846    
  0.043775243445352933    0.047023910237016374    0.05266965662629219    0.06107136298769932    0.07289496743740911    
  0.08957948132505725    0.1136259168393386    0.14783286638687967    0.19354554569173738    0.2470427943410126    
  0.2963448565706415    0.3276374804223654    0.3373944006431625    0.3276375409066346    0.296344937362246    
  0.24704272065230437    0.1935455117588686    0.14783287937320289    0.11362587346788028    0.08957945876889101    
  0.07289499763196915    0.06107134582112345    0.05266968006656497    0.0470238710516247    0.04377528584980535    
  0.042720214475474846    0.05571568187901086    0.05676211120126748    0.05999618729807627    0.06541623620754289    
  0.07289501321459847    0.08237945934032095    0.0939558446274872    0.10827758734506404    0.1262342480514135    
  0.14783296678931074    0.171466495981926    0.1936300751612057    0.2094776081817032    0.215175797293186    
  0.20947765976835228    0.19363007181406874    0.1714665568690356    0.14783289645622666    0.12623421533301674    
  0.10827754042384084    0.0939558253156693    0.08237944820450968    0.07289502567478397    0.06541628149149833    
  0.05999620951729104    0.05676211484230997    0.05571568187901086    0.08081467381094018    0.08133337466789935    
  0.08301403469746556    0.0858558249285089    0.08957950669919475    0.09395576637579567    0.09863577684423283    
  0.10334149431762761    0.10827752509044582    0.11362583445473967    0.11903761256279063    0.12390393546212497    
  0.12747493746931007    0.12881788665430455    0.12747499040680826    0.12390393502579014    0.11903758760944137    
  0.11362590016246366    0.10827750510921119    0.10334149171435089    0.09863576806955521    0.09395578135057776    
  0.08957945742677344    0.08585581975006322    0.08301398971048225    0.08133336243709885    0.08081467381094018    
  0.1288178888026978    0.1274748832435975    0.12390401213572724    0.11903755245454868    0.11362587136527486    
  0.10827754650060027    0.10334146475086933    0.09863581679886015    0.09395576977364357    0.08957945837859377    
  0.08585587301719284    0.08301401245037793    0.08133335250369261    0.08081468183152524    0.08133337469393084    
  0.08301402085218212    0.08585587100176685    0.08957945453565754    0.09395578136460453    0.09863569490074153    
  0.1033415336264568    0.10827745519427488    0.11362592731933549    0.11903756738748361    0.12390402533121277    
  0.12747492711821207    0.1288178888026978    0.21517573350719296    0.2094776386194889    0.1936300317687504    
  0.1714665114869711    0.1478329216539786    0.12623419623968146    0.10827756850150738    0.09395574687122332    
  0.08237951504894399    0.07289499119342698    0.06541626186884554    0.05999614073772917    0.05676213222468896    
  0.055715686644063574    0.05676214512718262    0.059996147401452336    0.0654162851771725    0.07289494380153522    
  0.0823794592428207    0.09395580634152235    0.10827752880089814    0.12623420919898043    0.14783293308586495    
  0.17146651590168707    0.1936300854756558    0.20947761991066027    0.21517573350719296    0.33739443564310706    
  0.32763745838870567    0.29634490698218374    0.2470426159096789    0.1935455479439243    0.14783285779561223    
  0.11362584271335302    0.0895795191092503    0.07289497842069331    0.06107134147984658    0.05266967969950777    
  0.04702392278724002    0.043775246198510254    0.04272022612941809    0.04377524849945231    0.047023911514691215    
  0.05266967677125911    0.06107133920488396    0.07289501916477797    0.08957945625344972    0.11362590727278937    
  0.14783292196851247    0.19354555937566723    0.24704271753371035    0.29634485609662575    0.32763761342602693    
  0.33739443564310706    0.3982357497834333    0.40433704010152177    0.39392987673232965    0.3337635285504937    
  0.24704274856095298    0.17146642514374283    0.11903759018708625    0.08585580057004355    0.06541625128424977    
  0.05266965422847389    0.04454152935198549    0.03951030755188124    0.03675766863559048    0.035876513078461764    
  0.03675766197826142    0.03951033894985243    0.04454151956476346    0.05266968342879939    0.0654162898257172    
  0.08585580985259335    0.11903756228558306    0.17146648405537546    0.2470426557028989    0.3337635939558706    
  0.3939298890862746    0.4043371124378273    0.3982357497834333    0.2708849948733467    0.3160760018833873    
  0.3980011860689426    0.3939298415392903    0.2963449454926984    0.19363000167223968    0.12390396426341962    
  0.08301405183017542    0.05999616226949728    0.04702391354391771    0.03951035251540876    0.0352066410606247    
  0.032983809543503044    0.032287895148674126    0.03298381647233428    0.035206659841427936    0.03951030950956321    
  0.047023874439268164    0.05999616275832916    0.08301399015155364    0.12390396041812425    0.1936299825478599    
  0.2963448925828385    0.3939299023188382    0.39800120685348045    0.3160760283593277    0.2708849948733467    
  0.11273447160512358    0.16660675782318146    0.31607607848606645    0.4043370633354658    0.32763747875864274    
  0.20947763894190133    0.12747493756709583    0.08133337517742527    0.056762140185160646    0.04377524153610293    
  0.03675767250660298    0.03298383119532069    0.03113855319955227    0.030581718578953285    0.031138570694052098    
  0.03298385257817871    0.03675764977311146    0.043775276304743954    0.05676210304223834    0.08133339422051321    
  0.1274749492043941    0.20947767297519512    0.32763750621413723    0.40433714991681535    0.31607601709825894    
  0.16660680502624367    0.11273447160512358    0.06555037221217191    0.11273448382610776    0.2708850904309091    
  0.3982357357862443    0.3373944176554512    0.2151756758523042    0.12881791171589832    0.08081471979835506    
  0.05571567757234118    0.0427202577769287    0.03587653214105599    0.03228793338401551    0.030581725488352352    
  0.03007479937879724    0.030581725671400405    0.03228788176448507    0.035876540218878435    0.04272023810527292    
  0.05571570457619444    0.08081471160883494    0.128817926299131    0.21517573273175178    0.3373945357045931    
  0.3982356685489695    0.27088514299539    0.11273445270378914    0.06555037221217191    0.11273445887344742    
  0.16660677360213966    0.3160760727457084    0.40433710646235227    0.32763756947534045    0.20947752019985877    
  0.12747493889406727    0.08133338004765649    0.05676210789787117    0.04377524909045835    0.03675768645211668    
  0.03298381335260156    0.031138540916379537    0.030581702446069666    0.031138556626794853    0.03298383654997879    
  0.03675768414989601    0.043775240669490956    0.05676209906046672    0.0813333827662948    0.12747492889244616    
  0.20947764876794378    0.3276375669922857    0.4043371565672359    0.3160761333881463    0.16660676668513807    
  0.11273445887344742    0.16660675711694783    0.2267432826498397    0.3659106209909651    0.42471768307193675    
  0.33719686502057955    0.22010705737857503    0.13828798728510489    0.09065226647408335    0.0641354336921734    
  0.049306672668364325    0.04067546473585755    0.03555836190667971    0.03261937707935986    0.031138529684504708    
  0.030899592510775925    0.032012144086575114    0.03498611456422539    0.04096953881841782    0.05241117706949857    
  0.0743949845496967    0.11596898755988401    0.19026617908049892    0.30026712285730384    0.3874424016684942    
  0.3406998329616015    0.21691608530207354    0.16660675711694783    0.3160760066732516    0.36591047014636907    
  0.4378160981170135    0.4230958605939834    0.32439892101663464    0.22141265453439138    0.1484740594550629    
  0.1029247490117563    0.07526850772026675    0.058197660628302283    0.047200797409342035    0.04005296293222052    
  0.035558338995541595    0.03298383775752747    0.032012085761791605    0.03260871743834904    0.035113118217421704    
  0.04042318427026366    0.05046769522356446    0.06929116425560415    0.10390205044277495    0.16439897428133307    
  0.2564890224054578    0.3538060200330967    0.38514012591738517    0.34069978311271515    0.3160760066732516    
  0.40433708329784956    0.4247176765247393    0.4230959057668791    0.37107081238238476    0.2899260138318217    
  0.21449511358884416    0.15763329092888853    0.11784042914932856    0.09034250915892651    0.07093319181104832    
  0.05699361598880242    0.04720075259097579    0.040675453954627655    0.03675768199135079    0.03498615363206551    
  0.03511312210000804    0.03725807672735191    0.04198937149197218    0.05059138004936675    0.06581526932168318    
  0.09225910141085225    0.13620268363912655    0.20259918730797716    0.2845507261413019    0.35380611323786787    
  0.38744235244648884    0.40433708329784956    0.3276374462486509    0.33719690632294247    0.3243989443934163    
  0.28992609245162126    0.24548683692667142    0.20231171387612515    0.16493307068315802    0.13409994677047626    
  0.10879243466454382    0.08780046520098796    0.07093321180322774    0.05819766838060991    0.04930667359171983    
  0.043775224460924515    0.04096953842462567    0.04042318050068115    0.04198934134718024    0.045834892524700875    
  0.05262191803102544    0.06387485281494155    0.0820640817473946    0.11027583701350029    0.1509649896953274    
  0.2025991744846237    0.25648904156795715    0.3002671339734878    0.3276374462486509    0.20947762749490278    
  0.2201070151975043    0.22141279174992562    0.2144950638472091    0.20231183803720287    0.18681949927666955    
  0.1689264063428905    0.14958386091235826    0.12920982925972518    0.10879248293507585    0.09034247212119394    
  0.07526849205826029    0.06413545497572612    0.056762107732142006    0.052411207314853825    0.05046768378653438    
  0.05059141187700503    0.052621939106101245    0.05675491895722672    0.06355422546641748    0.07397937689496764    
  0.08929352155900651    0.11027590395575126    0.13620272500051964    0.1643990124461007    0.19026620995331173    
  0.20947762749490278    0.12747483580288962    0.1382880595143015    0.14847400824671306    0.15763333484522152    
  0.1649330788237275    0.1689264072130926    0.1680662602114517    0.16153405038228882    0.14958383944269246    
  0.13409986120054265    0.11784049479365999    0.10292475715989008    0.09065226634909195    0.08133337957764508    
  0.07439499697938205    0.06929118937851153    0.06581529073934204    0.06387483905610172    0.06355422705013788    
  0.0650121685465909    0.06837033304804256    0.07397930391875086    0.08206411789237797    0.09225910914872205    
  0.10390199901943    0.11596899594892511    0.12747483580288962    0.08133338105743476    0.09065226888697941    
  0.10292479220049612    0.11784039341481645    0.13409996578817465    0.14958386269986368    0.1615340323562611    
  0.1680662666494514    0.16892639481076385    0.16493303953552385    0.15763340147749458    0.1484740083010214    
  0.13828799360509958    0.12747485585027085    0.11596899303480798    0.10390200088541794    0.09225910933098708    
  0.08206405334235774    0.07397934729119832    0.06837032220758887    0.06501222145938111    0.06355422292344004    
  0.06387487867243592    0.06581529238471084    0.0692911973889769    0.07439498900034344    0.08133338105743476    
  0.05676206342638522    0.06413550058480169    0.07526848848820157    0.09034248734231651    0.10879244381018943    
  0.1292098686174409    0.14958383695104352    0.1689265043491699    0.18681953182681918    0.2023117827015291    
  0.214495092548078    0.22141278519693788    0.2201070175361051    0.2094776729836803    0.1902662648406186    
  0.16439896830659306    0.13620272362126587    0.11027586473943704    0.08929358783004468    0.07397935337162066    
  0.06355418783870832    0.05675494531068393    0.052621914947267534    0.05059140043089437    0.050467674409476644    
  0.05241124984059765    0.05676206342638522    0.04377529676232398    0.04930661920321872    0.05819770098198525    
  0.07093319544211052    0.08780052375298183    0.10879238981855481    0.1340999016479342    0.16493308901404263    
  0.20231181338822923    0.2454868183862714    0.2899260217303893    0.32439882605192344    0.3371968959104065    
  0.327637335953071    0.3002671688145225    0.25648903300002146    0.20259918707642588    0.1509650259294595    
  0.11027584408925774    0.0820640832081498    0.06387485283243663    0.05262190016334744    0.04583491453024429    
  0.04198933709634277    0.04042319522267394    0.040969493957642024    0.04377529676232398    0.03675760637667019    
  0.04067545467631877    0.047200746243766224    0.056993625107754874    0.07093319632909104    0.09034247340686585    
  0.11784042583272859    0.15763337001206834    0.21449509932004657    0.28992604226504026    0.3710708159977094    
  0.4230959341575675    0.4247177410419664    0.40433718699434124    0.38744232090646324    0.35380613170185493    
  0.2845507372700773    0.20259917749850662    0.13620270518313782    0.09225909863229964    0.0658152720618223    
  0.050591426004101124    0.04198937828444112    0.03725810020607047    0.03511310243706714    0.03498616855352179    
  0.03675760637667019    0.032983844935830176    0.035558314451811214    0.04005297684784568    0.04720076454813282    
  0.05819767403442801    0.07526847660520887    0.10292477467992264    0.14847403133014286    0.22141271209816904    
  0.32439890914130537    0.42309581907154775    0.43781602103670547    0.3659105769237935    0.31607588537208414    
  0.34069978573702486    0.3851400039802651    0.3538061348558554    0.25648899719537577    0.16439896668628295    
  0.10390197333774873    0.06929122204780447    0.050467657824665946    0.04042318609401654    0.03511309451840955    
  0.032608732765359194    0.03201211312835182    0.032983844935830176    0.03113851194496369    0.032619383191643425    
  0.03555833368790266    0.040675465379853726    0.04930667733394723    0.06413549161201473    0.09065224294625464    
  0.13828803849013105    0.2201070256392518    0.33719686164576507    0.4247176455974108    0.3659106374087695    
  0.22674334165897278    0.16660676956193926    0.21691597860679493    0.34069982293582807    0.38744247783037633    
  0.30026708250227435    0.19026615553007556    0.11596899878900027    0.07439498825412867    0.052411177426615455    
  0.04096950117225653    0.03498616294942407    0.03201208696247442    0.030899638475233877    0.03113851194496369    
  0.030581743078039625    0.031138536082870236    0.032983860479548516    0.036757653250445464    0.04377526314118357    
  0.056762074615013834    0.08133341463250103    0.12747495395999464    0.2094776238549874    0.3276374203460838    
  0.4043370832145921    0.3160760676883319    0.166606765471336    0.11273444795785173    0.166606796344068    
  0.31607605570436087    0.40433720931244793    0.3276374034542311    0.20947764456354986    0.12747486882066175    
  0.08133343361963712    0.05676206243658735    0.04377532346404083    0.036757645900971116    0.03298384734859379    
  0.031138526866078063    0.030581743078039625    0.031138511451370754    0.030899614813551843    0.03201209131894634    
  0.034986142125909496    0.040969527219293075    0.052411180929955545    0.07439501109419525    0.11596896725136246    
  0.19026621459965956    0.30026711550115853    0.38744236300739143    0.34069982006683597    0.2169160567575227    
  0.1666067725953743    0.22674325294228195    0.3659106197713444    0.4247177441545947    0.3371968773739016    
  0.22010700378010842    0.1382879773396962    0.09065224318966265    0.06413548742411791    0.049306639793171216    
  0.04067549695561123    0.03555832667055301    0.03261939058634261    0.031138511451370754    0.032983820223345374    
  0.0320120858511084    0.032608720590085544    0.035113118560284    0.040423185508739266    0.050467675984115605    
  0.06929115068646455    0.10390212019109563    0.16439888578622736    0.2564890799999386    0.3538060020230672    
  0.3851401384093636    0.3406997518834453    0.3160759871541386    0.3659104358015215    0.4378160552662721    
  0.42309587890266215    0.3243988259100328    0.22141268713079512    0.1484739957801746    0.10292479954888732    
  0.07526849468647046    0.05819770320925011    0.047200770346440483    0.04005294295187455    0.03555832018084674    
  0.032983820223345374    0.03675767827912927    0.034986157226175284    0.035113144921824574    0.03725805199458568    
  0.04198939715820514    0.050591341334048016    0.06581532004260882    0.09225903834086878    0.1362027939565281    
  0.20259909704395732    0.28455066015702474    0.35380605057089254    0.38744239084295506    0.4043370168588293    
  0.4247177023594657    0.4230958123207772    0.37107091745938575    0.28992603986748405    0.21449506249604341    
  0.1576332917772456    0.1178404522916799    0.09034248586926867    0.0709331552615276    0.05699358928475413    
  0.047200756864502987    0.04067546225539094    0.03675767827912927    0.04377524230646529    0.040969502235612826    
  0.0404231793562077    0.04198938299306074    0.045834872585916536    0.05262195390031136    0.06387483202787078    
  0.08206418114654947    0.11027581006855418    0.15096500443136546    0.20259916436125064    0.256489061266262    
  0.30026704560174305    0.32763752351548087    0.3371968761247984    0.3243989262548217    0.289926066156527    
  0.2454867648043711    0.20231174492565773    0.16493300865407903    0.13409996633923907    0.10879242104603311    
  0.08780048464551204    0.07093316694481301    0.05819765589058243    0.04930669984976735    0.04377524230646529    
  0.05676209215529371    0.05241119029382505    0.050467707722354455    0.0505913642729838    0.052621991305493575    
  0.056754890516779816    0.0635542847211935    0.07397932350208633    0.08929361190927991    0.11027580839865349    
  0.1362027857175693    0.16439893092048616    0.19026621764227675    0.20947764782029749    0.22010716216611537    
  0.2214126538576688    0.21449515694484256    0.20231172890581411    0.18681951377548806    0.1689264188021939    