#     DFTpy    
  CRYSTAL 
    
  PRIMVEC    
  1.6177297987850168    -2.8019902044138254    0.0    
  1.6177297987850168    2.8019902044138254    0.0    
  0.0    0.0    5.469678562206896    
  PRIMCOORD    
  2    1    
  Si    1.617729798785017    0.9339967348046085    1.367419640551724    
  Si    1.6177297987850174    -0.9339967348046085    4.102258921655172    
  BEGIN_BLOCK_DATAGRID_3D    
  3d_datagrid_density    
  BEGIN_DATAGRID_3D#0    
  15    15    25    
  0.0    0.0    0.0    
  1.6177297987850168    -2.8019902044138254    0.0    
  1.6177297987850168    2.8019902044138254    0.0    
  0.0    0.0    5.469678562206896    
  0.04685779252687768    0.048892196773185875    0.054981392160469926    0.06509089600982736    0.07853134006298634    
  0.0928769080078732    0.10414448918436435    0.10845710547602551    0.10414445281114959    0.09287686841919462    
  0.07853133640876318    0.06509090347567617    0.05498139446504786    0.04889219377141654    0.04685779252687768    
  0.048892202656142005    0.04889313804777562    0.05296724727818399    0.06116723791189433    0.07323332197410366    
  0.0876408480165621    0.10107312856628829    0.10931553496275029    0.1093153576297595    0.10107255706576863    
  0.08764127560544692    0.07323239553563429    0.06116817870107288    0.05296732003609665    0.048892202656142005    
  0.05498139202133323    0.052967261309468446    0.05498056736112176    0.06116875453728291    0.07155770338250356    
  0.08525547745136214    0.09984120823274503    0.11135165875515367    0.115751159076193    0.11135268896486082    
  0.09984071671505133    0.08525649805321822    0.0715575978559928    0.061168172400198714    0.05498139202133323    
  0.06509090216346548    0.06116726723734902    0.061168738599835515    0.06508923847964315    0.07323417851453591    
  0.08525445995420197    0.09958474705303948    0.11303384917851333    0.1212679395375537    0.121267124690945    
  0.11303562754650268    0.09958274659208124    0.085256527719586    0.07323237929871725    0.06509090216346548    
  0.07853131669139396    0.07323332063096835    0.07155768111416327    0.07323420015347135    0.07853007478844683    
  0.08764124542569987    0.09984041277347828    0.11303569154185619    0.12341258787602033    0.12730045738793747    
  0.12341102384802069    0.11303566611141128    0.09984073710617589    0.08764125602486836    0.07853131669139396    
  0.09287690567468951    0.08764086572127695    0.08525543000526127    0.08525446114087931    0.08764124697740697    
  0.09287748641201077    0.1010729196713825    0.11135160436707284    0.1212667353413479    0.12729908836972695    
  0.12730047840048744    0.12126714942846037    0.11135268099086053    0.10107255794795914    0.09287690567468951    
  0.10414447849661324    0.10107312324285952    0.09984119870882305    0.09958475376046895    0.09984039706572607    
  0.10107291361458774    0.10414355806509742    0.10931540431562113    0.11575240134054829    0.1212667264703788    
  0.12341261054237056    0.12126796729762812    0.11575117285512035    0.1093153838182438    0.10414447849661324    
  0.10845706354335335    0.10931553041834427    0.11135163916222326    0.11303384831148876    0.11303571439734582    
  0.11135159355662302    0.10931540329362563    0.10845703688095107    0.10931536299333235    0.11135160283214866    
  0.11303570082790909    0.1130338427173048    0.11135165038489502    0.1093155463419956    0.10845706354335335    
  0.10414447125027756    0.10931537904202228    0.11575116579184175    0.12126796564747014    0.12341257258208647    
  0.12126674723588486    0.11575240472978808    0.10931541670804573    0.10414355428281956    0.10107288923738954    
  0.0998404254089877    0.09958477224792098    0.09984118986462504    0.10107312124774816    0.10414447125027756    
  0.09287690922504659    0.10107258659658637    0.11135267146799889    0.121267153160758    0.1273004958258129    
  0.12729913084600822    0.12126671118752734    0.1113516369283197    0.101072904760361    0.09287749992606588    
  0.08764121802166586    0.08525445837357348    0.0852554521851314    0.08764082778762197    0.09287690922504659    
  0.0785313224683168    0.08764125594451175    0.09984070405355418    0.11303563939480119    0.12341102960603366    
  0.12730045145195373    0.12341258177571739    0.11303568072308542    0.09984038369723111    0.0876412234919169    
  0.07853007730802229    0.07323419112365151    0.07155771689776605    0.07323331555417682    0.0785313224683168    
  0.0650909131568445    0.0732323824047489    0.08525649417500622    0.09958276879309093    0.11303562065833116    
  0.12126712440906637    0.12126798252555027    0.11303385494704105    0.09958473571791089    0.08525444346554013    
  0.07323419217851032    0.06508924292182884    0.061168765045167564    0.0611672385146974    0.0650909131568445    
  0.054981394512439045    0.06116817876771139    0.071557601727671    0.08525650162987448    0.09984072164818505    
  0.11135269791527992    0.11575118620885207    0.1113516465470321    0.09984120071028835    0.08525542532964049    
  0.0715576815779895    0.06116873922178723    0.05498057498469876    0.052967246179965996    0.054981394512439045    
  0.04889220230940418    0.052967314315692786    0.06116816513369161    0.07323239411177425    0.08764125733801591    
  0.1010725782388528    0.10931537502236457    0.10931555563442613    0.1010730876908423    0.08764084562850112    
  0.0732333435387726    0.061167266584368836    0.05296725565033864    0.048893123515335195    0.04889220230940418    
  0.04685779252687768    0.048892196773185875    0.054981392160469926    0.06509089600982736    0.07853134006298634    
  0.0928769080078732    0.10414448918436435    0.10845710547602551    0.10414445281114959    0.09287686841919462    
  0.07853133640876318    0.06509090347567617    0.05498139446504786    0.04889219377141654    0.04685779252687768    
  0.04896390472898791    0.05121562148840778    0.05806496664460874    0.06956005642619165    0.08487904166816061    
  0.10128585895213485    0.11425006014508783    0.11921759759678106    0.11424821853104174    0.10128647650831238    
  0.08487781212962404    0.0695616134212876    0.058063950165207934    0.05121454725809465    0.04896390472898791    
  0.05121454978625185    0.05121668935975282    0.05473970570098959    0.06178902358589483    0.07205622528553292    
  0.08426008497535505    0.09563630894620025    0.1026119992943453    0.10261174836723028    0.09563774621993582    
  0.0842592861822745    0.07205728157634883    0.0617872381928117    0.05474284791628039    0.05121454978625185    
  0.058063955163769485    0.05682684976598508    0.058063631921703544    0.0617881137368895    0.06796226691718872    
  0.07611887684961932    0.08482560713202159    0.09167367561826606    0.09428271915820668    0.09167280376095159    
  0.08482564664630289    0.07611869841952158    0.06796285058134961    0.06178722832984225    0.058063955163769485    
  0.06956158938872141    0.06841696301422412    0.06841827038484068    0.06956080521035006    0.07205783129100733    
  0.0761173427398936    0.08135592901837217    0.08646630950852154    0.08966919064572543    0.0896687923450847    
  0.0864677505557252    0.08135501980141766    0.07611871362615596    0.07205723726892693    0.06956158938872141    
  0.08487782321731065    0.08587157814967537    0.0863074376580336    0.08587099495914899    0.08487727159411865    
  0.08425996123333966    0.08482570803358545    0.08646784398048171    0.08824342699141702    0.08900491859636177    
  0.08824338588536346    0.08646776325163938    0.0848256738896363    0.08425927072213626    0.08487782321731065    
  0.10128646853580532    0.10707059850092479    0.11068766250312803    0.11068879450221915    0.10707057256946186    
  0.10128742582714913    0.09563562523870689    0.09167361445317701    0.08966735623642472    0.08900704869962624    
  0.08900492909917523    0.08966879052820863    0.09167281050897891    0.09563774341645848    0.10128646853580532    
  0.1142482583278916    0.12710461709943277    0.13734782977161797    0.14122187350814636    0.13734728053352047    
  0.12710329512999485    0.11424925907768342    0.10261159598587632    0.09428372867682004    0.08966735549724147    
  0.08824345646136732    0.08966920225515669    0.09428272363537366    0.1026117570161676    0.1142482583278916    
  0.11921758242007269    0.13948504378514193    0.15870623352883662    0.1704567466793284    0.17045440274149445    
  0.1587088162571235    0.13948402947602187    0.11921806495391814    0.10261154130440973    0.09167361882161314    
  0.08646786588131981    0.08646631271826771    0.0916736569228737    0.10261197099043719    0.11921758242007269    
  0.11425003970625809    0.1394852475485521    0.16691885916284513    0.18850871991732893    0.19661005610736174    
  0.18850960754456883    0.16692052061977716    0.1394840334251332    0.11424922252480067    0.0956356114743492    
  0.08482570998575768    0.08135594722615304    0.0848256139199641    0.09563628882461192    0.11425003970625809    
  0.10128585644938044    0.12710206738149732    0.15870812492806957    0.18851404456365542    0.2064379126743992    
  0.20643757366520207    0.18850956517384895    0.1587088018085996    0.1271032969298958    0.10128742449870883    
  0.08425994541128445    0.07611734503813497    0.07611885818049849    0.08426007520935855    0.10128585644938044    
  0.08487900994252888    0.10707117114743323    0.1373495544021417    0.1704521949376475    0.19660806622903773    
  0.2064378378476858    0.19661010205079757    0.17045440775686868    0.1373472796307708    0.10707056377303789    
  0.08487727036256268    0.07205784968151616    0.06796227192346685    0.07205625682935474    0.08487900994252888    
  0.06956006647033926    0.08587152201137162    0.11068690884067829    0.14122446811023978    0.17045216889891032    
  0.18851403564607533    0.18850875846229645    0.17045674645943412    0.1412218151143228    0.11068880079057206    
  0.08587099468623442    0.0695608184937105    0.06178813112530286    0.06178902750960136    0.06956006647033926    
  0.058064966884450925    0.06841790624581175    0.08630793580360488    0.11068691533753867    0.1373495561902549    
  0.15870814184833318    0.1669189046027864    0.1587062739140449    0.13734783736840017    0.11068764998436594    
  0.08630744322046124    0.06841826728459555    0.05806363189183328    0.05473970814029429    0.058064966884450925    
  0.05121562339606365    0.05682565798559662    0.06841788943934736    0.08587155082031936    0.10707116512933915    
  0.12710204434250394    0.13948526841212178    0.1394850849131467    0.1271046229781627    0.10707058359298925    
  0.08587158065763073    0.06841696741638449    0.05682686397425075    0.05121667130649138    0.05121562339606365    
  0.04896390472898791    0.05121562148840778    0.05806496664460874    0.06956005642619165    0.08487904166816061    
  0.10128585895213485    0.11425006014508783    0.11921759759678106    0.11424821853104174    0.10128647650831238    
  0.08487781212962404    0.0695616134212876    0.058063950165207934    0.05121454725809465    0.04896390472898791    
  0.054985844732590855    0.057924545398843126    0.06705458164737588    0.0826875709023814    0.10373383428214573    
  0.12657606887408798    0.1448503459886037    0.15187493376978237    0.14485003359607293    0.1265767703538622    
  0.10373300467076307    0.08268797948625523    0.06705420719622614    0.05792450744605658    0.054985844732590855    
  0.05792451096543233    0.0579231779038058    0.06168200024440427    0.06938622701173662    0.08068552284850748    
  0.09411779747827646    0.1067168870593084    0.1144643192409663    0.11446383738538271    0.10671723377222862    
  0.09411722457245988    0.08068612367205753    0.06938601326157227    0.06168165332135797    0.05792451096543233    
  0.06705420644767185    0.06630725662987896    0.06705558440175108    0.06938495807222188    0.07347427740708144    
  0.07914446879862728    0.08540325099064316    0.09042561835370633    0.09236239691870304    0.0904250709552325    
  0.08540318546193319    0.07914509475681282    0.07347389486952134    0.06938599147343959    0.06705420644767185    
  0.08268796635891716    0.08398596411988155    0.08398308645890024    0.08268924866778814    0.08068468608730148    
  0.07914741418758398    0.07868645400692273    0.07908864921549288    0.07967675930801252    0.07967740730657406    
  0.07908826707776152    0.07868793701200884    0.07914509460470989    0.08068610099429435    0.08268796635891716    
  0.10373304595645341    0.11130923095927708    0.11411878687132872    0.11130925764817927    0.1037344745749487    
  0.09411545682638454    0.08540293010736219    0.07908902825477314    0.07562848929493174    0.07461755902930123    
  0.07562926725505957    0.07908826107507691    0.08540320498109494    0.0941171802176037    0.10373304595645341    
  0.12657679922271234    0.1453670841575753    0.15675591198451322    0.15675859038584294    0.1453650918476368    
  0.12657809894129024    0.10671666080237048    0.09042525343769257    0.07967713531596922    0.07461840874727971    
  0.07461758862607033    0.07967740324102025    0.09042508122595955    0.1067172127563234    0.12657679922271234    
  0.14485005188349692    0.17806973664709025    0.20419390372787702    0.21399206315234695    0.20419243372487694    
  0.17807008736877933    0.14485004816686992    0.11446574046867132    0.09236069561715093    0.07967715558562193    
  0.07562851176093428    0.07967678305690969    0.09236239367423797    0.11446386648779343    0.14485005188349692    
  0.15187492613106704    0.19832602388651596    0.2416785239339696    0.26731235466751285    0.2673112681596822    
  0.24168205681382315    0.1983269349435161    0.15187232988293597    0.11446570947245294    0.09042525166149995    
  0.0790890484660547    0.0790886588100933    0.09042561804735483    0.11446425164533656    0.15187492613106704    
  0.1448503306420517    0.19832587629909373    0.255781204727475    0.29838213663979657    0.31345031518332994    
  0.2983829984812916    0.2557813462602106    0.1983269162367218    0.14485004507832536    0.10671663678562687    
  0.08540293658550387    0.07868647375377057    0.08540324486762127    0.10671686575278758    0.1448503306420517    
  0.12657608309051369    0.1780699529491257    0.24168117019771934    0.29838519512128714    0.32948581082675216    
  0.32948372975529455    0.29838296359171645    0.2416821136317327    0.1780701335680645    0.12657806362399923    
  0.09411544290097364    0.07914741207897438    0.07914445734353051    0.09411777047126785    0.12657608309051369    
  0.10373379305684828    0.14536592559895575    0.20419412357621142    0.2673074514536969    0.3134497889736848    
  0.32948574316893847    0.3134503609650958    0.26731131536224756    0.20419242738989757    0.1453650368063433    
  0.10373447235191996    0.08068469386726501    0.0734742836221689    0.08068555301931014    0.10373379305684828    
  0.0826875662366994    0.11131143484161275    0.1567567113237214    0.21399519819400414    0.2673074175334657    
  0.29838520225278947    0.29838213136755687    0.26731230975569353    0.21399198819412313    0.15675860039575767    
  0.11130926199917798    0.08268925998210588    0.06938496866356299    0.06938622599834587    0.0826875662366994    
  0.06705458327160911    0.08398540832794187    0.11411631088425998    0.1567566891771058    0.2041941714104691    
  0.24168121892389327    0.2557812689129499    0.24167853341316933    0.20419393371248257    0.15675587286395487    
  0.11411879640417315    0.08398309942105618    0.06705559466341963    0.06168199460121803    0.06705458327160911    
  0.05792454451443657    0.06630656687738595    0.08398540606623589    0.11131142299089777    0.14536592458483205    
  0.17806994097622253    0.19832585597820943    0.1983260797830385    0.17806972302300755    0.1453670874694811    
  0.11130924627804548    0.08398595250206072    0.0663072666743158    0.057923152083807695    0.05792454451443657    
  0.054985844732590855    0.057924545398843126    0.06705458164737588    0.0826875709023814    0.10373383428214573    
  0.12657606887408798    0.1448503459886037    0.15187493376978237    0.14485003359607293    0.1265767703538622    
  0.10373300467076307    0.08268797948625523    0.06705420719622614    0.05792450744605658    0.054985844732590855    
  0.06392582691030622    0.06798793911582073    0.08074613131473637    0.10295360070449447    0.1333801078542396    
  0.16680512554408503    0.19347022622135254    0.20361642246104156    0.19347581374091918    0.16680529964791266    
  0.1333754340184574    0.1029531841192275    0.08074634820187829    0.06798923495269715    0.06392582691030622    
  0.06798924892463439    0.0679866554631844    0.07263998590646485    0.08233442668538857    0.0967470197130713    
  0.11409721224859523    0.1305096118119169    0.1405204628224022    0.14052128041532042    0.1305033650846394    
  0.11409978869971257    0.09674905869700137    0.08233659763242905    0.07263616640126956    0.06798924892463439    
  0.08074634212606872    0.08030903890527193    0.08074673244691806    0.0823353412607458    0.08557949386498523    
  0.0905353971134488    0.09636019598248556    0.1011870968726788    0.10304651940166862    0.10118745551630258    
  0.09636281083480505    0.09053495675239515    0.08557592516558465    0.08233659285526165    0.08074634212606872    
  0.10295316592450453    0.10678256220981912    0.10678032789842645    0.10295382683388711    0.09674529102078591    
  0.09053629166092661    0.08587889359535614    0.08320288224760795    0.08217542825889347    0.08217512598549148    
  0.0832030658817908    0.08587733919199886    0.09053499383018426    0.09674899784153784    0.10295316592450453    
  0.1333754460019456    0.14862431735940004    0.15436541731929268    0.14862544041071404    0.1333818574121192    
  0.1140972795259257    0.09636031876275779    0.08320377229219843    0.07560228447114017    0.07320989238124669    
  0.075602522391099    0.08320307756387404    0.09636283216237437    0.11409977908340813    0.1333754460019456    
  0.16680532873710216    0.20128682148945048    0.22226637105838457    0.22226264088123712    0.20128181185769128    
  0.16680402173176342    0.13050900596031076    0.10118541630125233    0.0821768637041786    0.07320783635403554    
  0.07320988271324945    0.08217515645205879    0.10118745685189813    0.1305033721849005    0.16680532873710216    
  0.193475854381733    0.2509239514330975    0.29403753764762636    0.309479646722365    0.29404598254140385    
  0.25092467802385604    0.19347273594502662    0.14052405074079174    0.10304426980285232    0.08217685084262576    
  0.07560234287115225    0.08217547418082993    0.10304652621607611    0.14052131289802192    0.193475854381733    
  0.20361641329727398    0.2804637516543479    0.3439046258063332    0.37423257511027613    0.37422712397971103    
  0.3439083676599647    0.28047387894999093    0.2036094543400023    0.14052402112603676    0.1011854253903893    
  0.08320377874618529    0.08320285427326204    0.10118710298871864    0.14052042451234437    0.20361641329727398    
  0.19347019841324642    0.28047200951377105    0.36024830878241276    0.398828215307437    0.4056338697863608    
  0.39882593882725154    0.36024753149091115    0.2804739046567107    0.19347272055180437    0.1305089663351221    
  0.0963603213014943    0.0858789234877612    0.09636018199126684    0.13050958690007974    0.19347019841324642    
  0.1668051144354733    0.25092359784116897    0.343909030710558    0.3988219441492555    0.4077226138731709    
  0.4077274991832658    0.3988259649281791    0.3439083812096799    0.2509246491644552    0.16680398368702473    
  0.11409723515951462    0.09053632368194359    0.09053538103847288    0.11409719747146753    0.1668051144354733    
  0.1333800805438383    0.20128195191032233    0.2940464869791528    0.37421643934261456    0.40565003312177106    
  0.4077225838800563    0.40563392428619355    0.37422710692941596    0.2940459497707042    0.20128181387669342    
  0.13338185646947812    0.09674531349675657    0.08557948469979065    0.09674703850394613    0.1333800805438383    
  0.10295359138095825    0.14862714623616727    0.22226356963183078    0.30948470791685495    0.3742163738263653    
  0.3988218948816222    0.398828244866983    0.3742326119507656    0.30947958809497467    0.2222626456115977    
  0.14862543246035695    0.10295381858219162    0.08233534414699258    0.08233441246230629    0.10295359138095825    
  0.0807461328949217    0.10678151581839247    0.15436411508525152    0.222263573533074    0.294046547741254    
  0.3439091292970033    0.36024834578296205    0.34390465589676245    0.29403757907000017    0.22226636671353206    
  0.15436542492630134    0.1067803366073222    0.08074674843109489    0.07263998228245974    0.0807461328949217    
  0.06798794467049887    0.08030975579882803    0.10678149550639396    0.14862714687383297    0.20128195708163774    
  0.2509235528164446    0.2804720474280436    0.2804638052500635    0.250923897320394    0.20128683734912783    
  0.14862435392174378    0.10678257099758955    0.0803090252907969    0.06798663401254217    0.06798794467049887    
  0.06392582691030622    0.06798793911582073    0.08074613131473637    0.10295360070449447    0.1333801078542396    
  0.16680512554408503    0.19347022622135254    0.20361642246104156    0.19347581374091918    0.16680529964791266    
  0.1333754340184574    0.1029531841192275    0.08074634820187829    0.06798923495269715    0.06392582691030622    
  0.07371920829607942    0.07912269731991874    0.09617066495437988    0.1262303918910556    0.16803651499637037    
  0.2136860490127716    0.2489841633028605    0.26199406315094503    0.2490118955652442    0.21368919818952542    
  0.16801367856095062    0.12623337092939332    0.09617320332144763    0.07912434161172342    0.07371920829607942    
  0.07912433144882147    0.07912412491003852    0.08511317336608439    0.09756181316369363    0.11622111878733085    
  0.13899033114492082    0.1605086543534766    0.1734431499093695    0.17344385697106346    0.16048782265664896    
  0.13899090314817822    0.11623872993915486    0.0975599583315785    0.08510791303857146    0.07912433144882147    
  0.09617320626338265    0.09583149345479486    0.09616923138415898    0.09755662222704364    0.10073518944271428    
  0.10592995870528206    0.11235277360437426    0.11779717669457543    0.11987960984625629    0.11779599258085648    
  0.11236789947624952    0.1059292392832092    0.10071858861445529    0.09755994371198477    0.09617320626338265    
  0.12623335122309012    0.13236641623679216    0.13236759830494266    0.12623894478704178    0.11621915928625204    
  0.10593169047066674    0.09786983814329053    0.09287757833065356    0.0906698266301704    0.09067083342245554    
  0.09287846020109365    0.09785790940564897    0.10592923418933506    0.11623868955422607    0.12623335122309012    
  0.16801369918256454    0.19083855311890321    0.1994051095958823    0.19083550759200782    0.16803870343540078    
  0.13898817065581312    0.11235343911329347    0.09288081772833229    0.08161687224560729    0.07800728635908812    
  0.08161609055988121    0.09287850114249603    0.11236791616973905    0.13899084124715125    0.16801369918256454    
  0.21368922737616586    0.2628161569905257    0.2913584884865768    0.29135073344707146    0.26278626848354514    
  0.2136895621621399    0.16050828093686073    0.11779273569553393    0.09067114333371784    0.07800543517534517    
  0.07800730762313765    0.09067084243936603    0.11779602267590084    0.16048781337971735    0.21368922737616586    
  0.249011965401909    0.32490738170154193    0.3719119658534205    0.3852913447996555    0.37195972546404826    
  0.32490733143344575    0.24898917867073583    0.17344917172009733    0.11987882947635245    0.09067116086382272    
  0.08161689180573313    0.09066981953416585    0.1198796256118026    0.17344391171738666    0.249011965401909    
  0.26199402194145177    0.35697787808326237    0.40493535875373593    0.40401004755151865    0.4039784506268887    
  0.40493425818929674    0.35702317232709685    0.26197810017377143    0.17344913121777938    0.11779272492002449    
  0.09288081962150817    0.09287758237650218    0.11779715756903009    0.17344307920487703    0.26199402194145177    
  0.24898415093767454    0.35701689445175483    0.40788508198882917    0.37222723842060645    0.34127477805288814    
  0.3722247692289141    0.4078720825218321    0.3570232309559541    0.24898913515091378    0.16050825619190273    
  0.11235343615951213    0.0978698751643607    0.1123527813412005    0.1605086032172657    0.24898415093767454    
  0.21368607104593032    0.3249151291684719    0.4049364849102181    0.3722128682267886    0.3001551328806693    
  0.30018701734780356    0.3722247456577878    0.4049342316932449    0.3249073653825641    0.2136895445358238    
  0.13898818420048217    0.10593170489818515    0.10592996283791253    0.1389903323762754    0.21368607104593032    
  0.16803644858574457    0.26278766539975446    0.3719514137699695    0.4039483502706187    0.3413351014116809    
  0.3001550296723688    0.3412748401475408    0.4039784693682911    0.37195971273787864    0.26278626555577667    
  0.16803872082679766    0.11621916700402428    0.10073520226750285    0.11622114209430295    0.16803644858574457    
  0.12623039156590948    0.19084742694854634    0.29134761574774887    0.3853201083301506    0.4039482978354993    
  0.37221285511175434    0.3722272514883508    0.40400996064594585    0.38529133940683863    0.2913507118976252    
  0.19083553483992322    0.12623896631018636    0.09755662976160198    0.09756179062437008    0.12623039156590948    
  0.09617066581040545    0.13236686152412797    0.1994020751093608    0.2913476105995424    0.3719514745218589    
  0.40493658627482065    0.4078851567704781    0.4049354359061036    0.37191195558369594    0.2913584563494237    
  0.1994051383529981    0.13236759374522222    0.09616923793193798    0.08511318938949991    0.09617066581040545    
  0.07912270828514208    0.09583421196575784    0.1323668166358763    0.1908474271850886    0.26278765527530246    
  0.3249150518930977    0.3570168494314936    0.3569779399517423    0.324907377284758    0.262816128176213    
  0.190838591859462    0.13236642338183077    0.09583150015428045    0.07912408936783465    0.07912270828514208    
  0.07371920829607942    0.07912269731991874    0.09617066495437988    0.1262303918910556    0.16803651499637037    
  0.2136860490127716    0.2489841633028605    0.26199406315094503    0.2490118955652442    0.21368919818952542    
  0.16801367856095062    0.12623337092939332    0.09617320332144763    0.07912434161172342    0.07371920829607942    
  0.08146083964284793    0.0879950317110808    0.1086269193291901    0.14533297160218386    0.1966299262131502    
  0.2515734911273493    0.2923064402989304    0.30677541232521427    0.29236861510992646    0.25158387377548913    
  0.19658113314301634    0.14533861929762731    0.10863692172305751    0.08799529566631085    0.08146083964284793    
  0.08799530534307563    0.08799278360894341    0.09516641577886306    0.11006532455315038    0.13257080146951336    
  0.16013942888298843    0.186049983275987    0.2015633325799815    0.20156421696238036    0.1860073899456113    
  0.16013580556931323    0.13260939346003509    0.11006031220817573    0.09515321908323075    0.08799530534307563    
  0.10863690369381256    0.10832881303351524    0.10862635945276605    0.110050677858281    0.11361007345838278    
  0.11944275966137549    0.12662390121764538    0.13279938360351992    0.13518885252136073    0.13279460089955625    
  0.12665642703934737    0.11944516607183922    0.11357208864355844    0.11006029032037497    0.10863690369381256    
  0.145338611838542    0.1532072664711346    0.15321864796229792    0.14535139103528205    0.1325688360850223    
  0.11944725850182866    0.10896849967962989    0.10227365665608662    0.0992370518097059    0.09923867823019196    
  0.1022799135185455    0.10893742482701    0.1194451955620915    0.13260934875279917    0.145338611838542    
  0.19658117443668527    0.2249538922116061    0.23547079506599836    0.2249375688758168    0.19663450780813443    
  0.16013347743524872    0.12662285149620903    0.1022852440320962    0.0882375641441237    0.0837257838200837    
  0.08823420674563627    0.10227991128668731    0.1266564270531261    0.1601357670518527    0.19658117443668527    
  0.25158389683224747    0.3092576715539729    0.34017979130126863    0.3401773089168011    0.3091916277612271    
  0.2515828979717918    0.18605318045809655    0.13278644262394274    0.099238631698281    0.08372213743884024    
  0.08372580848210744    0.09923865375918772    0.13279462014310242    0.18600739494242582    0.25158389683224747    
  0.29236868935468    0.3718700667662208    0.40459712563080663    0.4076480126881634    0.40469128061164655    
  0.3718748394535187    0.29230994064186355    0.2015778666338055    0.13518906416349347    0.09923863721373274    
  0.08823760620973795    0.09923707375497254    0.13518885762597893    0.201564247380949    0.29236868935468    
  0.3067753896123278    0.39598848314339385    0.39380815469372804    0.34393410085020387    0.34388476640185345    
  0.3937887232778776    0.3960962148485109    0.3067345863740341    0.2015777946381978    0.13278644531276276    
  0.10228527211144127    0.10227367086963043    0.13279937839374195    0.20156325064990818    0.3067753896123278    
  0.29230646470868077    0.39607116223149175    0.37377242046420345    0.2537317941250492    0.19753889736146785    
  0.2537369146209677    0.37373215533389875    0.39609623822612533    0.2923099169355864    0.1860531517306547    