#     DFTpy    
  CRYSTAL 
    
  PRIMVEC    
  9.100753294142754    1.6930244579310346e-09    -5.497188744827586e-10    
  1.6930244579310346e-09    9.100753296192215    -1.5858993710344828e-09    
  -5.497188744827586e-10    -1.5858993710344828e-09    9.10075329676279    
  PRIMCOORD    
  63    1    
  Si    2.275188366399963    1.9935668375147763e-08    2.275188277455169    
  Si    6.82556501347134    2.0782180604113276e-08    2.2751882771803094    
  Si    2.275188367246475    4.550376668031775    2.2751882766622193    
  Si    6.825565014317851    4.550376668878287    2.275188276387359    
  Si    2.275188366125104    1.914271868963052e-08    6.825564925836562    
  Si    6.82556501319648    1.9989230918596033e-08    6.825564925561703    
  Si    2.2751883669716157    4.550376667238825    6.825564925043614    
  Si    6.825565014042992    4.550376668085338    6.825564924768754    
  Si    1.1375941612058569    1.1375941030544907    1.137594118001988    
  Si    5.687970808277234    1.1375941039010027    1.1375941177271285    
  Si    1.1375941620523689    5.687970751150597    1.1375941172090382    
  Si    5.687970809123747    5.687970751997109    1.137594116934179    
  Si    1.1375941609309974    1.137594102261541    5.6879707663833825    
  Si    5.687970808002374    1.137594103108053    5.687970766108523    
  Si    1.1375941617775096    5.687970750357648    5.687970765590433    
  Si    5.6879708088488865    5.687970751204158    5.6879707653155736    
  Si    2.2751883787960034    2.275188307565547    2.8781100679538e-08    
  Si    6.8255650258673795    2.2751883084120594    2.8506241242296618e-08    
  Si    2.275188379642515    6.825564955661654    2.798815099402076e-08    
  Si    6.82556502671389    6.825564956508168    2.7713291556779378e-08    
  Si    2.2751883785211438    2.2751883067725975    4.550376677162494    
  Si    6.825565025592519    2.2751883076191097    4.550376676887634    
  Si    2.275188379367656    6.825564954868704    4.550376676369544    
  Si    6.825565026439031    6.825564955715217    4.550376676094685    
  Si    1.1375941642546523    3.412782527845467    3.412782533022383    
  Si    5.687970811326029    3.4127825286919795    3.4127825327475243    
  Si    1.1375941651011645    7.9631591759415725    3.412782532229434    
  Si    5.687970812172541    7.9631591767880865    3.4127825319545746    
  Si    1.137594163979793    3.4127825270525176    7.963159181403777    
  Si    5.687970811051169    3.4127825278990302    7.963159181128918    
  Si    1.1375941648263055    7.963159175148624    7.963159180610828    
  Si    5.6879708118976815    7.963159175995136    7.9631591803359685    
  Si    4.550376606582624    2.2872978049324094e-08    4.363431400591095e-08    
  Si    9.100753254500514    4.550376671815598    4.256650488315234e-08    
  Si    4.550376607429136    4.550376670969086    4.2841364320393716e-08    
  Si    9.10075325337914    2.2926540592772374e-08    4.550376691740848    
  Si    4.550376606307765    2.208002836380685e-08    4.550376692015708    
  Si    9.100753254225655    4.550376671022648    4.550376690947899    
  Si    4.550376607154277    4.550376670176136    4.550376691222759    
  Si    3.412782487985509    1.1375941339275262    3.4127825277822867    
  Si    7.963159135056884    1.1375941347740381    3.4127825275074284    
  Si    3.4127824888320206    5.6879707820236325    3.412782526989338    
  Si    7.963159135903395    5.687970782870145    3.4127825267144782    
  Si    3.4127824877106487    1.1375941331345767    7.963159176163682    
  Si    7.963159134782025    1.1375941339810887    7.963159175888823    
  Si    3.4127824885571614    5.687970781230684    7.963159175370732    
  Si    7.963159135628536    5.687970782077195    7.963159175095873    
  Si    9.100753238147327    2.2751882998261017    2.2751882961803744    
  Si    4.55037659107595    2.2751882989795895    2.275188296455233    
  Si    9.100753238993837    6.825564947922208    2.2751882953874243    
  Si    4.550376591922461    6.825564947075698    2.2751882956622835    
  Si    9.100753237872464    2.275188299033152    6.825564944561768    
  Si    4.55037659080109    2.2751882981866394    6.825564944836627    
  Si    9.100753238718978    6.8255649471292585    6.825564943768819    
  Si    4.550376591647602    6.825564946282746    6.825564944043678    
  Si    3.412782480771283    3.4127825319607665    1.1375941162585623    
  Si    7.963159127842658    3.4127825328072783    1.1375941159837029    
  Si    3.4127824816177954    7.963159180056872    1.1375941154656126    
  Si    7.963159128689173    7.963159180903384    1.1375941151907532    
  Si    3.412782480496423    3.4127825311678164    5.687970764639957    
  Si    7.963159127567799    3.412782532014328    5.687970764365097    
  Si    3.4127824813429353    7.963159179263924    5.687970763847006    
  Si    7.963159128414311    7.963159180110436    5.687970763572147    
  BEGIN_BLOCK_DATAGRID_3D    
  3d_datagrid_density    
  BEGIN_DATAGRID_3D#0    
  41    41    41    
  0.0    0.0    0.0    
  9.100753294142754    1.6930244579310346e-09    -5.497188744827586e-10    
  1.6930244579310346e-09    9.100753296192215    -1.5858993710344828e-09    
  -5.497188744827586e-10    -1.5858993710344828e-09    9.10075329676279    
  0.09550867912062114    0.09890105249176344    0.10858383340353267    0.12210248988878926    0.1343715974955168    
  0.14026048329526208    0.137269510008895    0.12701875136261384    0.11416645787803534    0.10387768975007532    
  0.1002259857788265    0.10642203188834039    0.12698405117071335    0.16934379669304947    0.24329299924085862    
  0.3550101105819445    0.47485741499073786    0.474304706297253    0.27324260338307166    0.09731542640271336    
  0.052176322530082385    0.09731545557442216    0.2732427077425764    0.47430479233404466    0.4748574583709411    
  0.35501003236978074    0.24329292450189935    0.1693438662715279    0.12698404204325248    0.1064220453884533    
  0.1002259405616354    0.10387762332348827    0.11416644619775508    0.12701869601201857    0.13726955785545028    
  0.14026045468892134    0.13437155633410708    0.12210244107450173    0.10858381836945608    0.0989010344001393    
  0.09550867912062114    0.0989010692425655    0.10256942452974592    0.11291213506114253    0.12718938159429788    
  0.14036667523053614    0.14713769452168224    0.14468221124757405    0.13440237352876203    0.12113457006317734    
  0.11032248151355681    0.10635839833902742    0.11258884238534522    0.13332805334543466    0.17555171519021912    
  0.24828504313783303    0.357139834287901    0.47765561986264565    0.5005681668894034    0.33405325501741845    
  0.15339912340803466    0.09729364725202709    0.15339913625407195    0.33405337280873376    0.5005681926732466    
  0.4776554899780534    0.3571397816867285    0.24828491466981728    0.1755517222321151    0.1333280321992684    
  0.1125888332652399    0.10635840357058032    0.11032243383845439    0.12113459863827584    0.1344022144271707    
  0.1446822949916856    0.14713770414688387    0.14036669359806653    0.12718933932948892    0.1129121312734061    
  0.10256943071963244    0.0989010692425655    0.10858383133002815    0.11291218918981268    0.12491194849200869    
  0.1415388535609598    0.1576048824239185    0.1672985951394663    0.1669025851755516    0.15734793288507784    
  0.14359359273116046    0.131735548701399    0.1269960359472719    0.13314540207541833    0.15380682101599236    
  0.19451479836797783    0.26213851565301816    0.36052613197953387    0.4747783287844814    0.5394500535296519    
  0.47106833802650194    0.3336760754016429    0.2728954550651135    0.3336760568763747    0.47106829741397044    
  0.539450246731205    0.47477829124408244    0.36052618266054554    0.2621384387191984    0.1945148062048072    
  0.15380674711392972    0.13314548045497052    0.12699606007126835    0.13173559909240737    0.14359354007468986    
  0.15734791299857603    0.1669025679367215    0.1672985618208573    0.1576048160296365    0.14153889504291692    
  0.12491191902352831    0.11291216461783765    0.10858383133002815    0.12210241455289797    0.12718937753486048    
  0.14153884912714854    0.16203996107816793    0.18330512377043598    0.1990739724198653    0.20458115970695226    
  0.19901078431458774    0.1866416804635478    0.17429528222376256    0.16866126901702977    0.17425391964024203    
  0.19340300682215028    0.22883238895445934    0.28412792411286675    0.36037490869580124    0.4496998175789406    
  0.5233017653941852    0.5383845550475909    0.4991081901703625    0.4729069602619165    0.4991080919244002    
  0.5383845104429027    0.5233018276843667    0.44969981818215476    0.36037484972288114    0.28412786713332183    
  0.2288323822827209    0.19340298732642544    0.17425397540018894    0.16866129195260626    0.17429525970827336    
  0.18664174640077816    0.19901071962702369    0.20458119853498097    0.19907395505034145    0.18330507751932118    
  0.1620399130858449    0.14153887580318994    0.12718933550440195    0.12210241455289797    0.13437152164656457    
  0.14036668334240163    0.1576047587991011    0.18330508582804553    0.21247693868761805    0.23941361151272342    
  0.257998758289779    0.26348540933161596    0.25730991721366536    0.2469773667106231    0.2410829011729253    
  0.24508739964874016    0.25946367936110903    0.28291668616085885    0.31531997114515675    0.3567455360789576    
  0.4046018389735858    0.4483834343858566    0.47258077842260815    0.47518072013843693    0.47246425324162766    
  0.4751807813383983    0.4725808660433687    0.4483835134723118    0.40460169915430455    0.3567454208488773    
  0.31531983128499896    0.28291678730714    0.2594636829198567    0.2450874426996913    0.24108283793696073    
  0.24697735488311273    0.25731002586992907    0.2634853642819024    0.25799882662547274    0.23941368540046898    
  0.21247692743310104    0.183305070314736    0.1576048398129955    0.14036667722164323    0.13437152164656457    
  0.14026046036823764    0.14713765575760948    0.16729859023312385    0.19907396738944108    0.23941368503277566    
  0.2836363728171763    0.3240627946789299    0.3506997003873011    0.3590785565469875    0.3553847230513329    
  0.35075957411815784    0.3520024586836117    0.35681044730174283    0.35888539833573074    0.35675432113202366    
  0.3544837577335417    0.3556859492510609    0.3584741710063019    0.3583055245399669    0.35500970594546644    
  0.35302226978122403    0.3550097369416984    0.35830557443511135    0.35847423594082517    0.35568599826472114    
  0.3544836994447124    0.35675422552717895    0.35888546488733647    0.3568103918992272    0.35200242922611347    
  0.35075949964347497    0.3553846706186469    0.3590786587657657    0.35069974169679985    0.32406287235045644    
  0.2836364033546906    0.2394136772803907    0.19907389839618386    0.16729854395399774    0.14713763645275355    
  0.14026046036823764    0.13726955216791853    0.14468226573724208    0.1669025582099524    0.20458120134881047    
  0.2579988008924394    0.3240628217177079    0.393570693146379    0.44959760710913066    0.4759847677849113    
  0.4752714617646828    0.4693032312828325    0.4721204628314459    0.47183487771526333    0.44965926483287794    
  0.40593118044548465    0.35658008407523184    0.3145021395518032    0.28304888753919255    0.2612160214429476    
  0.24769472190680833    0.24286872378391355    0.24769470018815218    0.2612159416931295    0.2830489388786221    
  0.3145021475000775    0.35658001436166364    0.40593102737016856    0.4496592578122913    0.4718347248431998    
  0.4721204787241394    0.46930319180171626    0.47527136842861767    0.4759849409960132    0.4495975462488618    
  0.3935708127311847    0.3240628332527578    0.2579988105494001    0.20458117637493112    0.16690253386213044    
  0.1446822275740202    0.13726955216791853    0.1270187079124596    0.13440229486836835    0.15734790679073238    
  0.19901071637622234    0.26348533375074296    0.35069968003041735    0.4495975130081314    0.5274085459953698    
  0.5407437044437583    0.4976938674945818    0.4696643720665926    0.4970311663655927    0.538917614729917    
  0.5255119113904926    0.451025152046114    0.35991181218552354    0.283426246936436    0.22923926331000907    
  0.19517704481661088    0.1765390946588358    0.17044789439655264    0.17653902489800355    0.1951769836695519    
  0.22923932245673756    0.28342626015959527    0.35991174755948047    0.45102506822406546    0.525511867738648    
  0.5389175150959338    0.4970312935023372    0.46966440366118245    0.4976938171719405    0.5407436771539637    
  0.5274085517857052    0.4495975862722954    0.3506997370204731    0.2634854139838752    0.1990107885514381    
  0.15734789273825633    0.13440228936044435    0.1270187079124596    0.1141664315779756    0.1211345908854157    
  0.14359350057496162    0.18664168162669673    0.25731000958509725    0.35907858090990263    0.4759848566861981    
  0.5407436759394953    0.4703174801616047    0.3317771770175058    0.2712215766787484    0.3331972635076319    
  0.4726433443312575    0.5419756396446853    0.4755558404270251    0.35958554263388065    0.2614102686041742    
  0.1950432686305751    0.15555514678657256    0.1352656837494966    0.12898798816440613    0.1352656766802803    
  0.1555552472833065    0.19504326699356433    0.26141020984426483    0.35958557955282416    0.47555570173646255    
  0.5419756982623728    0.4726432103059101    0.3331974055350798    0.27122159674062446    0.3317771384855072    
  0.47031749425115604    0.5407437385226599    0.4759849127433338    0.3590786252740466    0.2573099522625233    
  0.1866417378424301    0.14359349942440042    0.12113457441670628    0.1141664315779756    0.10387766905446463    
  0.11032245923504752    0.13173554703367454    0.17429520594267917    0.24697741125591194    0.35538460874945776    
  0.4752713337176463    0.4976938632347281    0.3317771691140521    0.15234815962079679    0.09690996779667559    
  0.1536720565415416    0.33564983564935585    0.5023957818037141    0.4773982088105307    0.35561086596984454    
  0.2474388101047055    0.17614629549705949    0.13507660369133437    0.1146657794237084    0.1085571024641101    
  0.1146657475199985    0.13507672704073903    0.17614619810024074    0.2474387542515401    0.35561085071304427    
  0.4773980891900632    0.5023957684630368    0.3356499945085012    0.1536721102432118    0.09690997441015504    
  0.15234806440445978    0.33177716655995204    0.497693857335349    0.47527153571739317    0.35538463521381913    
  0.24697741713464488    0.174295210075146    0.13173554029536017    0.11032248891100849    0.10387766905446463    
  0.10022592534052971    0.10635837937747734    0.12699605554417187    0.16866130369289928    0.24108281801650366    
  0.35075941191943577    0.4693031178766154    0.469664489366317    0.2712217474074678    0.09691001599343187    
  0.05220363751888111    0.09774700336787465    0.27442186362199833    0.47496412117500036    0.47348167537429264    
  0.3529156821560664    0.24232823491594918    0.17000472224007177    0.12878320893862802    0.10852092905551956    
  0.10253971188177795    0.10852088157930195    0.1287832432746226    0.17000468205570138    0.2423283068430629    
  0.3529155609123921    0.4734815177383452    0.4749642032145589    0.27442191148864337    0.09774705160586786    
  0.05220364997881038    0.09690995944597754    0.2712215773711819    0.4696643036343785    0.46930326609228984    
  0.3507594586871885    0.24108283253210516    0.16866122954685359    0.12699599338754433    0.10635838496407381    
  0.10022592534052971    0.10642205409219138    0.11258878168926029    0.13314542710803157    0.1742538799609092    
  0.2450873360196506    0.3520023178632871    0.47212023876582987    0.497031297475307    0.3331973185101994    
  0.15367215398852982    0.09774704558391645    0.15413555235872348    0.334899293710644    0.5001861198883434    
  0.47545934145616014    0.3546902675447127    0.24729163275714341    0.1763154121455833    0.13522728857049607    
  0.1147558563408049    0.10863636755974451    0.11475586342759972    0.13522730016815832    0.17631544240467084    
  0.24729159308551235    0.3546901831035876    0.4754591601732654    0.5001863498335755    0.33489948311374323    
  0.15413560458991324    0.09774703275918348    0.15367199990840677    0.3331972775342728    0.49703098144018876    
  0.4721204534168667    0.35200241238677854    0.2450874208731735    0.17425390636648103    0.1331453967541365    
  0.11258882292390228    0.10642205409219138    0.1269840560226277    0.13332812244202014    0.15380677176511395    
  0.19340298986166193    0.259463738697429    0.3568104158708025    0.4718348212447228    0.5389175235940954    
  0.47264336725027634    0.3356500246675239    0.27442200232750585    0.33489937808632003    0.4715424180979174    
  0.5384171519437916    0.4723358466676834    0.3581156362684508    0.26126452147069246    0.19540284725354837    
  0.15586861135127347    0.13542233282483312    0.12909201957838212    0.1354222706068506    0.15586859551011562    
  0.19540291363108606    0.26126451743255813    0.3581155921524074    0.47233586765949526    0.5384171262068314    
  0.471542352447013    0.33489956293701245    0.27442197551965325    0.33564997015750064    0.47264332206470894    
  0.538917614304322    0.47183488113504746    0.3568104962347617    0.2594635938755998    0.19340305045810827    
  0.15380676356494788    0.13332809830571438    0.1269840560226277    0.16934377439403495    0.1755517028518202    
  0.19451478181095755    0.22883234783181525    0.28291667092049005    0.3588854114216837    0.44965926333511835    
  0.5255118216117741    0.5419756235107301    0.5023958065227825    0.47496423048887276    0.5001860990054852    
  0.5384171126070134    0.5221863337784409    0.4477134385947561    0.35844351229778365    0.283466695686995    
  0.22984043882653526    0.19567212867845016    0.1767157110225392    0.17048450866226755    0.17671567400031493    
  0.19567216214920866    0.2298404968003074    0.2834666581475098    0.35844345675338685    0.4477133651451554    
  0.5221862915857706    0.5384170212135904    0.5001862427200452    0.4749642827032174    0.5023957102684493    
  0.5419756905938952    0.5255119432789478    0.44965924168901333    0.3588854595489752    0.2829166588688548    
  0.22883230402158697    0.1945148238879874    0.17555163336149024    0.16934377439403495    0.24329290679738266    
  0.24828497655940737    0.26213835253202283    0.28412780745711136    0.31531985057951434    0.35675412688723    
  0.4059309395242797    0.4510252097189496    0.4755556868210842    0.47739820021757884    0.4734814579966826    
  0.47545924877924184    0.47233579477819915    0.4477134225526185    0.40354046429754015    0.3554991842653152    
  0.3148380588793443    0.2839484200563737    0.2619015865120379    0.24784099053582595    0.24275079953189707    
  0.24784093691899553    0.26190164528684845    0.28394850758672874    0.31483794086082834    0.3554991353318862    
  0.4035402986696797    0.4477134918094014    0.47233578735824683    0.4754591808459906    0.47348151848792247    
  0.47739811290047235    0.4755557150273433    0.45102518539830483    0.40593096879360197    0.3567542738737041    
  0.3153198373610549    0.2841278276129696    0.2621383815320115    0.24828495695081085    0.24329290679738266    
  0.35501012704166074    0.35713971734574224    0.3605261885672614    0.3603748111931376    0.35674552666005277    
  0.3544836080798061    0.3565800363064765    0.3599117670662165    0.3595855591381779    0.3556108312360941    
  0.3529157037046025    0.3546902982349905    0.35811552631758653    0.3584434987669586    0.3554992516080239    
  0.3538268699337681    0.3562571658118981    0.3596305980378833    0.35915581964697696    0.35514862886707677    
  0.35276112442730134    0.35514863559304244    0.3591558462876558    0.35963059774113465    0.35625717122006256    
  0.3538268214729903    0.35549913843621517    0.35844348978433604    0.3581155985578565    0.3546903112531489    
  0.3529156899789888    0.35561078188905615    0.3595856482951573    0.3599117204132516    0.35658014022708767    
  0.35448372762099795    0.3567455212375394    0.36037488229286624    0.36052613644083714    0.35713969385177174    
  0.35501012704166074    0.47485737934086236    0.47765543222902956    0.4747781288134569    0.44969984278315395    
  0.4046016896623882    0.3556860008126273    0.3145020343284988    0.28342632482096275    0.2614102169077065    
  0.24743874021538276    0.24232827803753393    0.24729160104600353    0.2612645370003838    0.2834666183622527    
  0.31483809273491975    0.3562571969714844    0.40508168210827783    0.4495215636071606    0.4735419581654593    
  0.47547535085198356    0.47231641912522054    0.47547533549562526    0.473542003696996    0.44952146793572784    
  0.4050816320323345    0.35625714650816426    0.3148378971942278    0.28346677792517744    0.26126446874464054    
  0.24729161580426814    0.24232823437321344    0.24743868995504953    0.26141027071514894    0.2834262634413612    
  0.31450212671661965    0.35568605254048    0.40460171514102206    0.44969966544983736    0.47477803492695364    
  0.47765552368520753    0.47485737934086236    0.47430474366981756    0.5005682689315084    0.5394500454073057    
  0.5233016224447198    0.4483835340451577    0.35847410160854537    0.28304893114546587    0.2292393090191245    
  0.19504321738552136    0.17614628643633895    0.17000467991244983    0.17631544025123322    0.19540280876790883    
  0.22984045299463474    0.2839484370976047    0.3596306170381704    0.4495214699648368    0.5239727783409892    
  0.539304467452671    0.4997169652890127    0.47319823541771844    0.4997168913517368    0.5393045128966116    
  0.5239727584812679    0.44952148287371957    0.35963058951361027    0.2839483969079801    0.2298404653060249    
  0.1954027925371532    0.17631546651392263    0.17000465452385616    0.17614621209842768    0.19504337264437074    
  0.22923931220003918    0.28304892279173005    0.3584741275979046    0.44838353026515304    0.5233017299871809    
  0.539450128484289    0.5005681017487003    0.47430474366981756    0.273242702553794    0.33405341542365    
  0.47106827199722995    0.5383846358852532    0.47258090876147707    0.35830552466799503    0.2612159273217951    
  0.19517700717338016    0.15555524350550862    0.13507670268649852    0.12878320870854268    0.13522729539432304    
  0.1558686788484302    0.19567226540901836    0.2619016902109707    0.3591558080067734    0.4735420535817837    
  0.5393044614841821    0.47168968283145857    0.3343153809154214    0.2733757147697398    0.3343153625959234    
  0.47169003772890516    0.5393044960547086    0.47354204422623747    0.3591557209627176    0.26190158278114256    
  0.19567226832616888    0.15586862328705714    0.13522732827147996    0.12878326499378095    0.13507667556848213    
  0.15555517878974784    0.1951770182203458    0.26121596356479154    0.3583055651510139    0.4725807917500533    
  0.5383845279564159    0.4710681997560369    0.33405333429227246    0.273242702553794    0.09731545480833345    
  0.15339916816511218    0.33367612475704056    0.4991080503691377    0.47518070921628897    0.355009643495286    
  0.24769460409306102    0.17653907588638246    0.13526563841436132    0.11466579277191294    0.10852092556957378    
  0.11475584687711292    0.13542226964280443    0.17671573251791728    0.2478410590544291    0.3551486958628457    
  0.47547546413605163    0.49971688211554566    0.33431522689152526    0.15377729344995036    0.09757398882031057    
  0.1537773344514575    0.33431536937672823    0.4997169702817175    0.47547541818810435    0.3551486384495938    
  0.24784094834782233    0.1767157033372231    0.13542225909229874    0.11475588543177709    0.10852090267930858    
  0.11466575776911186    0.13526566838552334    0.17653904488545438    0.24769477865804926    0.3550097867305216    
  0.47518078224579924    0.49910798630229203    0.3336760211603331    0.15339914805289703    0.09731545480833345    
  0.052176307035540125    0.09729369131683263    0.2728954058481726    0.47290698888660204    0.4724643964567194    
  0.3530221780355555    0.24286863345487875    0.17044790912195373    0.12898796999133816    0.10855712809017311    
  0.10253974794022395    0.10863638487395418    0.12909198036703956    0.17048445093217138    0.24275097129540757    
  0.35276115562478394    0.4723163775891504    0.473198196266658    0.2733755646730141    0.09757394203297787    
  0.05235792295099588    0.09757397198677188    0.27337573230170364    0.47319830218236975    0.472316571802091    
  0.35276101936610227    0.24275084325537175    0.17048455187628755    0.12909195246357127    0.1086364045529083    
  0.10253972819122896    0.10855711214018193    0.12898795742761104    0.1704478521819944    0.24286871423659645    
  0.3530221840174944    0.47246438232174676    0.4729068396525485    0.27289532947186673    0.09729364970575718    
  0.052176307035540125    0.09731546368358941    0.15339913887420797    0.33367606360640706    0.49910812449921593    
  0.47518064796289605    0.355009762220084    0.2476946267971196    0.17653909538795373    0.13526556517441285    
  0.11466579493959728    0.1085209235077008    0.11475585641397348    0.13542228994335184    0.17671566105977304    
  0.24784106554539853    0.3551486141398748    0.4754754815394032    0.499716855493604    0.3343152525222845    
  0.15377727464548663    0.09757395969698915    0.15377728279953476    0.3343153807248452    0.4997169468587652    
  0.475475449989815    0.35514861592042185    0.24784095682104368    0.1767157126424459    0.13542232624985806    
  0.11475585193538679    0.1085209110942046    0.11466573836466126    0.13526566524476483    0.17653896791235546    
  0.24769471264911863    0.3550097860980525    0.47518073637436137    0.4991079806441288    0.3336758966518729    
  0.15339911607975895    0.09731546368358941    0.27324260828288516    0.33405340986266585    0.47106834295565897    
  0.5383844747491177    0.4725808362700942    0.3583055409832475    0.2612159264168489    0.195177071120401    
  0.1555552218134666    0.1350767019485295    0.12878322428950956    0.1352272606635454    0.1558686421384271    
  0.19567220832697046    0.2619017070779543    0.35915582312371047    0.4735421127441078    0.5393044478876524    
  0.4716899543891114    0.3343153632607067    0.2733756551353948    0.3343152262104581    0.4716899614760547    
  0.5393045995451168    0.4735421069313956    0.359155839986363    0.2619016329506851    0.19567223235038192    
  0.15586856879847166    0.1352273097089577    0.12878322681989166    0.13507672938890686    0.15555521455389917    
  0.19517699113163245    0.2612159909701764    0.35830558393583656    0.47258090260362073    0.5383847595696367    
  0.47106827767829845    0.3340533087726827    0.27324260828288516    0.47430467166488705    0.5005682102430619    
  0.5394500540713975    0.523301747974398    0.44838352493542194    0.3584740727770956    0.2830489387630747    
  0.22923931233416908    0.19504324906324685    0.17614629123129058    0.17000474453403003    0.17631541513957938    
  0.19540288773347933    0.22984046246599174    0.28394852314133484    0.35963057899566336    0.44952148619085835    
  0.5239727894070364    0.5393044867368859    0.49971697041510393    0.4731982369625559    0.49971683627800734    
  0.5393045153607606    0.5239727470434903    0.4495215286505806    0.3596305408986322    0.28394840929633614    
  0.22984048353797856    0.19540282881058055    0.17631549201594124    0.17000474392135012    0.17614625421808902    
  0.19504329554230868    0.2292392689751026    0.28304893492716143    0.35847417985759694    0.4483835068333901    
  0.5233016952017961    0.5394501976015595    0.5005680906286505    0.47430467166488705    0.4748574284506867    
  0.4776555120936777    0.47477801701979977    0.44969978102239344    0.40460172541033534    0.35568591775310826    
  0.31450207922452905    0.2834263217143377    0.26141022251071666    0.24743872626138283    0.2423282959003862    
  0.24729157857020093    0.26126449633303717    0.2834666783174854    0.3148381207252129    0.3562572202795903    
  0.40508171112691593    0.4495214035028945    0.47354202696245296    0.4754753429339367    0.4723164550150529    
  0.47547535732803003    0.4735421012653805    0.44952148343021514    0.405081617423814    0.35625709715490106    
  0.31483796645789763    0.28346674251927184    0.26126449737761703    0.24729159109328328    0.24232825511737976    
  0.24743867699708416    0.26141028867679694    0.2834262853387262    0.3145021563805042    0.3556860654888084    
  0.4046017313938519    0.449699777994071    0.47477818054362775    0.47765553696527885    0.4748574284506867    
  0.3550101297357921    0.35713979194774365    0.3605262598171193    0.36037486429169424    0.35674545286064246    
  0.35448362598264155    0.35658000803729734    0.3599118228354943    0.3595855204622768    0.3556108690462103    
  0.35291566080615105    0.3546903791153131    0.35811555932429107    0.3584434692312113    0.35549924166565117    
  0.35382685783047135    0.3562570964922091    0.3596305918216793    0.3591558166092048    0.35514861111453994    
  0.3527611423995086    0.35514864302732957    0.35915586004947764    0.35963070288453647    0.3562571751159145    
  0.3538267675613032    0.3554991353224162    0.35844356738832084    0.3581155333725527    0.3546903448460433    
  0.35291571174592307    0.35561084338140136    0.35958551682125667    0.3599116926556321    0.3565801729864901    
  0.3544837106506391    0.35674546987375066    0.36037484193983527    0.36052617707947965    0.3571397449572788    