#     DFTpy    
  CRYSTAL 
    
  PRIMVEC    
  8.07761835835012    6.442867710193103e-07    1.0636609846896553e-06    
  6.442869240951724e-07    8.077621128343088    1.0752941535813795e-06    
  1.0636611207296552e-06    1.0752941782710344e-06    8.077620568453085    
  PRIMCOORD    
  16    1    
  Si    1.1919355121774435    6.885684331976169    2.8468751752662635    
  Si    6.885683412847257    1.1919380766727659    5.230744235010041    
  Si    1.1919367264281966    1.191937024714205    1.1919374441989103    
  Si    2.8468793565465123    2.8468805387955274    2.8468802413569962    
  Si    6.88568145410289    2.8468753739200037    1.1919361080100581    
  Si    1.1919352458035068    5.230748773956179    6.885684268980236    
  Si    2.8468743079808587    1.191938321047032    6.885684918986388    
  Si    5.230743941102683    6.885686199443686    1.1919362050613438    
  Si    5.230743532985633    2.846881014174068    6.8856886812367435    
  Si    2.8468764142351    5.230741678747577    1.191932285825245    
  Si    5.230740853998783    5.2307456967918675    5.2307441243756765    
  Si    6.88568364163285    6.885687447332544    6.885685939772888    
  Si    2.8468796732024093    6.885691103633187    5.230744409723462    
  Si    5.23073965854365    1.1919318433067017    2.8468774998850814    
  Si    6.885686529457835    5.230744958182282    2.8468804328312913    
  Si    1.1919321917209216    2.8468784783179095    5.230741611124584    
  BEGIN_BLOCK_DATAGRID_3D    
  3d_datagrid_density    
  BEGIN_DATAGRID_3D#0    
  37    37    37    
  0.0    0.0    0.0    
  8.07761835835012    6.442867710193103e-07    1.0636609846896553e-06    
  6.442869240951724e-07    8.077621128343088    1.0752941535813795e-06    
  1.0636611207296552e-06    1.0752941782710344e-06    8.077620568453085    
  0.03333409035235845    0.03438912146799985    0.03735176581340681    0.04154843781736201    0.04586485891562553    
  0.049192862376918105    0.05093562423661944    0.05125698177092214    0.05088626271458452    0.050642246121706425    
  0.05088626459198567    0.05125710650030399    0.05093563590641817    0.04919306290218604    0.04586489131021973    
  0.04154866411132062    0.037351802395633536    0.034389347915419595    0.03333410361306825    0.03438943485096242    
  0.03735193116877314    0.04154885215787027    0.04586514205087717    0.049193320472758754    0.05093587337199235    
  0.05125731266426164    0.05088644762923961    0.050642374261504544    0.050886444432082484    0.05125714393201827    
  0.05093578062675611    0.049193051466001274    0.04586503835292255    0.041548548730088536    0.03735185885088086    
  0.03438913221422881    0.03333409035235845    0.03438910503243605    0.03927231796423862    0.0465791944391672    
  0.05537472899695405    0.06391641562816697    0.07034911276812587    0.07359681048280188    0.07405278429642717    
  0.07330669510356051    0.07287221003649386    0.07330678358315683    0.07405283652000678    0.07359704652685062    
  0.0703492140238911    0.06391673075504667    0.055374769543469496    0.04657948800615368    0.039272332927681494    
  0.0343893371525919    0.03199776964971191    0.03167592411130246    0.03273919985335372    0.03437108209060943    
  0.03582012255802537    0.0366562115116206    0.036872698849334626    0.036733406909873006    0.03661643221889604    
  0.03673335478692533    0.03687263295132196    0.036656082065098496    0.03582007824837969    0.0343708855240284    
  0.03273918465571189    0.031675710667805466    0.03199775040713371    0.03438910503243605    0.037351787145380504    
  0.04651651624051881    0.05927121915567201    0.07426552412964955    0.08876750032641156    0.09969544142503058    
  0.10520553163376337    0.10603016415301156    0.1048643604987249    0.10417786753578356    0.10486434911428386    
  0.1060303601800603    0.10520570553492888    0.09969583175947357    0.08876768575016467    0.07426591694607526    
  0.059271307552974176    0.04651679107454304    0.03735178302404498    0.03172995121151233    0.028885362419986217    
  0.027891828690495123    0.027925144970458688    0.028323453884003428    0.028640471896335753    0.028748627775580855    
  0.028709413070651824    0.028661895317361477    0.028709401723128615    0.02874856299414754    0.028640478026763186    
  0.028323320344629484    0.02792515898291682    0.027891671805761447    0.028885363193692306    0.0317297238371469    
  0.037351787145380504    0.04154846654904517    0.055049834761252976    0.07373525820581495    0.09586648929186103    
  0.11748423861658873    0.13382333821907727    0.14218136165982853    0.14373040030078357    0.14222370116520153    
  0.14125294709313976    0.1422238668870851    0.14373061733065315    0.14218181702166335    0.13382357974052284    
  0.11748474221727902    0.09586669181070037    0.07373568849276574    0.055049882243075714    0.04154868408376027    
  0.03299745591632106    0.028225625465692468    0.025922824685767426    0.025054901913250768    0.024900196692639792    
  0.02495986538132729    0.025002693474901656    0.02498685324773635    0.024962613568994707    0.02498686887648525    
  0.025002687150472824    0.024959807531212942    0.024900229598990145    0.025054799800347742    0.025922846655548056    
  0.028225470584462047    0.03299744184276879    0.04154846654904517    0.045864889577295044    0.06283319688114958    
  0.08655028458738935    0.11495184761328765    0.14294262617013975    0.16426359765435475    0.17544244279681037    
  0.177909263543344    0.17625152968336197    0.17506673209889706    0.1762516559416236    0.1779096651315273    
  0.17544281784304028    0.16426424694031286    0.1429429248760141    0.11495240867454713    0.0865504662251633    
  0.06283354522071749    0.04586488268453809    0.03517594492652194    0.029173235415110875    0.026183474453949862    
  0.02493187115574444    0.0245828004746007    0.02457010544121276    0.024597588469830567    0.02458308589637223    
  0.02456135567506797    0.02458312459472161    0.024597549296923368    0.024570169738838125    0.024582751093102807    
  0.02493192798622704    0.026183373652921307    0.029173283061672932    0.035175734792859105    0.045864889577295044    
  0.04919287977078068    0.06764834920686114    0.09379480033616257    0.12531857081782877    0.15652750980313965    
  0.1805825321820895    0.19352756863687326    0.1966890325030396    0.1951013767082871    0.19387715486509535    
  0.19510160116109482    0.1966892741020697    0.19352812238847636    0.18058290083444536    0.15652818225041884    
  0.12531873244925573    0.09379530109979184    0.06764839506487526    0.04919314720310278    0.0377590231091334    
  0.0314784190511425    0.02849156192907274    0.027389240343782737    0.02720381770310794    0.027295020491746556    
  0.027357576608089157    0.027342299319118746    0.027316257588112555    0.02734231286860659    0.027357602678008807    
  0.027295031196199936    0.027203902842349168    0.027389184593735637    0.028491637800002242    0.031478299858170994    
  0.037759046670663    0.04919287977078068    0.050935626956816665    0.0681926413491953    0.09299358875241072    
  0.12313400255390639    0.1531733672667411    0.17653278532466635    0.18917993689688878    0.19226671901157769    
  0.19076668828391466    0.18961344989424483    0.19076683805185687    0.1922671364686545    0.18918027471490922    
  0.17653340007766233    0.15317365510783373    0.12313456524531288    0.09299381497150519    0.06819300492241943    
  0.050935610414910015    0.04054155177346677    0.03520718141129351    0.03313931408745704    0.032876226275416094    
  0.033327649197610734    0.03377758085295379    0.03394793901144164    0.03390072405946967    0.033840939108134446    
  0.03390079482322986    0.03394796720026296    0.03377771949446959    0.033327676888233064    0.032876340642953535    
  0.03313923321489083    0.03520725938317747    0.04054131979462145    0.050935626956816665    0.05125698414000992    
  0.0648074396667056    0.08484149146323589    0.10952535636510162    0.13436190882318028    0.15377761991875494    
  0.16422184162078923    0.16665977350573932    0.1652844660847606    0.16426233407947285    0.1652846020571472    
  0.16665994158853892    0.16422229148286913    0.1537779510625228    0.13436250879340442    0.10952554271804486    
  0.08484190538398813    0.06480751214848234    0.051257257183303075    0.04372602549083029    0.04081165602144671    
  0.04092929029519985    0.04254706239025125    0.044382773339145636    0.04557861559131372    0.04592745996187257    
  0.04576225490654352    0.045612451117337846    0.04576229599392763    0.045927603285074656    0.04557868932768866    
  0.04438297689073356    0.04254704938285463    0.04092940564132389    0.04081151869264356    0.043726035592111544    
  0.05125698414000992    0.0508862876720698    0.05912668134798718    0.07256877567609327    0.08967894271506929    
  0.10714976001263324    0.12095308150113078    0.1283970105609416    0.1300744143173783    0.1289722309844035    
  0.12815873905564312    0.12897221769016506    0.13007463695219482    0.12839715195244453    0.12095345762743807    
  0.10714991791741335    0.08967934932706437    0.07256888252087114    0.05912701130323063    0.050886303397238444    
  0.04777395569440437    0.04890619375994066    0.052875193296487315    0.057922808123387334    0.062317743132550674    
  0.06483534511196326    0.06542400235624393    0.06501009166205302    0.06469464669356956    0.06501020476242533    
  0.06542408131019165    0.06483556150652861    0.06231776788468086    0.05792297718603092    0.05287505320426704    
  0.048906253468527824    0.04777370030821327    0.0508862876720698    0.050642231654623025    0.05301899595905224    
  0.059767005815961775    0.06950310647869141    0.07990353963465711    0.08834585795232393    0.09296515310214686    
  0.09397481121652329    0.09321305032674312    0.09265996999989369    0.09321315099888679    0.0939748091000009    
  0.09296536445899055    0.08834596117981211    0.07990386092393308    0.06950318980011168    0.0597673690018566    
  0.053019059474745105    0.05064253253393445    0.05301913838207238    0.05976741425410555    0.06950324342040883    
  0.07990386937592092    0.08834586500574415    0.0929651600730627    0.09397458269988243    0.0932128423710488    
  0.09265977635613734    0.09321294860965539    0.0939747646496563    0.09296519205863556    0.08834601812556042    
  0.07990372443605935    0.06950324542960624    0.05976713000841859    0.053019027649944504    0.050642231654623025    
  0.050886326238917895    0.04777372762386461    0.04890618146317339    0.05287502038839673    0.05792288866420243    
  0.06231771630553008    0.06483556492205911    0.06542418975966503    0.06501030260958361    0.06469490063278929    
  0.06501032596240898    0.065424277892389    0.06483556644254872    0.06231799082450952    0.05792293479161001    
  0.05287529282906026    0.04890625685848684    0.047774085546561956    0.05088644837723063    0.05912727870303783    
  0.07256916611774249    0.08967971603620316    0.10715020038222561    0.1209536444706343    0.12839715040774505    
  0.1300745983880285    0.1289720907068377    0.1281586796486529    0.12897216780634435    0.13007457964567332    
  0.1283973074814867    0.12095342169052706    0.10715006565597608    0.08967926027141901    0.0725689655217106    
  0.0591268036049146    0.050886326238917895    0.05125713373866202    0.043726055395156005    0.040811574414180374    
  0.04092936509843876    0.042547051640295375    0.04438293855603726    0.04557874766518636    0.045927652034762165    
  0.0457624478231757    0.04561257444054426    0.04576246283195086    0.04592761470393541    0.04557886357716198    
  0.044382955765063396    0.04254726748653268    0.040929400267157294    0.04081187908507124    0.04372621819889898    
  0.05125761316474357    0.0648079594404321    0.08484261183487685    0.10952632839209928    0.13436336374136063    
  0.1537785531662965    0.16422288758107612    0.1666602648520931    0.1652848701503639    0.16426250109146406    
  0.16528486099415762    0.16666020043791824    0.16422245019771378    0.15377823873231922    0.1343625576641913    
  0.10952579713060571    0.08484183728190212    0.06480759953160528    0.05125713373866202    0.05093574035829231    
  0.040541458138314716    0.03520723288726094    0.03313930042813669    0.032876303397591664    0.03332772497662992    
  0.03377772460441702    0.03394807131578416    0.03390083999366786    0.03384110402801247    0.033900840121944664    
  0.03394815251001506    0.033777693817332775    0.03332785685229289    0.032876307910992414    0.033139501525000566    
  0.03520736361042774    0.04054187599281653    0.050936031257556226    0.0681937577040287    0.09299477090716038    
  0.12313592470516943    0.15317501359266034    0.1765348385201587    0.18918139848081914    0.1922681694462755    
  0.19076750108088472    0.18961420598946224    0.1907673959260857    0.19226762300888578    0.18918082383119678    
  0.17653379329362892    0.15317409822900918    0.12313468433307592    0.09299404680004997    0.06819296430446915    
  0.05093574035829231    0.049193122954931306    0.03775908150770042    0.03147839324555737    0.02849162124087537    
  0.027389248541093092    0.027203874758014078    0.027295070669475775    0.027357611397450105    0.027342402060270162    
  0.02731626170567877    0.027342438341941885    0.027357592504332888    0.027295191856870158    0.027203916167789992    
  0.027389433602829475    0.02849165863590259    0.031478691125307996    0.037759293223035624    0.0491937591668629    
  0.0676492105071461    0.09379663677721024    0.1253203658520763    0.156530208506438    0.1805847567991002    
  0.19353004034222804    0.19669073328088268    0.19510293981864202    0.19387822122317555    0.1951025918039342    
  0.1966900254118027    0.19352884261595046    0.18058351728298103    0.15652861457352818    0.1253191882862973    
  0.0937954420319403    0.06764855823579022    0.049193122954931306    0.04586498853133605    0.035175895200125894    
  0.0291732726235989    0.02618346616142818    0.024931863658283777    0.024582831536227364    0.024570128532031027    
  0.024597623908234764    0.02458309492565198    0.024561480222964213    0.024583114730235407    0.024597701856439474    
  0.02457015287183869    0.02458299438573069    0.02493195580969037    0.02618370636557981    0.02917342111680836    
  0.03517636285542217    0.045865429907667565    0.06283454799727915    0.08655171875971537    0.11495431956550142    
  0.1429449639365033    0.16426666179920776    0.17544474741592542    0.17791164505640225    0.1762531202036814    
  0.1750681879720701    0.1762527578801002    0.17791061957252194    0.17544360175862872    0.16426487010820498    
  0.14294344321297447    0.11495271238215768    0.08655075941883934    0.06283361412764607    0.04586498853133605    
  0.0415487007048609    0.03299748396135051    0.028225550979144365    0.025922818196902567    0.02505486708828858    
  0.02490014617552115    0.02495986438727859    0.025002629689854464    0.02498694034808448    0.02496260261441435    
  0.024987009673589612    0.02500269951172582    0.024960066141004964    0.024900257187143438    0.02505514299056408    
  0.025922950550615408    0.028225961070343846    0.03299773706756511    0.041549333941302766    0.05505064940096912    
  0.07373701211889426    0.09586823115717232    0.11748687031704948    0.13382556705561652    0.1421839351325887    
  0.14373225363310405    0.14222549675877433    0.14125416518360667    0.14222504824985974    0.14373139242242808    
  0.1421826183637087    0.13382421799618452    0.11748521345868589    0.09586706557904827    0.07373581514794438    
  0.05505000889325511    0.0415487007048609    0.03735184257398327    0.03172989296215498    0.028885326464056265    
  0.027891742123314488    0.0279250577116078    0.028323372375273246    0.028640375426061716    0.028748620356490808    
  0.028709367124006697    0.028662024385448348    0.028709428408270787    0.028748825086076922    0.028640584962903535    
  0.02832375170301057    0.027925303048842703    0.02789211228475889    0.028885571291536936    0.0317303804869852    
  0.037352228001924635    0.046517599677923495    0.059272219052725415    0.07426733642757197    0.08876915097460078    
  0.09969759773302786    0.10520712612248646    0.10603192382500139    0.10486547789236773    0.10417904775575548    
  0.1048651411718419    0.10603110675926439    0.10520622942962925    0.09969631352069115    0.08876807859173158    
  0.07426610659316475    0.05927148561062831    0.04651680789211764    0.03735184257398327    0.03438929857737249    
  0.03199772874338191    0.03167581704105458    0.03273909074399629    0.034370924447130434    0.03581992910613002    
  0.036656122612193004    0.03687252680908806    0.03673347771664119    0.03661641128540655    0.03673367477496445    
  0.03687281328379557    0.03665660455460801    0.0358203782888333    0.03437152369702241    0.03273946706762587    
  0.031676363249262735    0.031998059665905486    0.034389878301316276    0.03927282478316386    0.04658033503401149    
  0.0553756019482686    0.06391790009297527    0.07035025505746141    0.07359822560043687    0.07405374785963599    
  0.07330776171301713    0.07287285641332611    0.07330748793388842    0.07405326051334446    0.0735975110339719    
  0.07034950273791617    0.06391694697644636    0.055374975969172735    0.0465795499231612    0.039272384343377195    
  0.03438929857737249    0.03333410923047816    0.034389290869453394    0.037351796881649656    0.04154863480903244    
  0.04586486033062749    0.04919305212043663    0.0509355845568702    0.05125718916055207    0.05088633758388394    
  0.0506426292059945    0.05088662745793463    0.05125781163834667    0.05093629714447288    0.04919397653174576    
  0.04586560386164573    0.04154946985123196    0.037352320982226336    0.03438991117990664    0.033334438831701195    
  0.03438989486375396    0.03735224382994136    0.04154937234614991    0.04586550904665947    0.04919389871619423    
  0.050936210595179075    0.05125784094749383    0.05088671427195317    0.050642784170856416    0.050886592857629344    
  0.05125744719823567    0.05093584813591469    0.04919329817406687    0.04586504765856404    0.041548742461190925    
  0.03735186121606761    0.034389305966813416    0.03333410923047816    0.03438930406400479    0.03927236782549035    
  0.04657946907113066    0.055374778434391626    0.06391665836936243    0.07034911645256091    0.07359703318938804    
  0.07405281120178572    0.07330708544663861    0.07287254012136953    0.07330760635564369    0.07405368880008467    
  0.07359838713842061    0.07035042748772832    0.06391809766544562    0.0553757797892169    0.04658043620983413    
  0.0392728951997468    0.03438989410057254    0.03199805727161573    0.03167633658066127    0.03273943369216747    
  0.03437146242747147    0.0358203234323345    0.036656564172173126    0.036872869059100165    0.0367337113333403    
  0.036616513063784405    0.036733592509652434    0.03687265615525359    0.036656268062630164    0.035820085883534185    
  0.034371043268645526    0.03273917258097139    0.03167587137987785    0.0319977565031844    0.03438930406400479    
  0.03735185679578032    0.04651680312197742    0.05927137563102983    0.07426584959356905    0.08876760126363996    
  0.09969575595383198    0.10520552367182316    0.10603043879843546    0.10486454204364436    0.10417860060419419    
  0.10486523032667273    0.10603190490554115    0.10520734295900601    0.09969791869224387    0.08876942968996203    
  0.07426758935707323    0.059272405377043355    0.046517708503170455    0.03735228050636648    0.03173040611567154    
  0.02888557612391937    0.02789213669902036    0.027925280777744352    0.028323713692380355    0.028640550213653432    
  0.02874884958978907    0.028709479894789586    0.02866207573021592    0.028709438964339463    0.02874869600056306    
  0.028640463880144736    0.02832343858172211    0.027925137069347874    0.027891800866995057    0.028885369137917585    
  0.031729906594923946    0.03735185679578032    0.041548722950627656    0.05505001457858478    0.07373568481800731    
  0.0958667389830976    0.1174846669014312    0.13382336313587603    0.14218160378156638    0.1437304158285224    
  0.14222412964141104    0.1412534960233867    0.14222518393021535    0.14373221725962698    0.1421842469931308    
  0.13382598459429057    0.11748731427290784    0.09586860861159777    0.07373730354620774    0.055050809523972365    
  0.041549426782411344    0.03299778075323359    0.02822595567992824    0.02592297125609566    0.02505510771181493    
  0.024900261038356027    0.024960041111431398    0.025002732946074198    0.02498700386309473    0.02496262594083164    
  0.02498698962723397    0.025002668565505825    0.024959891552221045    0.024900204709065964    0.02505489258268311    
  0.025922842547451506    0.02822562673427114    0.03299751441892841    0.041548722950627656    0.04586504476212491    
  0.06283361270488584    0.08655062443619037    0.11495238409000416    0.14294282442610182    0.16426389237123018    
  0.17544235474078257    0.17790940735892555    0.17625159090546005    0.17506743838496627    0.17625271139696871    
  0.17791162327005736    0.17544512556795672    0.16426715968761751    0.1429454626824075    0.11495477164394458    
  0.08655204485133383    0.06283475008418474    0.04586551709802471    0.03517643052317868    0.02917345036302497    
  0.026183716556000724    0.024931939754995216    0.024582969821721718    0.024570143342464094    0.024597721450071837    
  0.024583104987424713    0.024561463669329573    0.024583104507051194    0.02459763436037817    0.024570137277656025    
  0.02458283424849816    0.024931887435068866    0.026183470198097202    0.029173317218211977    0.03517594633365674    
  0.04586504476212491    0.04919317023237529    0.06764862227694272    0.0937953486397901    0.12531895595169135    
  0.15652797289167097    0.1805825319356378    0.1935276023709073    0.1966887672342632    0.19510140840014453    
  0.19387736266699385    0.19510257319577656    0.19669076030995844    0.19353046008357508    0.18058535835640485    
  0.15653081875898753    0.1253208893573402    0.09379701948437076    0.0676494182650898    0.04919388351517834    
  0.03775936536270526    0.03147873364961542    0.028491700981587268    0.027389427237997404    0.027203912443791396    
  0.027295156628525535    0.02735760804895598    0.027342423168704118    0.027316256499283865    0.027342409027881234    
  0.0273575773496364    0.02729506744683831    0.027203870598261463    0.027389244890865725    0.028491641783714033    
  0.031478441276346775    0.037759138635888104    0.04919317023237529    0.05093581340495267    0.06819305383770582    
  0.09299400236082933    0.12313447275617154    0.15317355553302456    0.1765329406919386    0.18917964214305438    
  0.19226645690220664    0.1907662826385438    0.18961348055559202    0.190767149551601    0.19226820499433256    
  0.18918174297153878    0.17653543437409555    0.15317557150645708    0.12313642501968736    0.0929951191184798    
  0.06819398850685536    0.0509361826184    0.04054195173345544    0.03520739656576488    0.03313953603843789    
  0.03287632390745565    0.03332784185688905    0.03377767263447529    0.03394812705420245    0.03390079553891569    
  0.03384104079428498    0.033900812817132364    0.03394799406089001    0.033777662144801684    0.033327686468050344    
  0.032876279232876456    0.03313928628646648    0.03520729872589126    0.04054150924761456    0.05093581340495267    
  0.051257225693392944    0.06480770075369262    0.08484188116683011    0.10952568648632859    0.13436222378271978    
  0.15377762845886778    0.16422163807740403    0.1666592650943438    0.1652839905752972    0.16426188245070483    
  0.16528460946704016    0.16666025709184756    0.16422318284959772    0.15377907905145194    0.13436382339215835    
  0.10952669602733796    0.08484286823901777    0.06480815752228465    0.05125774787374066    0.043726294553460075    
  0.040811928923464184    0.04092946973609838    0.04254728768264322    0.04438294429820822    0.04557880397422191    
  0.04592760102380942    0.045762407899498314    0.04561248500993039    0.0457623426480513    0.0459275465859785    
  0.045578668741469236    0.04438287485543785    0.04254701678348851    0.04092934443177388    0.04081159972658594    
  0.04372611506651074    0.051257225693392944    0.05088642072080944    0.05912691812027171    0.07256900358063308    
  0.08967921378612102    0.10714988919726066    0.12095303363438369    0.12839672512362427    0.13007398331909237    
  0.12897164328776797    0.12815831651568232    0.12897189634265077    0.13007465839621593    0.12839739243405507    
  0.12095401604377794    0.10715055372939954    0.08968005592588442    0.07256942095968426    0.05912747258548275    
  0.0508866068506718    0.04777419495385372    0.04890636639586195    0.05287539797498976    0.0579229540971245    
  0.06231799530116446    0.06483553986353284    0.06542423467908574    0.06501022869489247    0.06469478520200411    
  0.06501018383656723    0.06542403105564053    0.06483544053037057    0.062317644483707996    0.05792284857530577    
  0.05287499667471875    0.04890620833066938    0.047773796407926436    0.05088642072080944    0.05064231962027156    
  0.05301913821815975    0.05976715574577997    0.06950325642249    0.07990361992025995    0.08834581117233728    
  0.09296494749878688    0.09397441957641754    0.0932125990785608    0.09265957975074775    0.09321277050426548    
  0.09397458230046064    0.092965326368719    0.0883460711333541    0.07990408303641795    0.06950347102953659    
  0.05976761213993574    0.05301928052477819    0.050642701928859724    0.053019220170068375    0.05976752204787998    
  0.06950337640428488    0.07990400254026431    0.08834605808424885    0.09296537771615568    0.09397480814068947    
  0.0932130224590629    0.09265983348735636    0.09321289867488079    0.09397461456191823    0.09296496348956189    
  0.08834580804908408    0.07990348912876565    0.06950310107023523    0.059767060137112894    0.053019028038797676    
  0.05064231962027156    0.05088637722530509    0.0477737858783847    0.048906275693469115    0.05287508435607372    
  0.057922969697278844    0.06231766403494687    0.06483544295300574    0.06542391273797812    0.06501003742057301    
  0.06469453814295924    0.0650100477684722    0.06542400415367429    0.06483545566970238    0.06231788753521085    
  0.05792296453153373    0.052875307731416764    0.04890632936408125    0.04777409598016479    0.050886487067320046    
  0.05912722487715977    0.07256915471041522    0.08967966343413326    0.10715017969764234    0.12095368727668454    
  0.12839726014863634    0.13007470560004025    0.12897221451393684    0.128158599971626    0.12897205552741273    
  0.1300742655095141    0.12839694205027982    0.12095298840968811    0.10714975597353135    0.08967894268455377    
  0.07256883074844575    0.05912671705447708    0.05088637722530509    0.05125705643755098    0.04372613029777516    
  0.04081157638658643    0.04092945154795137    0.042547031646503    0.044382946395130955    0.045578624167099756    
  0.04592754136769328    0.04576220467772964    0.04561238288957309    0.04576220383090208    0.04592745510673095    
  0.045578674521050334    0.04438288230779439    0.04254715883596001    0.040929395310896476    0.0408117910084075    
  0.043726166405108326    0.05125746357569397    0.06480782976358544    0.08484230191531932    0.10952605549185279    
  0.13436295709095247    0.15377839243446534    0.16422257838133647    0.16666018801067983    0.16528462036044952    
  0.1642623198700738    0.16528440613473153    0.1666597294466397    0.16422176600319238    0.15377768821817295    
  0.13436197398753802    0.10952547478464567    0.08484158012999353    0.06480750563689301    0.05125705643755098    
  0.05093572383980878    0.040541397490684514    0.0352072708469559    0.033139264248305544    0.03287634697634714    
  0.03332765165566231    0.03377770148356929    0.03394792612035584    0.03390076835285192    0.033840940866811234    
  0.033900755141115665    0.03394795098145064    0.03377761254887158    0.03332769514545419    0.03287627302635362    
  0.0331393653252904    0.03520729947388301    0.04054165907829484    0.05093588214629394    0.06819335668758261    
  0.09299434801499797    0.12313521191715832    0.15317438591311752    0.17653410731739047    0.18918082726746163    
  0.1922675747870537    0.1907670764358456    0.18961353518459595    0.19076684610523287    0.19226683493423494    
  0.1891801476236009    0.17653293377261944    0.153173542175065    0.12313412262983446    0.09299381862670779    
  0.06819272955196    0.05093572383980878    0.049192979388914135    0.037759113894206324    0.0314783283789356    
  0.028491666914961182    0.02738918060229861    0.02720391590714285    0.02729501064960577    0.027357604734453374    
  0.02734229138714001    0.027316224690955127    0.027342284037243425    0.027357532906949183    0.027295034953560074    
  0.02720385014468887    0.027389264476673295    0.028491611052423895    0.031478490672385125    0.03775917637887234    
  0.04919339198766299    0.06764882419990263    0.09379587956614413    0.12531960404541007    0.1565290260741703    
  0.18058379242626457    0.19352884748263777    0.1966899334874576    0.19510197551025826    0.19387751361376662    
  0.19510161741817986    0.1966893520091168    0.1935278892685671    0.18058289150906023    0.15652781691760898    
  0.12531881665869424    0.0937950349236692    0.06764845367293243    0.049192979388914135    0.0458649727448048    