#     DFTpy    
  CRYSTAL 
    
  PRIMVEC    
  2.0081388068992663    -3.4781984422002754    0.0    
  2.0081388068992663    3.4781984422002754    0.0    
  0.0    0.0    6.638334786366141    
  PRIMCOORD    
  4    1    
  Si    2.0081388068992663    1.159399480733425    0.418278155721536    
  Si    2.0081388068992663    -1.1593994807334256    3.7374455489046063    
  Si    2.0081388068992663    1.1593994807334254    2.9008892374615343    
  Si    2.0081388068992663    -1.1593994807334254    6.220056630644605    
  BEGIN_BLOCK_DATAGRID_3D    
  3d_datagrid_density    
  BEGIN_DATAGRID_3D#0    
  19    19    29    
  0.0    0.0    0.0    
  2.0081388068992663    -3.4781984422002754    0.0    
  2.0081388068992663    3.4781984422002754    0.0    
  0.0    0.0    6.638334786366141    
  0.055499436397999244    0.05789145282251092    0.06583277946211061    0.08212440913371187    0.11156528455689499    
  0.15918027117963113    0.22677571325502563    0.3061499565100354    0.3738203213096281    0.400797042894632    
  0.3738203275575384    0.3061499683156449    0.22677571123748383    0.1591802599630673    0.11156527251155848    
  0.08212441201744056    0.06583277646950265    0.057891447354125374    0.055499436397999244    0.057891454164791155    
  0.05789055880084514    0.0630766425659469    0.07533055137109596    0.0986395011205864    0.13842095785991468    
  0.1989586483728569    0.27736327819506124    0.35614418860189234    0.40652802441626057    0.40651347369859253    
  0.3561530299350324    0.2773808374070038    0.19894228766570127    0.13841667691929654    0.09864602687793379    
  0.07532924653383108    0.06307642078799527    0.057891454164791155    0.06583277853441963    0.06307664205717697    
  0.06583365299226251    0.07532763272893488    0.09495707363933038    0.12999121537160538    0.18628781148750606    
  0.26397670080948954    0.34777456396984135    0.4102056367104622    0.4323972773282771    0.41021031985189127    
  0.3477452336352996    0.2639799517809593    0.1863077318387273    0.1299881215950328    0.09495214578575852    
  0.07532924444261    0.06583277853441963    0.08212441417907845    0.07533056179274733    0.07532764110104312    
  0.08212783661562024    0.09863791123090818    0.12999151618292726    0.1829023954012187    0.2590230545616351    
  0.3404376962412361    0.3933111283426728    0.40884753535427537    0.4088650375986929    0.3933235194174959    
  0.3404488778261242    0.2590083537251878    0.18289755124283544    0.12998812502231927    0.09864601718055968    
  0.08212441417907845    0.11156527273810532    0.09863948778921713    0.09495707657988439    0.09863788847824345    
  0.1115726348057051    0.13841540134434105    0.1862962555660358    0.25901219753062127    0.33677001249039074    
  0.36976650637932224    0.3460240777360882    0.32542803792021086    0.34599174153369877    0.3697735383238343    
  0.33677415244932296    0.2590083801063424    0.18630773806263098    0.1384166724418865    0.11156527273810532    
  0.15918026352878867    0.13842095673485555    0.12999122118137002    0.1299915163165962    0.1384154113840732    
  0.15917738646839408    0.19895908323165634    0.26397372489266113    0.3404429721183495    0.3697863682640798    
  0.3134161682353468    0.24609764069770487    0.24611995703890796    0.31341950543106867    0.36977348675945865    
  0.3404488406385171    0.26397991954617084    0.19894226159116501    0.15918026352878867    0.22677571349745088    
  0.19895865418461056    0.18628783305071095    0.1829023924848089    0.18629625848865175    0.19895907552296502    
  0.22676134790556984    0.2773834744511649    0.3477525029358063    0.3933214171088993    0.34599054721662237    
  0.24612033214730364    0.20130425657151146    0.24611996490872626    0.34599173205971134    0.39332353481336857    
  0.3477452261072186    0.2773808309167149    0.22677571349745088    0.3061499457688371    0.27736328091751794    
  0.2639766986313704    0.2590230024712611    0.25901219536945724    0.2639737024278763    0.27738347841527067    
  0.3061418951412673    0.3561503381761973    0.41021126953371495    0.40885521956520593    0.3254311962731754    
  0.24612032520442978    0.24609764396865544    0.32542804513958035    0.40886506526611255    0.4102103037085816    
  0.35615303288897276    0.3061499457688371    0.3738203288349781    0.3561441918336637    0.3477745906465722    
  0.34043768587734224    0.3367700287660659    0.3404429726549562    0.34775248765566236    0.3561503476329797    
  0.37382760987478386    0.4065083203967805    0.4324073713755459    0.40885523144359887    0.34599054186264355    
  0.31341617354364554    0.3460240156074299    0.4088475443070193    0.43239726156363156    0.4065134780454205    
  0.3738203288349781    0.40079704005983036    0.40652800315935284    0.410205648578902    0.3933111289787905    
  0.36976654186363656    0.3697863721470364    0.3933213887864863    0.41021131141203837    0.4065083092728551    
  0.40081288425360784    0.40650831684111205    0.4102113232540802    0.39332136752383834    0.36978635601639465    
  0.36976651829031476    0.3933111365549639    0.41020563915283453    0.4065279863764601    0.40079704005983036    
  0.3738203541527348    0.4065134736478796    0.43239727582785675    0.40884752403825025    0.3460240515801448    
  0.3134161254172705    0.3459905374668284    0.4088552350247012    0.4324073702479671    0.40650829653882153    
  0.37382760122463704    0.3561503509567767    0.34775249254239726    0.3404429893532269    0.33677000602277796    
  0.3404377068277876    0.34777458470824885    0.3561441831509714    0.3738203541527348    0.3061499581685394    
  0.3561530691210223    0.4102102954861896    0.40886500221662647    0.3254280768501164    0.24609761614571596    
  0.24612035272516822    0.3254312208468771    0.4088551902201116    0.41021129766968734    0.3561503628619314    
  0.3061419073030954    0.2773834612736751    0.2639737436365086    0.25901219936498043    0.2590230089802613    
  0.2639767000915363    0.27736324892940256    0.3061499581685394    0.22677571356063644    0.27738085966743226    
  0.3477452649277029    0.3933235058990371    0.3459917668556934    0.24611994435692255    0.20130425409795366    
  0.24612035941588978    0.3459905372042208    0.3933213902928392    0.347752495851801    0.2773834772085729    
  0.226761373317932    0.19895907709034572    0.1862962416380199    0.18290240757612336    0.1862878114634731    
  0.19895864104482258    0.22677571356063644    0.15918025940487154    0.19894227876814422    0.26397993425042143    
  0.34044881966650914    0.3697735549746965    0.31341948188871366    0.246119952802804    0.2460976351762246    
  0.31341615330832634    0.3697863710761253    0.34044298992311367    0.2639737042734277    0.1989590659772153    
  0.1591774032875772    0.13841540023615173    0.1299915234869628    0.1299912267201287    0.13842096706747914    
  0.15918025940487154    0.11156528188317266    0.13841668794249978    0.18630773364873404    0.25900837947064953    
  0.3367741689464485    0.3697734912329022    0.34599178797157215    0.32542808234892256    0.34602404879202864    
  0.3697665134824631    0.3367700211545302    0.25901222027974885    0.18629623618016944    0.13841543075688106    
  0.1115726256056735    0.09863789588468978    0.09495707196945688    0.09863947839449924    0.11156528188317266    
  0.08212441200134694    0.09864602835842749    0.1299881296085209    0.18289754986513654    0.25900841395429064    
  0.3404488406029437    0.39332353394541214    0.4088650592511793    0.4088475204507338    0.3933111593304426    
  0.340437708891279    0.25902302486504775    0.1829023872501397    0.1299915236115541    0.09863789341651188    
  0.08212784009430059    0.07532763697746742    0.0753305534787648    0.08212441200134694    0.06583277824963409    
  0.07532924795562009    0.09495214964676334    0.12998811530437276    0.1863077582665867    0.2639799218259577    
  0.3477452872717    0.41021032755484177    0.4323972638934781    0.4102056376754013    0.3477745815021601    
  0.26397671768745257    0.18628780270474465    0.12999122612534086    0.09495706785990043    0.07532763704156856    
  0.06583365304233155    0.06307664290580516    0.06583277824963409    0.05789145104311466    0.0630764272144863    
  0.07532925567216033    0.09864601870883329    0.13841669161567707    0.19894226389042813    0.2773808638731119    
  0.35615307022589987    0.4065134423161573    0.4065280071900865    0.35614419736767267    0.27736325148875024    
  0.19895863952073625    0.13842097598831782    0.09863948646312129    0.07533056197671777    0.06307664218365408    
  0.05789055248714085    0.05789145104311466    0.055499436397999244    0.05789145282251092    0.06583277946211061    
  0.08212440913371187    0.11156528455689499    0.15918027117963113    0.22677571325502563    0.3061499565100354    
  0.3738203213096281    0.400797042894632    0.3738203275575384    0.3061499683156449    0.22677571123748383    
  0.1591802599630673    0.11156527251155848    0.08212441201744056    0.06583277646950265    0.057891447354125374    
  0.055499436397999244    0.054621074005631855    0.05695490988663584    0.0646518020894185    0.08026270442900199    
  0.10823291148516084    0.15318557345005707    0.21653445252675646    0.2901251117465388    0.35230205434593626    
  0.37701164042953333    0.35228278902738036    0.29012056671376135    0.21654913460571298    0.15318696163284454    
  0.10822422176906747    0.08026468510042715    0.06465219423948364    0.05695478589513921    0.054621074005631855    
  0.0569547916317549    0.05695496543393393    0.06151924100334282    0.07216133029872572    0.09227543823627202    
  0.12645046255273068    0.1781330623022453    0.24484128562727112    0.3121402486432453    0.3556862285216496    
  0.3556857365829828    0.31215695272002314    0.24484904809031244    0.1781151529539782    0.12644822793720242    
  0.09228546851245882    0.07215883114574254    0.06151946524253185    0.0569547916317549    0.06465220002883769    
  0.06246084448440468    0.0646520012473932    0.07215749554879279    0.08768044435009255    0.11534074715862566    
  0.15963841940060244    0.2214680369092223    0.2912056378936499    0.34759531602159166    0.36926142220994945    
  0.34759646392928806    0.2911844008242039    0.2214667051947803    0.15965714387104582    0.11534005843413879    
  0.08767180347505135    0.0721588301484795    0.06465220002883769    0.08026468561657753    0.07541995931306307    
  0.07541960180269525    0.08026661302245246    0.09227503771530558    0.11534094344594753    0.15438971096469226    
  0.2121104651503948    0.2813456415241057    0.34217861441921166    0.3753688863885711    0.37537374688221364    
  0.3421802406528588    0.2813623302890872    0.21210766710744233    0.15437507311982462    0.11534004500337676    
  0.09228546238032855    0.08026468561657753    0.10822423144469326    0.09983032039486472    0.09756055795546563    
  0.09982945411820204    0.10823453851892573    0.12644978863290593    0.1596398882821084    0.21210834399610207    
  0.2784374826641957    0.3368010719293878    0.36611832749930656    0.3720933748660349    0.36610819349057094    
  0.3368065908848187    0.2784238459715455    0.21210768925967494    0.15965714224629787    0.12644823007749315    
  0.10822423144469326    0.1531869649648612    0.14116408586905116    0.1368839045645866    0.136881726300279    
  0.1411535498719258    0.15318337599865953    0.17813322884565014    0.22146715340175227    0.28134648330222284    
  0.3368129299174499    0.3585656524353864    0.3524831421998114    0.3524931576999677    0.35856475880122823    
  0.3368065730140122    0.28136233381817044    0.2214666691646449    0.17811513768928577    0.1531869649648612    
  0.21654913218657063    0.20357850134024316    0.19944590188231506    0.19888067261782147    0.1994627861072906    
  0.20358210793978931    0.2165304122855444    0.24484833359411276    0.2911997475637311    0.3421756932843509    
  0.3661072165304679    0.35249331755166236    0.3389350562520364    0.3524931647817706    0.3661081850099837    
  0.3421802439117102    0.29118440636289306    0.2448490394145925    0.21654913218657063    0.2901205565453311    
  0.28304845601026685    0.28307609133608025    0.28411367294343876    0.28409932400126303    0.28306211443520884    
  0.28307349342358135    0.290120045134082    0.3121402456629131    0.3476030854577062    0.3753719935875245    
  0.3720929697802806    0.35249329254897377    0.352483140297    0.3720933707999968    0.37537374414656066    
  0.3475964404495057    0.31215695357732626    0.2901205565453311    0.3522828058950505    0.36071346354503603    
  0.3663931647657036    0.360892654753506    0.35574625487874256    0.36090370797418386    0.36637687371455246    
  0.3607053361925699    0.35230641458206446    0.35567708169915757    0.36926214605688934    0.37537200326255593    
  0.36610720116461415    0.3585656821174467    0.3661182679380878    0.37536890175895615    0.36926143336677075    
  0.3556857364366189    0.3522828058950505    0.37701162629182977    0.40898727893435227    0.42023645387043157    
  0.3850076846891446    0.3402062185703181    0.34021748391343826    0.38501773714347465    0.4202488380800261    
  0.4089557564539979    0.3770269664991518    0.3556770832990388    0.34760309907527503    0.34217563718396055    
  0.3368129189766737    0.33680105124201976    0.3421786075280112    0.3475953208911822    0.3556862163445928    
  0.37701162629182977    0.3523020564424927    0.4089703993673894    0.43668205853916375    0.3708691667101794    
  0.25973383893682495    0.21179282077121814    0.25971664246279685    0.37085247534105825    0.43672061597972905    
  0.4089557761338129    0.3523064107093759    0.31214023137702795    0.29119973964113066    0.28134650287736424    
  0.27843748987917305    0.28134562372520733    0.2912056553820242    0.3121402544263591    0.3523020564424927    
  0.2901251017613196    0.36070079417864126    0.4202477952750639    0.3708800900825322    0.21949628724605985    
  0.12058745763251548    0.12058409531276082    0.2195207831861735    0.3708524553363417    0.42024883205409924    
  0.36070532825171303    0.2901200492856704    0.24484831318936756    0.22146716956906326    0.21210834056409367    
  0.2121104523550751    0.2214680163203719    0.24484127969129385    0.2901251017613196    0.216534450741622    
  0.2830725385613354    0.3663749861291151    0.38501778812886317    0.25971783427476836    0.12058400422666103    
  0.07692205876692675    0.12058409811799115    0.25971662977371884    0.3850177416753633    0.36637687964995336    
  0.2830734770554556    0.21653041121599212    0.1781332470215701    0.1596398820809844    0.1543897107825059    
  0.15963841868296394    0.17813305387901038    0.216534450741622    0.153185574500409    0.2035747373091446    
  0.2830691198950513    0.3609062979237392    0.34018948740306726    0.21181627160567626    0.12058401102284534    
  0.12058746929651712    0.2117928126576538    0.3402174861876775    0.3609037120908466    0.28306211126195513    
  0.20358210156392811    0.15318339994568358    0.12644979677080329    0.11534094980989747    0.11534075218806485    
  0.1264504793200534    0.153185574500409    0.10823291481539091    0.14115311126081628    0.19946779365359327    
  0.28408579236033954    0.3557815273510862    0.34018948648715147    0.2597178144189998    0.2194962621124571    
  0.2597338081284334    0.3402061848268338    0.3557462349774477    0.28409932081152195    0.19946275468738917    
  0.1411535579044695    0.10823452614336972    0.09227502174851698    0.08768044201079421    0.09227542266535765    
  0.10823291481539091    0.08026270622296841    0.09983488049058976    0.1368770674824712    0.1988898513037674    
  0.2840858192131087    0.3609063105065398    0.3850177984147012    0.370880098372137    0.3708691839407325    
  0.3850077257473472    0.3608926726805784    0.2841136636902245    0.19888067039621124    0.13688173796245864    
  0.09982945504711367    0.08026661673221751    0.0721575021469061    0.07216133612897835    0.08026270622296841    
  0.06465180126950897    0.07541953396263928    0.09756024084734374    0.1368770526832848    0.1994678067056536    
  0.2830691065605627    0.36637499979932964    0.4202478136236034    0.4366820322772245    0.4202364557638307    
  0.3663931469963516    0.2830761059542951    0.19944587404273303    0.1368839151497921    0.09756054678375621    
  0.0754196014522985    0.06465199424236431    0.061519245222420284    0.06465180126950897    0.05695490884138423    
  0.06246118118923241    0.07541953638245412    0.09983486918488642    0.14115311722483795    0.20357473191967254    
  0.283072548954829    0.3607008159066983    0.4089703734552004    0.4089872873391905    0.3607134475329113    
  0.2830484321385589    0.20357850472136346    0.14116409236516367    0.0998303187386083    0.07541995397126766    
  0.06246085019413065    0.05695495616639901    0.05695490884138423    0.054621074005631855    0.05695490988663584    
  0.0646518020894185    0.08026270442900199    0.10823291148516084    0.15318557345005707    0.21653445252675646    
  0.2901251117465388    0.35230205434593626    0.37701164042953333    0.35228278902738036    0.29012056671376135    
  0.21654913460571298    0.15318696163284454    0.10822422176906747    0.08026468510042715    0.06465219423948364    
  0.05695478589513921    0.054621074005631855    0.05228239569912309    0.054389350322839786    0.06131287732422889    
  0.07512614713076342    0.09933698186230192    0.1373909742501034    0.18983729041752273    0.24929749785541522    
  0.29858413609996415    0.31800662174713346    0.2985637348930455    0.24929182514225423    0.18985231553185397    
  0.13739390937362841    0.0993263106775854    0.07512882199207396    0.061313118809211996    0.05438943645483397    
  0.05228239569912309    0.05438944345505464    0.05439112845458362    0.058157851130264705    0.06677602507329128    
  0.08274373359592516    0.1093294689864226    0.14867510168226034    0.19835276253280396    0.24752173710260778    
  0.2790890579106517    0.27909014313713326    0.24753784327570338    0.19835617028476496    0.14866206250216357    
  0.10932560619035725    0.0827553189513561    0.06677249156925719    0.05815896951569715    0.05438944345505464    
  0.061313121172006615    0.05969143701258295    0.061312318789368284    0.06677125481898619    0.07795046106984009    
  0.09765384027392404    0.12868955903999982    0.17142398512547366    0.2195112102470883    0.2589596501583281    
  0.27443975719474706    0.25896105834260574    0.2194962035529257    0.171420994461553    0.12870473113700148    
  0.0976539482543535    0.07794133922333173    0.06677248979396608    0.061313121172006615    0.07512882296736288    
  0.07212485125528485    0.0721240409783509    0.07513171355808528    0.08274384852789567    0.09765561380799853    
  0.12294149291040814    0.16037877485371946    0.20675462685856819    0.25114440614580513    0.27852162264426095    
  0.2785238485900461    0.25113941104366166    0.20677244552238236    0.1603765013652526    0.12292995982906334    
  0.0976539421699164    0.08275530703094348    0.07512882296736288    0.09932632198591734    0.09522178714222287    
  0.09425402084520153    0.0952212446085173    0.09933616995948338    0.10932787898994431    0.12868999940736253    
  0.1603765983837615    0.2033432241336512    0.24905783070131715    0.28335410555677054    0.29566954098575005    
  0.28335414481862226    0.24906110488533512    0.20332883570186705    0.1603765276935037    0.12870474379181993    
  0.10932561025628813    0.09932632198591734    0.1373939029801203    0.13362617345791822    0.13322922127727543    
  0.1332275645133651    0.13361419250796716    0.13739151472565567    0.14867524027931775    0.17142465989569172    
  0.20675475180550798    0.24906784878020274    0.285175214662283    0.30377535295134955    0.3037740685153233    
  0.2851767057500998    0.2490610910339577    0.20677243921334934    0.17142096625244635    0.1486620567063077    
  0.1373939029801203    0.18985230507998596    0.19040556871828332    0.19429721223790544    0.1963572582167209    
  0.19431450208983198    0.1904105885227177    0.18983667591490422    0.1983534217575248    0.2195121139548576    
  0.2511346668868094    0.2833533567807241    0.30377410976392705    0.3097066106560861    0.3037740488974218    
  0.2833541295636856    0.251139418820778    0.21949618634439244    0.19835614783085706    0.18985230507998596    
  0.24929180881563415    0.2608572946259538    0.27378519694351755    0.2812107634283118    0.2811976876293802    
  0.2737690330488099    0.26087648058159824    0.2492967037093863    0.24751786646618018    0.2589698994607207    
  0.2785213798459545    0.2956719320335648    0.30377409288818646    0.30377534729067296    0.29566953684956787    
  0.27852383361102745    0.25896104391655406    0.247537846590667    0.24929180881563415    0.2985637169509547    
  0.3277531745168105    0.3493253393026591    0.3524868340263092    0.34958441165756327    0.3524977946994404    
  0.34931850179818713    0.327738247034325    0.29859074131674335    0.2790796094587002    0.27444078250159637    
  0.27852139077086724    0.2833533340358348    0.2851752252592398    0.28335406344279335    0.27852163414492676    
  0.27443977497950567    0.2790901430799474    0.2985637169509547    0.3180066151419358    0.3683029525696959    
  0.39416499109400255    0.36540528374594927    0.32117457255293985    0.3211831737300583    0.36540671831703675    
  0.3941841389173656    0.36826654882463544    0.31802485495231375    0.2790796196687627    0.25896990631512323    
  0.2511346453411024    0.24906786004858342    0.24905782807412136    0.25114439836217506    0.2589596655921697    
  0.27908905415209495    0.3180066151419358    0.2985841573133368    0.36828752643555435    0.40642989350476344    
  0.3423713302459716    0.23008121691327618    0.18266412412250393    0.23007766847078057    0.34234189197253856    
  0.40647928190903954    0.3682665611601843    0.29859077369336    0.24751787098122544    0.21951211202500795    
  0.2067547553577968    0.20334321623078264    0.20675461590215677    0.21951123694124408    0.247521737146125    
  0.2985841573133368    0.24929750205626963    0.32773664239694567    0.3941765120698796    0.34237973214572287    
  0.18772040985672955    0.09369001929856086    0.09367289062640281    0.18775544690553667    0.3423418873523793    
  0.39418412033660677    0.32773823306610267    0.2492967215760607    0.19835342736429312    0.17142467889409577    
  0.16037659947778218    0.16037876886094768    0.17142398396444503    0.19835277529132997    0.24929750205626963    
  0.18983727783793622    0.26087586312454886    0.3493186638560556    0.36540623373740144    0.23007842592020017    
  0.0936726065512798    0.05484278792750995    0.09367289927052068    0.23007767734983353    0.36540672317510214    
  0.34931850531830394    0.26087647492314064    0.189836677702032    0.1486752478820292    0.12868999620063926    
  0.12294149594423097    0.12868955284784234    0.14867507810947708    0.18983727783793622    0.13739097927081678    
  0.19041069611186476    0.27377018168948586    0.3525062089881278    0.32114546360159474    0.18269905520683097    
  0.09367260809718263    0.09369002749854524    0.18266412995585593    0.32118319372354287    0.3524978088116004    
  0.2737690372696449    0.19041058887273318    0.13739152208694536    0.10932788311713947    0.09765560550332517    
  0.09765385758525393    0.109329477668937    0.13739097927081678    0.0993369784271768    0.13361081548716797    
  0.19431992492318606    0.28117912894771757    0.34963001860476844    0.32114546756732515    0.230078431298126    
  0.1877204012991253    0.23008119842333855    0.3211745538941246    0.3495843894252519    0.2811977041541808    
  0.19431447597093338    0.13361420351046302    0.09933616219974287    0.0827438348881606    0.07795045010233295    
  0.08274372607918808    0.0993369784271768    0.07512615002094677    0.09522794493911331    0.1332215497740056    
  0.1963710634376929    0.2811791488508292    0.3525062515512769    0.3654062315884551    0.34237974663821563    
  0.3423713461794577    0.3654053139222848    0.35248682355409316    0.2812107621459084    0.1963572678077945    
  0.13322756733420074    0.09522124075770184    0.07513172190651796    0.06677126223066047    0.06677602740421926    
  0.07512615002094677    0.06131287793889613    0.0721232558197219    0.09425445431682097    0.13322153407405382    
  0.1943199384910978    0.2737701494905487    0.3493186372990702    0.3941764871562403    0.406429896275374    
  0.39416495908845817    0.3493253416102972    0.2737852111994186    0.19429717320169781    0.13322922354271263    
  0.09425401305175607    0.07212403860899728    0.06131231286044509    0.05815784884556425    0.06131287793889613    
  0.054389347169047864    0.05969318296058227    0.07212326602534436    0.09522793798045545    0.13361081391901675    
  0.19041069410987393    0.2608758551240966    0.3277366590835958    0.36828752114070173    0.3683029362108536    
  0.32775316828382434    0.26085729056972634    0.19040556194370417    0.13362619238724266    0.09522177874455645    
  0.07212484727435102    0.05969143525868863    0.05439112885355807    0.054389347169047864    0.05228239569912309    
  0.054389350322839786    0.06131287732422889    0.07512614713076342    0.09933698186230192    0.1373909742501034    
  0.18983729041752273    0.24929749785541522    0.29858413609996415    0.31800662174713346    0.2985637348930455    
  0.24929182514225423    0.18985231553185397    0.13739390937362841    0.0993263106775854    0.07512882199207396    
  0.061313118809211996    0.05438943645483397    0.05228239569912309    0.048919465466142016    0.05069802182718407    
  0.05652523399309745    0.06798679697614382    0.08744177599632733    0.11689268750856788    0.15605301773591554    
  0.19921010835710168    0.23423877875348295    0.24786795809270107    0.23422257625108694    0.19920828907639992    
  0.15606925138237998    0.11689160210920839    0.08743524696070003    0.06798833067964745    0.05652576569562608    
  0.0506981287747812    0.048919465466142016    0.05069813031231898    0.050697537173994375    0.05363910392976759    
  0.06031255556647707    0.07234784554730876    0.09161468491887645    0.11908643248804646    0.15258624229643752    
  0.18474426011073627    0.20496134267632204    0.20496269946005524    0.18475585560193838    0.15258815391785469    
  0.11907174281100322    0.09161548447849142    0.07235406709861465    0.06031114647245643    0.053638436920781324    
  0.05069813031231898    0.056525767309492755    0.055396360381557444    0.05652572699827466    0.06031001767313446    
  0.06794508131218334    0.08107550455812662    0.10114062834131196    0.12793919651260927    0.1571939004312434    
  0.18070793379090197    0.1898781521083011    0.18070852871576074    0.1571829740086636    0.12793872576062001    
  0.10115381489735102    0.08107451037058243    0.06793940932400815    0.060311145919496746    0.056525767309492755    
  0.06798833280018571    0.06630022233095827    0.06630002584664034    0.0679895420326513    0.0723469261814544    
  0.08107521116963799    0.0959595194348083    0.11773918722084944    0.1443077764782656    0.1696624370288339    
  0.1855614903712341    0.18556268997994338    0.16966058568440778    0.1443180340483501    0.11773867611651422    
  0.09594829188560577    0.08107450100837536    0.07235405269101343    0.06798833280018571    0.08743525774159833    
  0.08620130277982054    0.08602904961626147    0.08620063462899097    0.0874429465790462    0.09161619756937077    
  0.10114035111125771    0.11773998898644973    0.14076837326717556    0.16611300837619858    0.18644042323845825    
  0.19426272832063143    0.18643937255280318    0.16611550834877148    0.14075942358283924    0.11773866666169976    
  0.10115381772898123    0.09161549395524186    0.08743525774159833    0.11689161165370136    0.1184565238316132    
  0.12033120111583542    0.12033005881523413    0.11844819764633435    0.11688966377703378    0.11908624756637366    
  0.12793783540554493    0.14430873075466677    0.16611797786192337    0.1874935558511609    0.2006152134876943    
  0.20061728257810793    0.18749254245431535    0.16611550836911193    0.1443180121494917    0.12793871323588155    
  0.11907173097897367    0.11689161165370136    0.15606924037254993    0.16479241318354484    0.1733890410700978    
  0.17687769342763815    0.17340209124369546    0.16479385612737393    0.15605345636139886    0.1525897928191119    
  0.15719191899921944    0.16965793763325498    0.18643887014498037    0.2006173339632858    0.20601700533061187    
  0.2006172845279732    0.18643935297239292    0.1696605891889406    0.15718296637019247    0.15258813734979504    
  0.15606924037254993    0.19920827707399869    0.22100203935426715    0.24229735534770996    0.254641264233021    
  0.25462795038689123    0.2422902188771926    0.2210237960880564    0.19920455445282675    0.18474512615767685    
  0.1807130323113886    0.18556278609744606    0.19426205262522342    0.20061733112119645    0.20061520918441528    
  0.19426274533889826    0.18556270964568508    0.18070851690323161    0.1847558770955771    0.19920827707399869    
  0.23422258062462498    0.2738204826040492    0.309894318853904    0.3285578765611584    0.3324574756893131    
  0.328564007219769    0.30987443145101456    0.2738201739679405    0.23423888685534064    0.20495713458889933    
  0.18987688815579123    0.18556278470372034    0.18643885597014984    0.18749356777338766    0.18644038993976522    
  0.18556150211880656    0.18987816068332022    0.20496269743141268    0.23422258062462498    0.24786794240167112    