#     DFTpy    
  CRYSTAL 
    
  PRIMVEC    
  3.3580344827586206    0.0    0.0    
  0.0    3.3580344827586206    0.0    
  0.0    0.0    3.3580344827586206    
  PRIMCOORD    
  4    1    
  Si    0.0    0.0    0.0    
  Si    0.0    1.6790172413793103    1.6790172413793103    
  Si    1.6790172413793103    0.0    1.6790172413793103    
  Si    1.6790172413793103    1.6790172413793103    0.0    
  BEGIN_BLOCK_DATAGRID_3D    
  3d_datagrid_density    
  BEGIN_DATAGRID_3D#0    
  15    15    15    
  0.0    0.0    0.0    
  3.3580344827586206    0.0    0.0    
  0.0    3.3580344827586206    0.0    
  0.0    0.0    3.3580344827586206    
  0.05341398821109803    0.10225767517902705    0.28090123593061933    0.4450481160910848    0.42452440436719086    
  0.3419000415398254    0.28741304049636507    0.2704054670770497    0.2874130127747813    0.3419000211491682    
  0.424524461365887    0.44504806074537967    0.28090119006861075    0.10225769906610424    0.05341398821109803    
  0.10225770838533203    0.1614513379248821    0.3368096389192376    0.46441235541355774    0.4306278750874492    
  0.35275585331950104    0.3029419933467096    0.28741300300413436    0.3029419556817341    0.35275581205865997    
  0.43062792000637123    0.46441234957954464    0.3368096104257576    0.16145138403477782    0.10225770838533203    
  0.2809011535349944    0.3368096562270883    0.45047212208371995    0.49196722734824777    0.44486224621575915    
  0.387186808776809    0.3527558586892149    0.34189999932990095    0.35275588966851623    0.38718682532441434    
  0.4448623025910427    0.49196706057378503    0.4504721211139661    0.3368096957204764    0.2809011535349944    
  0.4450480446232924    0.4644122807977987    0.49196714878475845    0.488975062413528    0.4656683352384855    
  0.44486229383996656    0.4306279420936182    0.424524419849674    0.4306278971159888    0.44486219223441364    
  0.46566838704660973    0.48897504627921656    0.4919672146052574    0.46441232574434504    0.4450480446232924    
  0.4245244360282514    0.43062790015404023    0.44486229188019544    0.4656683752278708    0.4889749837404087    
  0.4919671970433482    0.46441230769410224    0.44504803476119764    0.4644122586131497    0.49196715840851457    
  0.48897504115473606    0.4656684378715906    0.44486226722307465    0.43062795203177934    0.4245244360282514    
  0.34189999973322077    0.35275580426810926    0.3871867838183139    0.44486227567036096    0.4919671830822739    
  0.4504721138754554    0.3368096668295614    0.2809011587540693    0.3368096871656199    0.4504720944493844    
  0.4919672003259703    0.4448622383668883    0.38718678416600943    0.3527558385360148    0.34189999973322077    
  0.2874130533459276    0.3029419537184885    0.3527558172193566    0.4306279623120539    0.4644122388993646    
  0.3368096035256369    0.1614513500464106    0.10225769187005147    0.16145140392932206    0.33680963021482224    
  0.46441223524181463    0.43062784988880093    0.3527558332273752    0.30294197929239947    0.2874130533459276    
  0.27040554951976764    0.28741297942899385    0.3419000526958982    0.4245244768903187    0.44504800835268005    
  0.2809011944832581    0.1022577173108294    0.05341397982749164    0.10225770490450181    0.2809011727046219    
  0.445048059786879    0.42452445711739834    0.34190000775295226    0.2874129771302081    0.27040554951976764    
  0.2874130245977257    0.30294193968060545    0.352755869308688    0.43062798184626877    0.46441228464940204    
  0.33680964788791823    0.16145140384873996    0.10225767816541306    0.16145139534482844    0.336809658043592    
  0.4644123000595163    0.430627966420159    0.35275583535821914    0.3029419708740297    0.2874130245977257    
  0.34189991356926125    0.35275582962547786    0.38718677011621    0.44486223138984343    0.4919671074240062    
  0.45047209148597733    0.33680968671551875    0.28090117555180677    0.3368097177648349    0.4504720869075085    
  0.4919671750843771    0.44486226076972013    0.38718677357492626    0.35275586703461    0.34189991356926125    
  0.42452444086620644    0.4306278815298397    0.44486230881202726    0.4656684037390041    0.48897494642064887    
  0.49196726387409756    0.46441230223524055    0.44504805142400145    0.4644122791770101    0.49196712859568015    
  0.48897505622648746    0.4656684267162141    0.44486225462777323    0.4306279670871329    0.42452444086620644    
  0.4450480578972365    0.4644122649069298    0.49196715275995434    0.4889750272002762    0.4656683285058583    
  0.44486228870928163    0.43062798730543844    0.42452439650594787    0.43062797814002884    0.4448622722019903    
  0.4656684019822083    0.4889751204707662    0.4919671451815718    0.4644122605846144    0.4450480578972365    
  0.280901159566509    0.3368096583081711    0.4504720846351178    0.4919671768076538    0.4448622844097672    
  0.38718684312495394    0.3527558478815784    0.3418999811865967    0.352755861279994    0.38718681502071145    
  0.4448623467788197    0.4919671374780842    0.4504720132479629    0.3368096578555559    0.280901159566509    
  0.10225770349653318    0.1614513622316313    0.33680963388128404    0.46441231243225983    0.43062781350550894    
  0.3527558427136659    0.30294195849080613    0.28741301313465534    0.30294197407844925    0.352755805455254    
  0.4306279366851272    0.46441231180182035    0.3368096379967521    0.16145137063206733    0.10225770349653318    
  0.05341398821109803    0.10225767517902705    0.28090123593061933    0.4450481160910848    0.42452440436719086    
  0.3419000415398254    0.28741304049636507    0.2704054670770497    0.2874130127747813    0.3419000211491682    
  0.424524461365887    0.44504806074537967    0.28090119006861075    0.10225769906610424    0.05341398821109803    
  0.10225768431032814    0.1614513547688342    0.33680969005651806    0.46441236881673065    0.4306278166315003    
  0.3527558066290827    0.30294200098930146    0.2874129998325042    0.3029419696976309    0.35275582923209653    
  0.43062793440373703    0.46441222727120346    0.33680964094724947    0.1614513811795764    0.10225768431032814    
  0.16145134866624125    0.224468657400944    0.38407395922885434    0.4771999012231203    0.43473417686252175    
  0.36253173914922543    0.31722192498043095    0.3029419330738814    0.3172219424751333    0.36253166921396135    
  0.4347342595101216    0.47719990166465087    0.384073946306127    0.22446867364607093    0.16145134866624125    
  0.33680960748543015    0.38407394804890366    0.47128021425157407    0.4916515410398882    0.4438008689451264    
  0.39261780388021944    0.3625317115543066    0.3527558292447435    0.36253183517754406    0.39261782355423497    
  0.44380086888271036    0.49165143484927304    0.47128007690000673    0.38407402354611336    0.33680960748543015    
  0.4644122376863892    0.4771998928197084    0.4916514331656521    0.4813928163530217    0.4592923188163607    
  0.4438008859050518    0.43473422518177046    0.43062794335623633    0.4347342220554591    0.4438007660674748    
  0.4592923873863123    0.48139290490418424    0.4916515062278075    0.4771999116637519    0.4644122376863892    
  0.4306279475656999    0.4347342921184933    0.4438008583681923    0.45929232288279287    0.4813928426454918    
  0.4916514819664161    0.4771999449371536    0.46441225230879957    0.4771999018065542    0.49165145553236245    
  0.48139286076403226    0.4592923878136672    0.44380086632686966    0.43473421294792414    0.4306279475656999    
  0.3527557897662643    0.3625317029975289    0.39261774897414853    0.44380084656732294    0.49165142561449876    
  0.4712801462670081    0.38407398058938524    0.3368096014832246    0.3840740019971376    0.47128012259530294    
  0.49165149255331414    0.4438008742654071    0.39261782189074906    0.3625317156917482    0.3527557897662643    
  0.30294198203823086    0.3172218650525564    0.36253175256858117    0.43473426271852356    0.47719985012358407    
  0.38407393874392576    0.2244686435065043    0.1614513669217588    0.22446866367640955    0.38407394192429095    
  0.47719991231234615    0.4347342400811134    0.3625317140978515    0.31722194050658625    0.30294198203823086    
  0.28741301978830097    0.30294197144690543    0.3527558546147023    0.430627950183521    0.4644123038833246    
  0.33680966946159574    0.16145137837973517    0.10225769755215454    0.16145139247056067    0.3368095941896683    
  0.46441228958678094    0.4306279603651921    0.3527558239144286    0.30294195425371273    0.28741301978830097    
  0.30294199356055207    0.31722188240042193    0.36253175558240197    0.4347343042670382    0.47719989605622853    
  0.3840739708240572    0.22446866993073655    0.16145134262606012    0.22446864713273487    0.3840739725866606    
  0.4771998935045092    0.4347342164646726    0.3625317129453671    0.31722191030538965    0.30294199356055207    
  0.3527557594979036    0.3625317623132368    0.39261777359576283    0.4438009032286386    0.4916514837543523    
  0.4712800779036381    0.38407395092547303    0.33680965039631866    0.38407403318376193    0.4712801930806901    
  0.49165144326565946    0.44380081580674124    0.39261778273098585    0.3625317549213428    0.3527557594979036    
  0.4306279459494938    0.434734185264998    0.443800944550212    0.4592923205323729    0.481392834234777    
  0.4916514855473639    0.4771998146769752    0.46441230902419256    0.47719988302632294    0.49165143440431275    
  0.4813927907460779    0.45929243812746495    0.4438008503988168    0.43473426403406984    0.4306279459494938    
  0.4644122821774498    0.47719990208734603    0.4916515119375736    0.4813928285583167    0.45929231016995525    
  0.4438008733791084    0.43473425788523656    0.4306279217536729    0.4347342470634926    0.4438008610933216    
  0.4592924201781767    0.48139281985002724    0.49165144040202435    0.47719987017443866    0.4644122821774498    
  0.3368096167312079    0.38407389482466847    0.47128006616922435    0.49165149873602476    0.44380085379022993    
  0.39261776209597793    0.36253175657520426    0.3527557685225287    0.3625317599152066    0.3926177775147973    
  0.4438008946450085    0.4916515042978022    0.4712800556272117    0.38407395404833633    0.3368096167312079    
  0.16145137494150613    0.22446867610956933    0.38407396406641847    0.4771999999993939    0.43473422898802166    
  0.36253172481281065    0.31722189538899637    0.3029419054726519    0.31722191395388505    0.36253167519436885    
  0.43473427806073994    0.4771998637223476    0.38407392816727604    0.22446867017078598    0.16145137494150613    
  0.10225768431032814    0.1614513547688342    0.33680969005651806    0.46441236881673065    0.4306278166315003    
  0.3527558066290827    0.30294200098930146    0.2874129998325042    0.3029419696976309    0.35275582923209653    
  0.43062793440373703    0.46441222727120346    0.33680964094724947    0.1614513811795764    0.10225768431032814    
  0.28090114792365617    0.3368096045449393    0.450472158754254    0.49196717270036394    0.44486224304592237    
  0.38718678523320316    0.3527558514266113    0.3418999957975918    0.3527558234264382    0.38718682772986446    
  0.4448622431979108    0.49196710969722585    0.4504720824869294    0.3368096488383302    0.28090114792365617    
  0.33680961231168943    0.3840739346646518    0.4712801743503875    0.4916514920654576    0.4438008130356359    
  0.39261779550494913    0.36253173502424973    0.3527557769390385    0.3625317616242302    0.39261774149086265    
  0.4438008414908713    0.4916515129096199    0.47128005464026873    0.38407396033836244    0.33680961231168943    
  0.4504720578024911    0.47128014950479213    0.49801136322919276    0.48283896720543057    0.44123690215896433    
  0.4089919024546896    0.3926177954658679    0.38718674568971395    0.39261786144744737    0.4089918964905944    
  0.4412368744292074    0.4828388908766472    0.49801123975218764    0.4712802382693524    0.4504720578024911    
  0.4919671846562205    0.49165145031743906    0.48283893731866917    0.4628389814330523    0.44556702602522846    
  0.4412369658102991    0.44380086660803325    0.44486226119430616    0.4438008779615254    0.4412368946956895    
  0.4455670549300174    0.4628389609151541    0.48283894515082115    0.4916514085595932    0.4919671846562205    
  0.4448622470227244    0.44380086947779845    0.44123696487338865    0.44556705496787996    0.46283901269399413    
  0.4828390083279719    0.4916515213841173    0.49196713857905705    0.49165151817615393    0.4828388438747046    
  0.46283897233958715    0.44556716559440995    0.4412369304011213    0.44380082555270783    0.4448622470227244    
  0.38718677911338206    0.3926177480273239    0.40899191515056255    0.4412369442445052    0.4828388836661256    
  0.49801137038478316    0.4712800422291624    0.4504720362988661    0.4712802195867652    0.49801139270795736    
  0.48283897357415617    0.44123682149570304    0.40899188148439347    0.39261777769388123    0.38718677911338206    
  0.35275581737654643    0.3625316861778935    0.3926177595300955    0.44380089264182665    0.4916513487347333    
  0.4712801454714817    0.3840739094578626    0.3368096237559833    0.3840739858049165    0.47128012209410447    
  0.4916515284771983    0.4438008177258892    0.3926177913294036    0.362531742163509    0.35275581737654643    
  0.3418999875304556    0.35275577394455526    0.3871868433621498    0.4448623759043983    0.4919671539941276    
  0.4504721291622419    0.3368096501092472    0.2809011858343044    0.3368096162605574    0.45047206897313696    
  0.4919671880699442    0.4448622206978001    0.3871867597584723    0.352755819845765    0.3418999875304556    
  0.35275580169684034    0.36253168932699836    0.3926178017601453    0.4438009300940539    0.4916514363679475    
  0.4712801029037591    0.38407392860534584    0.33680958493848256    0.3840739921097738    0.4712801125330536    
  0.49165146567039647    0.44380093532031434    0.39261775057548653    0.362531736480746    0.35275580169684034    
  0.3871867535513281    0.39261777787587915    0.40899189736066394    0.44123690937793975    0.48283888994731894    
  0.49801126204881574    0.47128012118155704    0.45047209265962185    0.47128012206926473    0.49801127008368373    
  0.482838910132252    0.44123687429582586    0.40899192037601556    0.3926177552955197    0.3871867535513281    
  0.4448622408140942    0.44380085189932217    0.4412369058407032    0.44556706209303104    0.4628389512205069    
  0.48283898122010516    0.4916514120648287    0.49196716161736054    0.4916515179385994    0.48283893724033927    
  0.46283905290721333    0.4455671339760856    0.4412368830380215    0.44380091731843924    0.4448622408140942    
  0.49196723343078735    0.49165142985402494    0.48283896211168026    0.46283898397649553    0.4455670567536736    
  0.44123693187580487    0.44380092496052254    0.44486222040681966    0.44380086051419426    0.4412369191353383    
  0.4455670591215067    0.462838995387263    0.482838894157494    0.4916514902751061    0.49196723343078735    
  0.45047207038807036    0.471280147566942    0.49801134579818446    0.48283898148874155    0.4412369097530051    
  0.4089918860098828    0.3926178408910782    0.3871867642722594    0.3926177742547852    0.40899189402184627    
  0.441236958415096    0.48283891992475025    0.49801131400129955    0.4712802191033021    0.45047207038807036    
  0.3368095945457067    0.38407391436265664    0.47128011504811984    0.4916515303314297    0.4438007914111546    
  0.3926178304992066    0.36253170472753465    0.3527557867098361    0.3625317555356953    0.3926177598281955    
  0.44380089125053107    0.4916514986592177    0.4712801621835192    0.38407391339150704    0.3368095945457067    
  0.28090114792365617    0.3368096045449393    0.450472158754254    0.49196717270036394    0.44486224304592237    
  0.38718678523320316    0.3527558514266113    0.3418999957975918    0.3527558234264382    0.38718682772986446    
  0.4448622431979108    0.49196710969722585    0.4504720824869294    0.3368096488383302    0.28090114792365617    
  0.44504804743367793    0.46441228102439186    0.49196719393396415    0.4889751354607833    0.46566835460995465    
  0.44486232436604894    0.430627928940913    0.42452437703796264    0.43062790128664186    0.4448622886506917    
  0.46566838839969066    0.4889749778580149    0.4919671026491284    0.4644123418864275    0.44504804743367793    
  0.46441224988092084    0.47719992025881663    0.491651503854694    0.48139288268697145    0.4592922694399098    
  0.4438008007544041    0.4347342524368681    0.4306278440159542    0.4347342752588757    0.4438008077342743    
  0.4592923861259794    0.48139290972092136    0.4916514214308537    0.47719992175512754    0.46441224988092084    
  0.49196713748268567    0.49165142076513796    0.4828388462950837    0.46283903419173617    0.44556707216532476    
  0.44123693370758466    0.4438009144051747    0.44486221179333774    0.443800933441425    0.4412369022066069    
  0.4455670969730036    0.4628389891047119    0.4828388550612878    0.4916515010294757    0.49196713748268567    
  0.48897507844669447    0.48139283699106905    0.4628390487363211    0.44488776213023234    0.4380599665864474    
  0.4455671867320286    0.4592923360756896    0.4656683903506594    0.4592923423584004    0.44556702528726766    
  0.4380600591807557    0.4448878636754785    0.4628390528341692    0.4813928631876201    0.48897507844669447    
  0.4656684116593615    0.4592924350949934    0.4455671137052043    0.438060048549435    0.444887733069936    
  0.46283901295263596    0.48139283028183144    0.48897504248814083    0.48139283590384546    0.462839064762469    
  0.444887781640946    0.4380600714830533    0.4455670039180506    0.4592923459382187    0.4656684116593615    
  0.444862241678141    0.4438007906601804    0.4412369157670011    0.4455670931011936    0.46283903031048257    
  0.4828389594348237    0.4916514866945079    0.4919671286886043    0.4916515649930877    0.48283888947750575    
  0.46283907840679156    0.44556702408067395    0.4412368629555817    0.4438008688427978    0.444862241678141    
  0.4306278519787613    0.43473425414099165    0.4438008899362631    0.459292415117963    0.4813927553719866    
  0.4916514215220916    0.4771999163203674    0.4644122174808829    0.47719986603592807    0.4916514207077417    
  0.48139291820910407    0.459292364162546    0.4438008176558001    0.434734236129737    0.4306278519787613    
  0.4245243985276243    0.43062782547802925    0.44486233795651076    0.46566841041795787    0.4889749340063605    
  0.4919671608149164    0.46441234115458346    0.4450480892545918    0.4644122608063191    0.49196715094801363    
  0.48897514490658534    0.46566834158537634    0.44486225690209996    0.43062788368298244    0.4245243985276243    
  0.43062792776013326    0.4347342557088847    0.4438007881246943    0.45929249229867314    0.48139281225834846    
  0.49165149995701274    0.4771999069722099    0.4644122362821776    0.47719992529086763    0.49165140957621767    
  0.4813928843568683    0.45929235873965635    0.4438008401390659    0.43473426144719446    0.43062792776013326    
  0.44486225725068324    0.4438008710531361    0.441236929561689    0.4455670890244386    0.46283904304981033    
  0.4828389087094405    0.4916515137438265    0.4919671083543387    0.4916515482005409    0.4828388648514885    
  0.4628390739719213    0.44556707166578186    0.44123688444905146    0.44380087608664376    0.44486225725068324    
  0.4656683686247248    0.459292342270849    0.44556715090632626    0.43806001200106554    0.44488770454003373    
  0.46283908925557    0.4813928338040709    0.4889751221355062    0.48139291212639096    0.4628390216528759    
  0.44488781562808327    0.43806008574286026    0.44556706434987353    0.4592923616826997    0.4656683686247248    
  0.4889751088345621    0.48139283615766865    0.4628390299794656    0.4448877139275853    0.4380599848110315    
  0.44556711891072354    0.45929242495009226    0.46566838097726604    0.45929234139755537    0.4455671116012725    
  0.438060117070187    0.4448877670097058    0.46283903341956617    0.48139282499316915    0.4889751088345621    
  0.4919671094099071    0.49165140075404007    0.48283892845843907    0.46283898928937106    0.44556708080934904    
  0.4412369283934339    0.4438008946075986    0.4448622632250863    0.4438009202209464    0.4412368665857253    
  0.4455670405529578    0.46283896216544335    0.48283883983243414    0.49165149644993567    0.4919671094099071    
  0.4644122504968291    0.47719987219640403    0.49165146782300556    0.4813929111047316    0.459292264110819    
  0.44380089008911167    0.43473425256893733    0.4306278446531167    0.4347343140673463    0.44380082485805417    
  0.4592924306938899    0.4813928241949487    0.49165149277093695    0.4771999070215606    0.4644122504968291    
  0.44504804743367793    0.46441228102439186    0.49196719393396415    0.4889751354607833    0.46566835460995465    
  0.44486232436604894    0.430627928940913    0.42452437703796264    0.43062790128664186    0.4448622886506917    
  0.46566838839969066    0.4889749778580149    0.4919671026491284    0.4644123418864275    0.44504804743367793    
  0.42452444991577465    0.43062787601980046    0.4448623224127831    0.46566843213253717    0.4889750612789166    
  0.49196719839388675    0.46441224025436456    0.44504799079301444    0.4644123060301648    0.4919671668765238    
  0.48897503232602313    0.46566833428009563    0.44486223941201875    0.4306278928910684    0.42452444991577465    
  0.43062788912994443    0.4347342166555719    0.44380084908231454    0.45929236554046704    0.48139276572466    
  0.49165144302931885    0.47719989890352005    0.46441226535091595    0.4771998776826051    0.49165145837028185    
  0.4813928536237368    0.4592924159851149    0.44380083163358    0.4347342925421794    0.43062788912994443    
  0.44486220707316526    0.44380083354526473    0.4412368832840794    0.4455671230693058    0.46283895699273436    
  0.48283892180793775    0.491651505373166    0.491967122572292    0.4916515619779726    0.48283891057380046    
  0.4628390515918492    0.4455670540415706    0.4412368749785171    0.4438008604955177    0.44486220707316526    
  0.4656683467351085    0.45929234350272247    0.4455670402430178    0.43806004765014805    0.4448876896828765    
  0.46283907240322936    0.481392828322585    0.48897505067439057    0.48139278664842666    0.46283896227430693    
  0.4448878129228944    0.4380601084412703    0.4455670925182232    0.45929239298396546    0.4656683467351085    
  0.48897508994388933    0.4813929492123992    0.4628390768980044    0.4448877646975974    0.43805999801073614    
  0.445567093502563    0.4592923519045764    0.46566839009443695    0.45929232770925704    0.44556710403408295    
  0.4380600394268975    0.4448878330181405    0.462838946108879    0.48139287958826305    0.48897508994388933    
  0.4919671739218327    0.491651480870959    0.48283890384022243    0.46283904304932366    0.44556703875190395    
  0.4412370030607714    0.4438008437961651    0.44486224565981153    0.4438009522373142    0.4412368914281729    
  0.4455671129756374    0.4628389713650749    0.48283894468779226    0.49165148094907973    0.4919671739218327    
  0.46441224183007573    0.47719985770011747    0.49165149681264    0.4813928907735698    0.45929225962188625    
  0.4438008513281189    0.4347342315554167    0.43062784849763364    0.43473424973926383    0.4438007930955011    
  0.4592923475214907    0.48139285237311985    0.49165143748258106    0.4771999010557707    0.46441224183007573    
  0.4450481136421829    0.4644122142100552    0.49196728083454333    0.48897511241299546    0.46566823147745356    
  0.44486232208172743    0.4306278775407321    0.42452444413513213    0.4306278790395996    0.4448622696808801    
  0.465668473712727    0.4889750353603262    0.49196720971197455    0.46441229951959306    0.4450481136421829    
  0.4644122695098287    0.47719985243639484    0.4916513963107717    0.48139300429071674    0.4592923477946336    
  0.44380084536626635    0.43473429180784234    0.4306278892489419    0.4347342485011687    0.4438008326416823    
  0.4592923427142555    0.4813928751518817    0.4916514497614554    0.4771999124062547    0.4644122695098287    
  0.49196713281410215    0.4916514355379239    0.4828389561655244    0.46283900284793866    0.44556713825290517    
  0.441236924253854    0.4438008637524109    0.44486219932905463    0.4438009148340489    0.4412368375257197    
  0.4455671064530306    0.4628390165572867    0.48283890626578724    0.49165150940470237    0.49196713281410215    
  0.4889750723319567    0.4813928359826498    0.4628390338479255    0.44488776648036066    0.438060010619527    
  0.4455671053979346    0.4592923145054025    0.4656684262394453    0.45929238575138515    0.44556705911660466    
  0.4380600939445537    0.4448878473377727    0.4628390455316504    0.4813928433406534    0.4889750723319567    
  0.46566840986212904    0.45929235084703535    0.44556714027737054    0.4380599838318452    0.44488771994249915    
  0.4628390354820404    0.4813928879790863    0.4889750952040982    0.48139285663338416    0.462839004653239    
  0.4448878455258265    0.4380600192462867    0.4455671229223462    0.4592922940857757    0.46566840986212904    
  0.4448622781175511    0.4438008288722523    0.4412369245446961    0.44556703949234877    0.4628389679153483    
  0.48283895971879814    0.4916514958048836    0.49196708392714666    0.49165152250437877    0.48283886319760466    
  0.4628389584701459    0.4455670549960576    0.44123680308131846    0.44380085335982505    0.4448622781175511    
  0.43062789141837127    0.4347342111805872    0.4438008676986512    0.4592923840508529    0.48139275348118654    
  0.49165152004310136    0.4771998427723989    0.4644122462983247    0.4771998882668252    0.49165146536627324    
  0.4813929623209057    0.45929236556069647    0.44380086603706426    0.43473431131875756    0.43062789141837127    
  0.42452444991577465    0.43062787601980046    0.4448623224127831    0.46566843213253717    0.4889750612789166    
  0.49196719839388675    0.46441224025436456    0.44504799079301444    0.4644123060301648    0.4919671668765238    
  0.48897503232602313    0.46566833428009563    0.44486223941201875    0.4306278928910684    0.42452444991577465    
  0.3418999738308956    0.35275580621068653    0.38718682236538793    0.4448623563257642    0.49196712918614915    
  0.4504721250083074    0.33680965112655037    0.2809011963951985    0.3368096383987757    0.4504721137874073    
  0.49196707917563    0.44486226904623116    0.38718676852023026    0.3527558347041904    0.3418999738308956    
  0.352755831721087    0.3625317078030852    0.3926177943714114    0.4438008579540377    0.49165147477483806    
  0.4712800995615704    0.3840739423779774    0.3368095955429005    0.3840740134832145    0.4712801172438397    
  0.49165150498980226    0.44380094995559466    0.39261774666880367    0.36253174577375324    0.352755831721087    
  0.38718676008988157    0.3926177924901063    0.40899190545767644    0.4412369577644978    0.48283897379023866    
  0.49801130375590763    0.47128014447826116    0.450472061655157    0.47128019134124727    0.49801130827729745    
  0.48283892507444964    0.4412369212823781    0.40899186563789436    0.3926178230290016    0.38718676008988157    
  0.4448623064786228    0.44380082719958014    0.441236938991315    0.4455670216077846    0.4628389734562179    
  0.48283896850532293    0.4916514488834821    0.491967106052701    0.491651429027576    0.48283890274890257    
  0.4628389799859571    0.44556707835603476    0.44123698625448937    0.4438008742154266    0.4448623064786228    
  0.4919671573764598    0.4916514791556715    0.4828390245662068    0.46283893819349897    0.44556705672028507    
  0.44123697769858683    0.44380087317082095    0.4448622870361193    0.44380087296386256    0.4412368589751486    
  0.44556705486455156    0.4628390495408283    0.4828389147995059    0.4916514338843118    0.4919671573764598    
  0.4504721123311444    0.4712801016311334    0.49801132345557225    0.4828389244957377    0.44123686764712344    
  0.40899194750009277    0.3926177729715899    0.3871867104553533    0.3926178922839979    0.40899194049340726    
  0.4412369289637485    0.482838927225162    0.498011303588465    0.47128016687216967    0.4504721123311444    
  0.33680963122681673    0.384073906131262    0.47128012835019545    0.4916514599580639    0.44380082700173684    
  0.39261779525962154    0.36253169642865485    0.35275579856999106    0.3625317672348929    0.39261780029711707    
  0.44380088319851957    0.4916514682943153    0.4712801243222614    0.38407397639049995    0.33680963122681673    
  0.2809012151545689    0.3368095881660866    0.4504721586697854    0.49196720678202016    0.44486228041321857    
  0.38718683369358325    0.3527558566963265    0.3418999867962825    0.3527558077176259    0.38718677151035724    
  0.44486226473448853    0.491967122825952    0.45047207560107194    0.3368096224860687    0.2809012151545689    
  0.3368096041922073    0.38407393314149946    0.47128015288032765    0.49165153177223714    0.4438008340662032    
  0.39261776835706463    0.3625317098756238    0.35275576548776244    0.36253178138921416    0.3926177839245113    
  0.44380084804077696    0.49165155213659334    0.47128011414739235    0.3840739667627734    0.3368096041922073    
  0.45047208248383214    0.47128012405066483    0.49801131417441885    0.482838913972733    0.4412368760410877    
  0.40899187470648835    0.3926177517090639    0.38718677225852116    0.3926178002695412    0.4089919179060828    
  0.4412369295707826    0.482838949550147    0.49801129902187746    0.47128013161733273    0.45047208248383214    