#     DFTpy    
  CRYSTAL 
    
  PRIMVEC    
  5.250756047350005    2.1967217535310347e-05    -5.507586206896552e-13    
  -2.625358999505461    4.547299241184475    -1.0775862068965518e-11    
  -9.056551724137932e-13    -2.0982206896551725e-11    8.633058794692928    
  PRIMCOORD    
  4    1    
  Si    1.3071150476987994e-05    3.031539935087775    4.855006340398527    
  Si    2.6253839766879143    1.5157812732770393    0.5384768793035413    
  Si    1.3071152449663706e-05    3.0315399350865238    8.09458185163664    
  Si    2.625383976696435    1.5157812733107168    3.778052518024499    
  BEGIN_BLOCK_DATAGRID_3D    
  3d_datagrid_density    
  BEGIN_DATAGRID_3D#0    
  23    23    37    
  0.0    0.0    0.0    
  5.250756047350005    2.1967217535310347e-05    -5.507586206896552e-13    
  -2.625358999505461    4.547299241184475    -1.0775862068965518e-11    
  -9.056551724137932e-13    -2.0982206896551725e-11    8.633058794692928    
  0.006537830902524978    0.006690289902506131    0.007242117244012777    0.00849693233049833    0.011018034872788844    
  0.015756546686928656    0.024113589816876356    0.037654100875237434    0.05692658639275626    0.07931922834725955    
  0.09819580668728299    0.10569826954645473    0.09819581681528095    0.07931921859590498    0.05692660348256824    
  0.03765411053682367    0.024113599504656177    0.015756541041971238    0.011018038106872281    0.008496934621948839    
  0.00724211728034855    0.006690287915355373    0.006537830902524978    0.006690285030025497    0.0066899753713334145    
  0.0070438836104795245    0.007966419120384075    0.00992969176967857    0.013777060150903584    0.020924176812308397    
  0.03329074555465966    0.05247701453870761    0.07766734072830661    0.10331762885344552    0.12005269666764132    
  0.12005699939804454    0.10331547879276351    0.07765787923553999    0.05248749744198555    0.033294421084813064    
  0.020920807090247462    0.013778023544478268    0.009929656329588848    0.007966521230285782    0.007043682443225591    
  0.006690285030025497    0.007242118809879378    0.007043884470100432    0.007242193487604933    0.007966308401339807    
  0.009652087234532314    0.01317402994659642    0.020149774752901323    0.03329045074766207    0.055904669451017144    
  0.08947400152198315    0.1296207967056789    0.16405097538144023    0.17782934074947898    0.1640556830124787    
  0.12964143276529108    0.08947334179888235    0.055894380513316334    0.03329373551271091    0.02015262291526353    
  0.013173820989136501    0.009652328912827617    0.007966518956081687    0.007242118809879378    0.008496934008919352    
  0.00796642466126514    0.007966307617257353    0.008496949492784662    0.009929714096088997    0.013173238592105651    
  0.020096396777290824    0.03423317078719014    0.06114947441787408    0.1063546226827053    0.1687539837129655    
  0.2331409217573425    0.27429720225462084    0.27428882064879556    0.23311604134773464    0.16876838244898093    
  0.10636616837897452    0.0611552779590305    0.03423444421190008    0.020094610030209646    0.0131738174435589    
  0.00992966365201948    0.008496934008919352    0.011018031519791834    0.009929692007962752    0.009652093162697908    
  0.009929713242466099    0.011017904334087373    0.013778118659622309    0.020149986974564275    0.03423324056504314    
  0.0636001873760775    0.11860603079840201    0.20451764654146837    0.30514960675044167    0.3821128227016378    
  0.40904055127469785    0.38216201799778116    0.30514782089283077    0.20450601255188192    0.11861875391501008    
  0.06359631244761767    0.03423444470194401    0.0201526220095018    0.013778021059652762    0.011018031519791834    
  0.01575653561756917    0.01377705689519192    0.013174016364872322    0.01317323592985752    0.013778101547660373    
  0.01575539040909976    0.020924502146765535    0.03329107984608371    0.06115141674077576    0.11861273634185171    
  0.21909206871889667    0.34937677425961433    0.4519784610327084    0.49056559448170417    0.4905488711610648    
  0.45199646849010877    0.3494237446847171    0.21908380108580428    0.11861873803657176    0.06115526778966436    
  0.033293728875137145    0.020920794605612626    0.01575653561756917    0.024113581004337345    0.02092416775596129    
  0.020149752729433243    0.020096384440816205    0.020149963705274023    0.020924502329929356    0.024110972126469066    
  0.03329579012576329    0.05589885977519328    0.10636367064580976    0.20449938425983732    0.3494122937265617    
  0.4713424795555496    0.498037785058273    0.48641947091170645    0.49802148272068403    0.47135254779419367    
  0.34942375047641566    0.20450603309964155    0.10636617581079548    0.05589437792879892    0.03329440273093423    
  0.024113581004337345    0.03765411456241769    0.033290765044333516    0.033290450859482276    0.034233156602055795    
  0.03423320677280193    0.033291073070451406    0.03329577783180359    0.03765387402210583    0.05248144787055329    
  0.08947865597117267    0.16876079120859616    0.3051564723998548    0.4519964852935134    0.49801334773733513    
  0.4593562593586316    0.45938868776876157    0.4980215946570464    0.4519964873801705    0.3051478481587129    
  0.16876843587784526    0.08947336302733437    0.052487503610578044    0.03765411456241769    0.05692659739927616    
  0.05247702209955317    0.055904652767484665    0.06114944683826154    0.0636001692561761    0.061151388873479894    
  0.05589885984701578    0.05248141233528046    0.05693527658058035    0.07765895538316461    0.1296422661961822    
  0.23312291088647694    0.382154509964621    0.490500397284236    0.48647794686323703    0.459356197689714    
  0.48641940668963796    0.49054893121701065    0.38216214127249765    0.23311608238910092    0.12964147765820502    
  0.07765788422099236    0.05692659739927616    0.0793192261635136    0.0776673404210583    0.0894739992476342    
  0.10635464141280111    0.11860603259749396    0.11861267217264888    0.1063636145618143    0.0894786350453965    
  0.0776589649928856    0.07932824155770192    0.10331639026931021    0.16406553020750025    0.27429278168379834    
  0.409077720315909    0.4905004006845281    0.49801331556897527    0.4980378291355425    0.490565551936654    
  0.4090405835689478    0.27428893615494704    0.1640556362963038    0.1033155054433125    0.0793192261635136    
  0.09819582216455798    0.1033176426767816    0.12962079437293722    0.16875391631703007    0.2045176143411179    
  0.2190919949611271    0.2044992851642531    0.16876068485096646    0.12964221157193825    0.10331637067688829    
  0.09820352980590122    0.12005977386153646    0.17783682263535788    0.27429280129549316    0.3821543829121461    
  0.4519963681977208    0.4713425068339931    0.45197846652426493    0.38211277296361634    0.27429721893319814    
  0.17782935334042074    0.12005701826380528    0.09819582216455798    0.10569827143026131    0.12005268148215231    
  0.16405098067414045    0.23314094774264008    0.3051495294910163    0.34937675372807037    0.34941224987864977    
  0.305156408526857    0.23312283879399293    0.16406553287037123    0.12005976369398978    0.10570398486730533    
  0.12005976918725704    0.16406549251874972    0.2331228544354005    0.3051564636657962    0.3494122740214397    
  0.3493767857465202    0.3051495748058101    0.23314103496650543    0.16405097784260278    0.12005268543102918    
  0.10569827143026131    0.09819580995781364    0.12005704444711507    0.1778293217320875    0.27429716524415576    
  0.3821127543516953    0.4519783236668454    0.47134232867541465    0.4519963238580368    0.38215441749597984    
  0.2742927763666921    0.1778368341393972    0.12005980046221636    0.0982035285790608    0.10331633868253103    
  0.12964225820804362    0.16876071785860042    0.20449927988382186    0.21909198302528754    0.20451763767054018    
  0.16875394277596503    0.12962079366936047    0.10331767235429806    0.09819580995781364    0.07931923818065995    
  0.10331550530859435    0.16405564764641828    0.27428890304719183    0.4090405010695377    0.4905655599373429    
  0.4980377800295486    0.498013321692882    0.49050041608935707    0.4090777700196713    0.2742927675780785    
  0.1640655292517507    0.10331639231978619    0.07932823560330694    0.07765896183692905    0.08947863997054939    
  0.10636361199412317    0.1186126459283617    0.11860604857929119    0.10635462318252167    0.08947402440867648    
  0.07766733021617629    0.07931923818065995    0.05692660614414963    0.07765787780487367    0.12964143567335226    
  0.2331160661262659    0.38216199250472827    0.49054889084331377    0.4864193599255431    0.45935633695741995    
  0.48647816883288003    0.4905005083864419    0.3821543815484797    0.23312287540657706    0.12964227878823356    
  0.0776589280062653    0.05693526121039869    0.052481427071273935    0.05589885160081734    0.061151390034601266    
  0.06360018400337841    0.061149491238825876    0.05590466556356682    0.05247703350267312    0.05692660614414963    
  0.037654104254012416    0.052487511981523044    0.0894733762673265    0.16876841016186936    0.3051478184763127    
  0.4519965317034115    0.4980216659384563    0.45938876032082154    0.45935624674458125    0.49801338456609306    
  0.4519964194765888    0.30515651238977776    0.16876074614891093    0.08947862838180731    0.05248142028908171    
  0.03765385477413173    0.033295784923371374    0.03329107935775403    0.03423324003681695    0.03423316434912667    
  0.03329045536301813    0.033290763555000775    0.037654104254012416    0.024113586646456558    0.033294408068604536    
  0.055894373446941405    0.10636613753723655    0.20450594004882883    0.3494237009196647    0.4713527118100828    
  0.498021643858295    0.48641940965548375    0.4980378513599002    0.4713426032491652    0.34941226590366226    
  0.2044993808532314    0.10636362330641075    0.05589885974708975    0.03329578226230267    0.02411096376481459    
  0.020924496300007343    0.020149975757243564    0.020096398396497676    0.02014975501464212    0.020924170500368593    
  0.024113586646456558    0.01575653268219386    0.020920796833920723    0.033293724992238    0.06115526420471729    
  0.11861872424766463    0.21908378779611207    0.3494236697634943    0.4519963722090361    0.4905487601098115    
  0.4905654904975446    0.45197839556016856    0.3493767814266124    0.21909209917845235    0.11861268323035476    
  0.061151411883554996    0.03329107991382651    0.020924491129456047    0.0157553842260503    0.013778103306387495    
  0.013173240395886314    0.013174020438428233    0.013777058124596763    0.01575653268219386    0.011018036605400034    
  0.013778020388152817    0.02015261600605929    0.03423443721099066    0.06359627907399582    0.11861877483914146    
  0.20450597504080859    0.30514786749845085    0.38216203857491204    0.40904057878574773    0.3821128133778334    
  0.3051495506072112    0.20451760161602786    0.1186060119361242    0.06360017920911559    0.03423321941729092    
  0.020149978357079257    0.013778113371332279    0.011017914776180814    0.009929719724546444    0.009652091747839212    
  0.009929687324265692    0.011018036605400034    0.008496933424410196    0.009929658467535999    0.013173813293302269    
  0.020094601736153104    0.03423442601975269    0.06115526066932087    0.10636616916107056    0.16876835360626188    
  0.233116100457446    0.2742889191463557    0.2742971596580128    0.23314092938336775    0.16875393828820273    
  0.10635462021460639    0.061149455126047796    0.03423315968245756    0.020096398965416557    0.013173244369930339    
  0.009929718158107196    0.008496958433973398    0.007966312451173274    0.007966427084116339    0.008496933424410196    
  0.007242119494605752    0.007966523236771224    0.009652328732653634    0.01317381213629036    0.02015261641582371    
  0.03329374107025568    0.05589438330625648    0.08947336103973302    0.12964145934048876    0.1640557195561767    
  0.17782933716356433    0.16405099169384385    0.12962076501092346    0.0894739968437704    0.05590464800783525    
  0.03329044603655151    0.02014975609490582    0.013174023483147721    0.009652102308068889    0.007966318424078524    
  0.0072421968572989725    0.007043884076238248    0.007242119494605752    0.006690284934411197    0.007043682824289653    
  0.00796652070221423    0.009929652816177094    0.013778018838985934    0.020920808409042212    0.03329441950191129    
  0.05248749591813594    0.07765783783556912    0.10331551123424908    0.12005701889740199    0.12005268045092775    
  0.1033176098769745    0.07766731321675714    0.052476999765918575    0.033290763553846955    0.020924180256138784    
  0.013777057916519992    0.00992969151717946    0.007966427535357144    0.007043881681294983    0.006689974181543052    
  0.006690284934411197    0.006537830902524978    0.006690289902506131    0.007242117244012777    0.00849693233049833    
  0.011018034872788844    0.015756546686928656    0.024113589816876356    0.037654100875237434    0.05692658639275626    
  0.07931922834725955    0.09819580668728299    0.10569826954645473    0.09819581681528095    0.07931921859590498    
  0.05692660348256824    0.03765411053682367    0.024113599504656177    0.015756541041971238    0.011018038106872281    
  0.008496934621948839    0.00724211728034855    0.006690287915355373    0.006537830902524978    0.006513035482999357    
  0.006662593783326151    0.007202049942965483    0.008423966309434075    0.010872995754402738    0.015470493872385914    
  0.023566475064814064    0.03664019203648025    0.05516797853382845    0.07663451115393624    0.09468548167468108    
  0.10184860281150564    0.09467661326975631    0.07663423178845007    0.05519425477878711    0.036635219564217995    
  0.023555947936498674    0.015473333598174627    0.010873294583514772    0.008424147072872526    0.0072018935255498216    
  0.006662649343570319    0.006513035482999357    0.006662647064963274    0.0066621297630766844    0.007059963405823914    
  0.008080424540565078    0.010237970669454154    0.014476898531401512    0.022422686275383814    0.03634559407176101    
  0.05816426481017712    0.08699289471586236    0.11647354824965885    0.13572431538718951    0.135738897042993    
  0.1164765489668855    0.08695756143986334    0.058175086461156336    0.036361607121908855    0.02241910590529993    
  0.01447726482794546    0.010237787054566872    0.008080900067412732    0.007059623901745635    0.006662647064963274    
  0.007201895495147933    0.006957471557893461    0.007202074563626609    0.00808052874923409    0.010095040787818971    
  0.01431104402007568    0.022787056407290365    0.039047524408866656    0.06752667082307338    0.11041347137054847    
  0.16206466877703832    0.20630408022505597    0.22391318171355637    0.2063059174227669    0.1621255035250954    
  0.11040533463658207    0.06750587535607575    0.039055709516110405    0.022787797668978656    0.014311967891184078    
  0.010094816817924323    0.008080897923168734    0.007201895495147933    0.00842415085679833    0.007737816510230139    
  0.007737972359314334    0.008423826192970184    0.01023794730401272    0.01431105115158853    0.023111923360595157    
  0.041490960975313976    0.07725759738948469    0.13825841720776294    0.22240093156801685    0.306845999877887    
  0.3583941898733395    0.3583709279544356    0.3067598291178764    0.22243219211185436    0.13830127330359246    
  0.07725055635455517    0.041493087324343904    0.023111858445231618    0.014311968268477812    0.010237790852771773    
  0.00842415085679833    0.010873288533993414    0.009406818178751249    0.009020484402336756    0.009406670407638637    
  0.010873505868002167    0.014476652806069312    0.02278821909518098    0.04148977132856954    0.08142808873726702    
  0.15752669060757343    0.2748362709733645    0.4005477094877591    0.47772739124078245    0.49770943410897267    
  0.4778720256504408    0.40053219314300514    0.27477776987255376    0.15755479917915635    0.08143016806648683    
  0.041493085591521615    0.022787787534474174    0.014477264017716318    0.010873288533993414    0.015473323524774835    
  0.012663645809538273    0.011707337744152307    0.01170448116279897    0.01266686391429219    0.015469570292820485    
  0.022423564296016697    0.039047539263732944    0.07726081780841884    0.15753184072947612    0.2954505013623062    
  0.44930696998414293    0.5121090380281754    0.4870351162545263    0.486967227787192    0.5121224969331956    
  0.44945514890078275    0.2953991690057512    0.15755480098389568    0.07725052944356287    0.03905570333178997    
  0.022419098395112035    0.015473323524774835    0.023555931755864915    0.018639324969485952    0.016923086588764236    
  0.016569057051041947    0.016922871896192366    0.018640029767383312    0.023555249139255597    0.03636361873385922    
  0.06750251326595179    0.13830317499659606    0.27475951338899385    0.44942696435365476    0.5050728900747143    
  0.39797080708512333    0.3302563174322415    0.397950781820804    0.505052194691576    0.4494550636539851    
  0.2747777608415733    0.13830128626265023    0.06750589455055435    0.03636158553222818    0.023555931755864915    
  0.036635221655884224    0.028757826292881896    0.02649390248876289    0.026191074111953122    0.026190354601735917    
  0.02649529275998501    0.028757633491704647    0.0366370388549668    0.05817236106136761    0.1104113468570561    
  0.22241468592370733    0.4005560543286917    0.5121435760907007    0.3979143489456616    0.25129403492925334    
  0.25136600585544355    0.3979507811305462    0.512122522339861    0.40053221496713964    0.222432227054171    
  0.1104053345847568    0.05817511045073448    0.036635221655884224    0.05519426991745354    0.044166009923514    
  0.04250725876563583    0.04390549505731074    0.04489753014956252    0.04390732637524883    0.042506398227922286    
  0.044169191646916614    0.055194553369266736    0.08696391344530728    0.16212294376531317    0.30677690996604956    
  0.47784512907313853    0.48685920844636366    0.330399495079277    0.25129403129674277    0.33025641527715277    
  0.4869673561108393    0.47787205061723687    0.30675988504788115    0.16212552158749488    0.08695759230584349    
  0.05519426991745354    0.07663423457095346    0.06414550149186896    0.06567839091367689    0.07284994180653315    
  0.07881345756725093    0.07882575915013917    0.07284069870688116    0.06569140863671111    0.06413750148207364    
  0.07664857447765903    0.11646504371095441    0.20633049139977    0.3583701981643306    0.4978133711553982    
  0.4868592369950489    0.3979143238521043    0.39797088668183966    0.4870350850766436    0.49770949318220264    
  0.3583709460033444    0.20630585701223625    0.11647658425660862    0.07663423457095346    0.09467662612006389    
  0.08426762227755212    0.0929437132548156    0.11215204065674522    0.13124141742775236    0.1393216175004036    
  0.13124274212231343    0.11215346499373995    0.09295159062486917    0.08426666890700667    0.09468802784513893    
  0.13573952434476058    0.22391829278404896    0.3583702148489475    0.4778450332342372    0.5121435516220438    
  0.5050729611315697    0.5121091106392559    0.47772734190608507    0.35839412388073005    0.22391324539233584    
  0.13573891025504947    0.09467662612006389    0.10184861352688337    0.09731868203067769    0.11613944243941227    
  0.15288211489746686    0.19493360428945464    0.22323680510885371    0.22324236671647232    0.19493817766111038    
  0.15288284524689777    0.11614657992461512    0.09732363647354293    0.10185202093238122    0.13573954352234072    
  0.20633049354875754    0.30677685867437965    0.4005560094532687    0.44942683693659286    0.449306984097128    
  0.4005476811517718    0.3068460646013278    0.20630412652112742    0.13572434102392567    0.10184861352688337    
  0.09468549590724787    0.09731946289095153    0.12540462588396176    0.17942922993312357    0.24863633748432895    
  0.30659291287234003    0.3286119128733871    0.3065982352779275    0.24864435765484647    0.1794323181926208    
  0.12540978692761595    0.0973236125934919    0.0946880213636472    0.11646499557993736    0.16212288596416344    
  0.2224145919984046    0.2747593634004897    0.2954504077290273    0.27483624791502925    0.22240094497755764    
  0.16206469699560125    0.11647359459861352    0.09468549590724787    0.07663453842421415    0.08426063425233477    
  0.11614078288204191    0.17943040421558712    0.26953351775536005    0.35643055891848796    0.40458139143160166    
  0.40457616721492157    0.35642225599218325    0.2695440851325248    0.17943229391038795    0.11614656172950329    
  0.08426669861809193    0.07664858434018765    0.08696389745403643    0.1104113548445002    0.1383030906542714    
  0.1575317433639209    0.1575266625216821    0.1382584117108106    0.11041349671281109    0.08699290631913596    
  0.07663453842421415    0.05516799055600884    0.06414355836854745    0.09295308926623577    0.15287996613670707    
  0.2486458612985514    0.35643243366783506    0.4294484058620116    0.45115201752067274    0.4294559514799357    
  0.3564222311131843    0.24864436523827288    0.15288282468079978    0.09295164218270886    0.06413746965172676    
  0.055194540121557015    0.05817233969393147    0.06750248247034829    0.07726078529782289    0.08142805663733593    
  0.07725759939206235    0.06752667845137299    0.05816428971277477    0.05516799055600884    0.03664019904814361    
  0.04418808836818442    0.06568213449759422    0.11215235322881154    0.19493638692758924    0.30660132350699787    
  0.4045774817716126    0.4511586496446068    0.45115214993724917    0.40457622081676936    0.30659819166558727    
  0.1949381922726626    0.11215348665204822    0.06569141104022387    0.04416919001605502    0.036637011315241164    
  0.036363607220820736    0.03904754083194804    0.04148977058256407    0.04149095340506068    0.039047523392309755    
  0.03634560857096932    0.03664019904814361    0.02356646439977069    0.0287549708206558    0.04248805949567683    
  0.07284856644450406    0.13124711726549357    0.22324727325302932    0.3286206273350306    0.404577486182976    
  0.4294485110651382    0.40458143636988797    0.3286119900795902    0.2232423007332988    0.1312428452241676    
  0.07284069321309615    0.042506406352039436    0.02875764445075801    0.023555238999005086    0.022423550683128866    
  0.02278820020726983    0.023111913009146615    0.022787030508599947    0.022422674319868125    0.02356646439977069    
  0.015470485926054546    0.018629743704668276    0.026496801948131615    0.04392586711581974    0.07882228113384514    
  0.1393210205604312    0.22324727474107356    0.3066012830524003    0.3564324201033883    0.3564305430438696    
  0.3065930026698308    0.22323676580823887    0.13932166215447617    0.07882578820477343    0.04390734926744046    
  0.02649528898572532    0.01864002383606564    0.015469560322268056    0.014476637578784767    0.014311054983239894    
  0.014311034866211249    0.014476897825441563    0.015470485926054546    0.010872993386953864    0.012666024921159818    
  0.01693208151472643    0.02619105499623367    0.04487970065179943    0.07882232272676072    0.1312472061381126    
  0.19493647923867993    0.24864585142653295    0.2695334943831584    0.24863637250970008    0.19493360906580276    
  0.13124145714935218    0.07881346572884813    0.044897536864780346    0.02619036246258043    0.016922882909937577    
  0.012666869336555078    0.01087350992367601    0.010237949506098788    0.010095045050893045    0.010237969016470996    
  0.010872993386953864    0.008423969707803887    0.00940685093562572    0.011705846508128394    0.016560591628910933    
  0.026191062789759578    0.04392587057683125    0.07284859135998623    0.1121523653736528    0.15288003460052135    
  0.17943042295733846    0.17942923747503728    0.15288207728303235    0.11215208256658062    0.07284992185719391    
  0.043905495491208    0.026191079833132916    0.016569064209477787    0.011704483087198871    0.009406675830804834    
  0.008423835973317787    0.00808053412139794    0.008080431715468793    0.008423969707803887    0.007202050142808279    
  0.0077380284940777345    0.00902042884723002    0.011705841046532543    0.016932088332305223    0.02649680604691728    
  0.04248807644104682    0.06568212771766611    0.092953091994095    0.11614079492302203    0.125404659811837    
  0.11613941536109962    0.09294371664025362    0.06567838780916413    0.04250725202111574    0.026493900411001855    
  0.016923086613634192    0.011707347131580153    0.009020490972045573    0.007737980940629289    0.007202073723245873    
  0.007059962791875146    0.007202050142808279    0.006662589524959302    0.00695706396219404    0.007738029219700128    
  0.009406849217737562    0.012666025655101281    0.01862975237848576    0.028754976456526877    0.044188079736075775    
  0.06414353650764977    0.084260648097332    0.09731943250868678    0.09731864050121064    0.08426756174517028    
  0.06414548255137309    0.044165994819844255    0.02875781778411517    0.018639336959886846    0.012663644960302128    
  0.009406818499057014    0.007737819223835633    0.006957470097098413    0.006662125759951301    0.006662589524959302    
  0.006513035482999357    0.006662593783326151    0.007202049942965483    0.008423966309434075    0.010872995754402738    
  0.015470493872385914    0.023566475064814064    0.03664019203648025    0.05516797853382845    0.07663451115393624    
  0.09468548167468108    0.10184860281150564    0.09467661326975631    0.07663423178845007    0.05519425477878711    
  0.036635219564217995    0.023555947936498674    0.015473333598174627    0.010873294583514772    0.008424147072872526    
  0.0072018935255498216    0.006662649343570319    0.006513035482999357    0.006446974401803272    0.006584510464543397    
  0.007082373189260509    0.00820840252128508    0.01045341804330408    0.014639976588647048    0.021958875608584845    
  0.033668571844577645    0.05008955584845336    0.06893622041979    0.08468067710799516    0.0909063639435856    
  0.08466668608664632    0.06893350912449776    0.05012702610578395    0.0336631572928337    0.021942192392245374    
  0.014644935531409088    0.01045377943166847    0.008208904296151856    0.007082275080004922    0.006584495940993567    
  0.006446974401803272    0.006584494256193002    0.006584115793195233    0.006993813929670889    0.008037748613862705    
  0.010233632358963695    0.014535674972873775    0.02259678053456459    0.03674458653216755    0.05892978534129697    
  0.08822364425684008    0.11812405998763402    0.13758833480133953    0.13761127946412813    0.11813367761729589    
  0.08817231974428602    0.05894123924839223    0.036770140445818965    0.022590626914458838    0.01453574411972209    
  0.010233634866239476    0.008037968853280774    0.006993665287913478    0.006584494256193002    0.007082276215245868    
  0.006814694529131492    0.007082375736439378    0.008037635265910056    0.010213723332063553    0.014765321414927958    
  0.023952418262918163    0.041679328430246826    0.07289052326521388    0.12006033988692283    0.17686041555868628    
  0.22525113775948655    0.24438031931646778    0.22524244613165914    0.17694798433228837    0.12005212849280841    
  0.0728556849268804    0.04169189436930465    0.023954308400171306    0.014766149234388631    0.01021362429373975    
  0.008037966708745618    0.007082276215245868    0.008208904917475042    0.007436687786978942    0.007437154003771779    
  0.008208375003232056    0.010233851243092664    0.014765034686780504    0.024602124472867193    0.04532206730336115    
  0.08598663691389946    0.15564591335723907    0.2510883033731565    0.3444400230492489    0.39918788139482075    
  0.3991672844517597    0.3443145873029309    0.25112148475193324    0.15571504002874842    0.08597405855804804    
  0.04532322701174809    0.024601749720831637    0.014766148290936783    0.010233643115700991    0.008208904917475042    
  0.010453777330811211    0.008774219705207266    0.008325633100437426    0.00877388627488903    0.010454276774248634    
  0.014534815255828611    0.023954711329895257    0.04531860961122039    0.09140773690965691    0.17968415508626337    
  0.31369284519789786    0.44690713399097437    0.5125486072082457    0.5227583234462665    0.5127389678843225    
  0.44689631880577724    0.3135931078299664    0.1797247633354494    0.0914106972429985    0.04532322819392512    
  0.02395430677649539    0.01453574152783783    0.010453777330811211    0.01464492592484474    0.011373853727029582    
  0.010218222613409354    0.010213483356278088    0.011378942321740899    0.014638673733974525    0.022598378075025686    
  0.04167908935912198    0.08599111934175821    0.17969119767682065    0.3376322164145418    0.49272040544291074    
  0.5088404772730243    0.4363675779699797    0.436285040593795    0.5088401162023143    0.4929447727535795    
  0.3375447302056165    0.17972478253373117    0.08597404170088345    0.04169189295037613    0.022590618108862932    
  0.01464492592484474    0.02194217891343134    0.016083652939729822    0.013839749881875205    0.013312691665111018    
  0.013839682820662157    0.016084283064120176    0.021941368702716978    0.03677146890229093    0.072852916540331    
  0.15571411339639166    0.31357168093196053    0.49289153616936127    0.48056361073540677    0.2990285055996818    
  0.21588337865107884    0.2990220586319558    0.48050491737003265    0.49294482634210474    0.3135930884660237    
  0.15571503651529783    0.07285570392880637    0.036770120069022603    0.02194217891343134    0.03366316665723173    