#     DFTpy    
  CRYSTAL 
    
  PRIMVEC    
  1.5325269842125984    -2.6544146006265263    0.0    
  1.5325269842125984    2.6544146006265263    0.0    
  0.0    0.0    5.066097600121529    
  PRIMCOORD    
  4    1    
  Si    1.5325269842125984    0.8848048668755085    0.31921227673485647    
  Si    1.5325269842125984    -0.8848048668755092    2.852261076795621    
  Si    1.5325269842125984    0.884804866875509    2.213836523325908    
  Si    1.5325269842125986    -0.884804866875509    4.746885323386673    
  BEGIN_BLOCK_DATAGRID_3D    
  3d_datagrid_density    
  BEGIN_DATAGRID_3D#0    
  15    15    23    
  0.0    0.0    0.0    
  1.5325269842125984    -2.6544146006265263    0.0    
  1.5325269842125984    2.6544146006265263    0.0    
  0.0    0.0    5.066097600121529    
  0.1723549572761069    0.1904950962998631    0.24804404643592004    0.3536901813010727    0.5106953294168483    
  0.6907889159846292    0.8345521607409385    0.8891340990228834    0.8345521285618577    0.6907888964937404    
  0.5106953381716289    0.35369017442036665    0.24804406036233526    0.1904951066495514    0.1723549572761069    
  0.19049511968868357    0.19050313121211224    0.22831860547552027    0.30938343293465315    0.4374402587205916    
  0.59228807527423    0.7215080634385319    0.7867944303253358    0.7868144329724335    0.7215179086247592    
  0.5922548501732214    0.43745461796154594    0.30939159334240224    0.2283144588791982    0.19049511968868357    
  0.2480440943151086    0.22831859068288773    0.24803000053162513    0.3093912154620775    0.41089261216878037    
  0.5235868941749126    0.5840613872037723    0.5723586236610521    0.5537551031162596    0.5723595956285135    
  0.5840920283690207    0.5236049106408205    0.4108632944262643    0.3093915931482323    0.2480440943151086    
  0.3536901634011919    0.30938341317654483    0.3093912426160896    0.3537013002415873    0.43743314871878836    
  0.5235835533922205    0.52731695131367    0.42234902416159076    0.323919798138625    0.32391537249643826    
  0.4223326576784696    0.5272955060324711    0.5236049512124185    0.4374546296595527    0.3536901634011919    
  0.5106953312233267    0.43744026461425284    0.41089259662597133    0.437433091420083    0.5107062698212634    
  0.5922614611389929    0.5840894689991081    0.42233566415017165    0.24374319532681246    0.18045447440938084    
  0.24375467721237834    0.42233259427826897    0.5840920511648097    0.5922548102129402    0.5106953312233267    
  0.6907889714023234    0.5922880854511287    0.5235868752472345    0.5235835297974306    0.5922615021976835    
  0.6908027590535666    0.7215168003889789    0.5723606741546666    0.3239180438471783    0.18045895761496103    
  0.1804544720117305    0.32391537631860773    0.5723596817682579    0.7215179173036522    0.6907889714023234    
  0.8345521684656522    0.7215080862074364    0.5840614064725741    0.5273169587927261    0.5840895397340968    
  0.7215167797739357    0.8345107876072159    0.7868186155446887    0.5537610716962144    0.3239180211690455    
  0.24374322814760754    0.32391977005173794    0.5537551379050436    0.7868143844293221    0.8345521684656522    
  0.889134040084913    0.7867943963653954    0.5723585987607038    0.42234901966446214    0.42233572393517266    
  0.5723606912524059    0.7868185805470432    0.8891401929414771    0.7868185680422293    0.5723606779113716    
  0.4223357022675554    0.42234901467186    0.57235862607192    0.7867944586814972    0.889134040084913    
  0.8345521757573002    0.7868143796681731    0.5537551194532176    0.3239197885288323    0.2437432047100595    
  0.32391801636126094    0.5537611346898652    0.7868185881337041    0.8345109004544394    0.7215167366063121    
  0.5840895197143833    0.5273169520232005    0.5840614119509918    0.7215080999359224    0.8345521757573002    
  0.6907889452716739    0.7215179225299205    0.5723596835670147    0.32391536877312344    0.1804544827757319    
  0.1804589595453101    0.32391804346438485    0.5723606931697213    0.7215167248446087    0.6908027707789764    
  0.5922615295161088    0.5235835518005593    0.5235868958483548    0.5922880801647588    0.6907889452716739    
  0.5106953000805635    0.5922547916077993    0.5840920152578907    0.4223326281128264    0.24375466544420224    
  0.18045447781694612    0.24374320170033736    0.42233566538073364    0.5840894950014447    0.5922615260479731    
  0.5107062573487239    0.4374331018262226    0.4108926452625698    0.4374402829724541    0.5106953000805635    
  0.353690181193721    0.43745462952128233    0.5236049279356132    0.5272955277247271    0.4223326436196097    
  0.3239153389967157    0.3239197945985324    0.42234903191128137    0.5273169548071133    0.5235835284705138    
  0.43743314247223286    0.3537012907936999    0.3093912177236096    0.3093834248632788    0.353690181193721    
  0.24804408002023648    0.30939156861969536    0.4108632875344783    0.5236049148007702    0.5840920708874308    
  0.5723596249700768    0.5537551481733968    0.572358635178487    0.5840613979243797    0.5235868176892654    
  0.4108925944195395    0.3093912111825298    0.24803001526366603    0.2283186172824737    0.24804408002023648    
  0.19049512075458572    0.2283144613720312    0.3093915683958656    0.4374546657834975    0.5922548584281404    
  0.7215179017373405    0.7868144389490799    0.7867944178461703    0.7215080234267989    0.5922881044195581    
  0.43744029560590847    0.3093834165855892    0.22831862598780248    0.190503139831021    0.19049512075458572    
  0.1723549572761069    0.1904950962998631    0.24804404643592004    0.3536901813010727    0.5106953294168483    
  0.6907889159846292    0.8345521607409385    0.8891340990228834    0.8345521285618577    0.6907888964937404    
  0.5106953381716289    0.35369017442036665    0.24804406036233526    0.1904951066495514    0.1723549572761069    
  0.16821245294294873    0.1851004331822956    0.2385763346567382    0.33639765944766326    0.48073550453818187    
  0.6448164210443178    0.7741345044634523    0.8226591254640465    0.7741264204245338    0.644831220650369    
  0.4807461644601372    0.33638501308122737    0.2385852790574078    0.1850993105620031    0.16821245294294873    
  0.18509931781149244    0.18510232636305568    0.21912996050126443    0.29149927998411207    0.40726939451065325    
  0.5553018466439897    0.6949571751456489    0.7783181658975843    0.7783444749608216    0.6949590078802196    
  0.5552839539074356    0.40726769711838284    0.29151079851227013    0.21911960573384617    0.18509931781149244    
  0.23858529729414119    0.22138732672938718    0.2385688877616038    0.29151673341115397    0.38063309390018063    
  0.4933660766194226    0.592488467871905    0.6444698870695477    0.6568217511718273    0.644465155486596    
  0.5925094815971174    0.4933646227384564    0.38063184641245873    0.29151080275865365    0.23858529729414119    
  0.3363850200880142    0.29923166814960395    0.2992491253164345    0.3363870761861794    0.4072683012346655    
  0.49334480942647463    0.5506245387468073    0.5428563427717136    0.5067244529228667    0.5067219688607042    
  0.5428415631669872    0.5506186637228513    0.49336467702199954    0.40726767844274264    0.3363850200880142    
  0.4807461346427172    0.41966568124917963    0.3971543718586258    0.4196582654078962    0.4807366748268549    
  0.5553048562302512    0.592508550683818    0.5428461723159687    0.44361879876769755    0.39592088771821254    
  0.44363332804820027    0.5428414858695813    0.5925095146790134    0.5552838802256841    0.4807461346427172    
  0.644831279400764    0.5555131063680137    0.4919132906247648    0.4918987008987096    0.5555247996492888    
  0.6448142133457576    0.6949585515853733    0.6444696438494464    0.5067150871157272    0.3959385127555888    
  0.39592089030141975    0.5067219751374551    0.6444651900480367    0.6949589973981288    0.644831279400764    
  0.7741265046718652    0.6518293943042299    0.5089731552764444    0.44967011538940865    0.5089706119619982    
  0.6518438315894105    0.7741144616901827    0.7783292277260762    0.6568392159804047    0.506715035332809    
  0.44361884123238265    0.5067244191569781    0.6568217915523276    0.7783444980329609    0.7741265046718652    
  0.8226591169130164    0.68796720471912    0.4510014263569905    0.297666571022999    0.2976813514674277    
  0.45100418295875094    0.6879731239438449    0.8226692529236462    0.7783292215220445    0.6444696179098903    
  0.5428462185938988    0.5428563246678884    0.6444698584009978    0.7783182080745993    0.8226591169130164    
  0.7741344883795903    0.6879735221132262    0.41496509799034326    0.1892430013370936    0.12297000301052624    
  0.189243103216342    0.4149794591379655    0.6879731491020254    0.7741145193142617    0.6949584670969194    
  0.5925085965372844    0.5506245097716207    0.592488521251908    0.6949571565284264    0.7741344883795903    
  0.6448164617717694    0.651841595438363    0.45100747547822767    0.18923515125877477    0.07470698840356761    
  0.07468937173629348    0.18924311686116957    0.45100417360214623    0.651843804900433    0.6448142258022717    
  0.5553048829650213    0.49334479688960836    0.4933661247614788    0.5553018168183813    0.6448164617717694    
  0.48073548278664135    0.5555189439830862    0.5089683334900974    0.29769272058318647    0.1229524728399572    
  0.07470699653218658    0.12296998901011721    0.2976813305531703    0.5089705864934506    0.5555247943734086    
  0.48073667151570837    0.40726828143575305    0.3806331173785466    0.4072693925392617    0.48073548278664135    
  0.33639765337152294    0.4196489790427829    0.49194871201654583    0.44961422938119344    0.29769273392652457    
  0.1892351356373254    0.18924301089080864    0.29766659012369906    0.44967013221834135    0.49189871178677236    
  0.4196583002263571    0.3363870585272794    0.2915167414573499    0.2914992551188815    0.33639765337152294    
  0.23857635171073732    0.2992497925583086    0.3971293737634513    0.4919487025948704    0.5089683742773472    
  0.45100744498028245    0.4149650923839612    0.45100142190702175    0.5089731181798891    0.491913284962825    
  0.39715437707743034    0.2992491111959553    0.23856889666954692    0.2191299827774606    0.23857635171073732    
  0.1851004573724253    0.22138160570452112    0.2992497963726805    0.41964900010263384    0.5555189930307031    
  0.6518415501683337    0.6879736018877899    0.6879672662405475    0.6518293864875777    0.5555130904129032    
  0.4196656854893763    0.29923167687818397    0.2213873662446061    0.18510233703834986    0.1851004573724253    
  0.16821245294294873    0.1851004331822956    0.2385763346567382    0.33639765944766326    0.48073550453818187    
  0.6448164210443178    0.7741345044634523    0.8226591254640465    0.7741264204245338    0.644831220650369    
  0.4807461644601372    0.33638501308122737    0.2385852790574078    0.1850993105620031    0.16821245294294873    
  0.15748260531346178    0.17134574101499495    0.21503710402757767    0.293986858151359    0.4086257091380438    
  0.5374015539341019    0.6382350793072243    0.6759013031904406    0.6382497375006158    0.5374133503415468    
  0.4086217033652283    0.2939796586534936    0.2150458963047976    0.17134401569982236    0.15748260531346178    
  0.17134402654105707    0.171348008103018    0.19764646671078281    0.25305953412429444    0.34110074639371923    
  0.45498039377575383    0.5674277885951805    0.6390578243189585    0.6390581521647889    0.5674266101485103    
  0.4549689921913694    0.34110950311555177    0.2530608314050157    0.19764142412070243    0.17134402654105707    
  0.21504590326262066    0.20257833947659243    0.21503365670417818    0.25306325418511494    0.31739299935289333    
  0.4032062932887221    0.4923954745455258    0.5588965065442916    0.583279188777912    0.5588899837121346    
  0.4924090555612834    0.4032057889114571    0.31738772043030405    0.2530608439703456    0.21504590326262066    
  0.29397968234016836    0.269222041546747    0.26923532595520294    0.2939845616400863    0.3411003207247532    
  0.4031981089531441    0.46390675787840596    0.5029925839442724    0.5167393043558202    0.5167463508245188    
  0.5029902735761548    0.46389566494250134    0.40320580135750084    0.34110949885210373    0.29397968234016836    
  0.408621672723466    0.37124432090713994    0.3569078668777626    0.37123650199530656    0.408622578797517    
  0.4549862936767581    0.4923967345028339    0.5029873729065286    0.4878122365110512    0.47632095956971376    
  0.48780920023744867    0.5029902207083673    0.4924090668442521    0.45496895139732835    0.408621672723466    
  0.5374134408754311    0.48504033818706144    0.44371456101916223    0.4437092298278054    0.48503405233813374    
  0.5374036956341682    0.5674316790689972    0.558901422251097    0.5167334850868812    0.4763337395374939    
  0.476320958295372    0.5167463848133762    0.5588900420481107    0.5674265814887376    0.5374134408754311    
  0.638249760016775    0.5640813419088607    0.4637684661385222    0.4188370152031417    0.46377835957644226    
  0.5640934196499002    0.6382309081569165    0.6390476514914799    0.5832930077315607    0.5167334547639449    
  0.487812286341443    0.5167392416548281    0.5832792281092531    0.6390581639907464    0.638249760016775    
  0.675901256726731    0.5920308262461936    0.4153569279297895    0.28990098287108407    0.28990269928444523    
  0.41536020342831925    0.5920433908821637    0.6759140163928492    0.6390476165982129    0.5589013964639067    
  0.5029874187064934    0.502992571685884    0.5588964396014751    0.6390578626599512    0.675901256726731    
  0.6382350467485256    0.5920415821156335    0.38381338838516865    0.1915565552130303    0.13088804568503445    
  0.19155813121017767    0.38381840613865714    0.5920434111281283    0.6382309486896882    0.567431566362959    
  0.4923968245819042    0.46390677257301083    0.49239550072381105    0.5674278242573236    0.6382350467485256    
  0.5374015806917334    0.5641033676809836    0.41536384230844753    0.1915492194818075    0.08380856522811471    
  0.08379746008781709    0.19155812678928252    0.41536022181646903    0.5640934115691073    0.5374036862788165    
  0.45498631502898756    0.40319809997822176    0.4032063159373975    0.45498041038310677    0.5374015806917334    
  0.4086256835047351    0.4850351948549016    0.46376462491991244    0.2899078582363632    0.13088240794384232    
  0.08380856684254023    0.1308880484013841    0.28990265123133285    0.46377835613761426    0.48503402809431717    
  0.408622559369236    0.3411002770810915    0.3173930182924063    0.34110074214534075    0.4086256835047351    
  0.2939868428221923    0.3712308806713996    0.4437404363799876    0.41881122948880195    0.2899078504265013    
  0.19154919901915043    0.1915565554815265    0.2899009907550707    0.4188370294049928    0.4437092261984049    
  0.3712365516919573    0.29398454742503083    0.2530632674596942    0.2530595238986915    0.2939868428221923    
  0.21503711897362981    0.26923580806508535    0.3568927966969043    0.44374043153328396    0.463764622368892    
  0.41536381409212697    0.38381341195268637    0.41535693829300435    0.46376847093163864    0.44371456512775154    
  0.35690786290577103    0.26923530265965756    0.2150336585930537    0.19764647788122008    0.21503711897362981    
  0.17134576570996202    0.20257594523894062    0.26923580802340563    0.37123088251333414    0.48503524473406284    
  0.5641033581851591    0.5920416192786646    0.5920308658225428    0.5640813188304389    0.48504035559984776    
  0.3712443432206776    0.2692220458871789    0.20257837813422613    0.17134801952055542    0.17134576570996202    
  0.15748260531346178    0.17134574101499495    0.21503710402757767    0.293986858151359    0.4086257091380438    
  0.5374015539341019    0.6382350793072243    0.6759013031904406    0.6382497375006158    0.5374133503415468    
  0.4086217033652283    0.2939796586534936    0.2150458963047976    0.17134401569982236    0.15748260531346178    
  0.1444844783406961    0.15488407833326823    0.1876151892789499    0.24623426808094584    0.33052425619717235    
  0.42594938915598163    0.5028559702552229    0.5323682168113313    0.5028806365427972    0.4259529663135902    
  0.3305091204052218    0.24623664116779323    0.18761943426332003    0.1548822092252355    0.1444844783406961    
  0.15488220974821773    0.15488413341329518    0.17271268424815098    0.21023317471357064    0.269091725513304    
  0.3444419709742641    0.4194744233563325    0.46824591200532556    0.468241192693962    0.41946507213737005    
  0.3444352702505783    0.2691071477631151    0.21023075158580345    0.17271025627639308    0.15488220974821773    
  0.18761943482475163    0.1802486110693284    0.1876127194781031    0.2102283933509487    0.24878453554098218    
  0.30073519026941725    0.3568558441335017    0.40212680319231264    0.4199423102238818    0.4021225379601303    
  0.35686948711282074    0.3007402741615267    0.24876726848757902    0.2102307590744881    0.18761943482475163    
  0.24623665161480354    0.23441006694244648    0.234420876066472    0.24623941398424057    0.26909144782249317    
  0.3007343100288819    0.33537478703699075    0.364497223662458    0.38100623912796233    0.3810059771512315    
  0.3645043193351523    0.33535291314061844    0.30074029771578964    0.26910713195870045    0.24623665161480354    
  0.3305091201165247    0.3186519980987965    0.31376842017486434    0.31864615945911323    0.33052444478451215    
  0.34444166083120714    0.35685407892503584    0.36450030896750146    0.36639035561046074    0.3661414164554197    
  0.3663860263746196    0.36450429866362744    0.3568695134286631    0.34443524006851844    0.3305091201165247    
  0.42595296626211865    0.41896325005426766    0.4079035672587286    0.40790101477884855    0.418938034168233    
  0.4259539239277431    0.4194795534674851    0.40212320986012456    0.38100506081020513    0.36614245305971654    
  0.3661414245143357    0.3810059958546764    0.4021225719725421    0.41946506748682966    0.42595296626211865    
  0.5028807100928029    0.5013275019646336    0.4701448132089941    0.4513901900454007    0.4701783858534123    
  0.5013319726069693    0.5028516512183335    0.46824469655429063    0.4199449946716807    0.3810050405606183    
  0.3663903867907828    0.3810062091029555    0.4199423299343711    0.4682412538288208    0.5028807100928029    
  0.5323681498604049    0.5413267917270137    0.4757468028166202    0.4055773263661886    0.4055615948675892    
  0.47573931045489914    0.5413613434054204    0.5323642224285934    0.4682446477282055    0.4021232073581366    
  0.364500341115121    0.3644971916756689    0.40212678644887945    0.46824591882212396    0.5323681498604049    
  0.5028559788906306    0.5413537154826276    0.46640305915921776    0.3406937512631396    0.2860455643730438    
  0.3406956836353688    0.46639500420210894    0.5413613690659449    0.5028516582738501    0.41947949625688236    
  0.35685411638653697    0.33537477733035503    0.35685585899653066    0.41947447028916274    0.5028559788906306    
  0.42594945572296683    0.5013378560862009    0.475751199849887    0.34068036006162467    0.23461018904949385    
  0.2346143133316266    0.34069568273446377    0.475739301809062    0.5013319734439259    0.42595389429531166    
  0.3444416814226509    0.3007342990579701    0.3007352147621855    0.344441967404972    0.42594945572296683    
  0.33052422796193753    0.4189447824578489    0.47016181538917995    0.4055526246910447    0.286072342663249    
  0.23461019636562883    0.28604555939422155    0.40556156269181076    0.470178358618276    0.4189380314122418    
  0.33052445681883635    0.2690914507097008    0.24878454583254747    0.2690917065769853    0.33052422796193753    
  0.24623426536281134    0.31865019586278964    0.40791113252927735    0.4513942970255321    0.40555262435762857    
  0.3406803193268892    0.34069375954371034    0.4055773526793269    0.4513901986838671    0.40790101194083855    
  0.3186461938850488    0.2462393796842627    0.210228406717438    0.21023317069690678    0.24623426536281134    
  0.18761520734755485    0.23442145380219423    0.31375789101273815    0.40791113798980116    0.47016182135927675    
  0.47575121143872007    0.4664030744425911    0.475746806957861    0.4701448603088435    0.4079035802498459    
  0.3137684194075007    0.23442084885593203    0.1876127298176306    0.17271269280745669    0.18761520734755485    
  0.1548841022889268    0.18024408345770493    0.23442145425222635    0.31865019009323964    0.418944812208086    
  0.5013378808480079    0.5413537836102251    0.5413268028932238    0.5013275078449516    0.41896323379535105    
  0.3186520202332533    0.2344100805654916    0.18024863963057192    0.15488413638646611    0.1548841022889268    
  0.1444844783406961    0.15488407833326823    0.1876151892789499    0.24623426808094584    0.33052425619717235    
  0.42594938915598163    0.5028559702552229    0.5323682168113313    0.5028806365427972    0.4259529663135902    
  0.3305091204052218    0.24623664116779323    0.18761943426332003    0.1548822092252355    0.1444844783406961    
  0.13356535350947374    0.14118214801937545    0.16542210449081143    0.20909974428886288    0.2721673602415809    
  0.3449615479510883    0.4055984335985456    0.42944216231039917    0.405607706634687    0.3449613097730415    
  0.27216124131139363    0.20910207005648881    0.1654236797937715    0.14118126322343025    0.13356535350947374    
  0.14118125469616202    0.1411830374856629    0.15244033158054884    0.17661743134301192    0.21479514412790005    
  0.26374621787872504    0.31250072830566833    0.3439271815190616    0.34392690371983503    0.312497588263219    
  0.2637449240842685    0.21480085610246166    0.17661362057633614    0.15244185275297611    0.14118125469616202    
  0.16542368455286455    0.16192228146540139    0.16542154322199784    0.17661371422763988    0.19655370302254357    
  0.2244727736562385    0.25568072599348063    0.2813035746162137    0.2914008724801902    0.28130047607679576    
  0.2556857760357494    0.22447298988672176    0.19655048819833895    0.17661363293328128    0.16542368455286455    
  0.20910208361752314    0.2067057073630251    0.2067094119604959    0.20910304463913504    0.2147947311200675    
  0.2244733049419491    0.23719006422467973    0.2497571885875986    0.25780324944510646    0.25780684489638006    
  0.24975804947166896    0.23718547897302095    0.22447301362705488    0.21480087094609457    0.20910208361752314    
  0.2721612063632039    0.27839200859945235    0.28065275503483694    0.27838930209978385    0.27216725919527984    
  0.2637462889513913    0.2556801100116539    0.2497580795180288    0.24641708051294228    0.24538267870390082    
  0.24641513860250727    0.2497580237791735    0.2556857854230277    0.2637448817560007    0.2721612063632039    
  0.3449613522534013    0.3703503577606573    0.3833824769680161    0.38338236667023307    0.3703403065955893    
  0.34496296354072575    0.31250072612203705    0.2813026254726183    0.25780240228066625    0.24538599736456373    
  0.2453826826302229    0.257806850332686    0.2813005192873814    0.31249757488608454    0.3449613522534013    
  0.40560776669864684    0.45856955746338324    0.48836303963206207    0.49659308803400865    0.48838022353567956    
  0.4585679253090035    0.4056015189878597    0.34392569820498564    0.29140387448597677    0.2578023846714845    
  0.24641712136350724    0.25780322781898496    0.29140088750940407    0.34392689094363027    0.40560776669864684    
  0.42944213162715955    0.5118300907830347    0.5582527774076584    0.5684489971853179    0.5684369959866299    
  0.558251375917936    0.5118436798136332    0.4294402194585047    0.3439256804956857    0.28130260579843924    
  0.24975809452580558    0.24975716966960523    0.2813035714397225    0.3439271548850668    0.42944213162715955    
  0.4055984280872638    0.511842875146797    0.5803314667649645    0.5883554756637229    0.5798518565211079    
  0.5883544105213188    0.5803286743911661    0.51184365549918    0.40560153197100524    0.3125006784715361    
  0.25568015232033336    0.23719005065135967    0.2556807160336969    0.3125007143801096    0.4055984280872638    
  0.34496157283645473    0.45857407954751345    0.5582500795463409    0.5883524756717736    0.5708955374898362    
  0.5709106186846368    0.5883543862985413    0.5582514227929205    0.4585679074020374    0.3449629831436703    
  0.26374631875496585    0.2244732773840296    0.2244727854118396    0.2637462100234864    0.34496157283645473    
  0.2721673151162625    0.3703424586026725    0.48837329430337556    0.5684297379443921    0.5798739148058956    
  0.5708955440360683    0.5798518343563928    0.5684369794508876    0.4883802135112541    0.3703402949411792    
  0.27216724607918197    0.21479472571815272    0.1965537183330887    0.21479514143220182    0.2721673151162625    
  0.20909971932795957    0.2783927987639643    0.3833807114832723    0.4966025877348126    0.5684297454568745    
  0.5883524548336513    0.5883554414247874    0.5684490213100766    0.4965930393395053    0.38338236635443235    
  0.2783893256969301    0.20910301931608866    0.1766137237254522    0.17661743227592008    0.20909971932795957    
  0.16542211321576306    0.20670830023605846    0.28065346139019814    0.383380702312611    0.4883733074323879    
  0.558250053114172    0.5803314634747002    0.5582527798827513    0.4883630725516905    0.3833824767842154    
  0.2806527642601834    0.206709400144091    0.16542155065204048    0.1524403321259967    0.16542211321576306    
  0.14118216834490116    0.16192248178957475    0.2067082845767168    0.27839278919597926    0.37034248105590295    
  0.4585740990832556    0.5118429430671584    0.5118300987021964    0.458569550001061    0.37035033778488463    
  0.27839204779947235    0.2067057244545404    0.16192230362270935    0.1411830590419126    0.14118216834490116    
  0.13356535350947374    0.14118214801937545    0.16542210449081143    0.20909974428886288    0.2721673602415809    
  0.3449615479510883    0.4055984335985456    0.42944216231039917    0.405607706634687    0.3449613097730415    
  0.27216124131139363    0.20910207005648881    0.1654236797937715    0.14118126322343025    0.13356535350947374    
  0.12747696491353666    0.13366166538537597    0.15358489799577302    0.18979539630581976    0.24233369644180525    
  0.30362932986139296    0.35530806046688207    0.37574640779301965    0.35531329851418375    0.3036277364936642    
  0.24233083019584015    0.189795763565238    0.15358639132666738    0.13366272184920722    0.12747696491353666    
  0.1336627217802344    0.13366039158361023    0.1415102829658101    0.1589260106420655    0.18704547478076242    
  0.223677837379327    0.26014961075310555    0.2831428166970039    0.2831428059150741    0.2601463343002354    
  0.22367987156969674    0.18704611076229152    0.1589268634578991    0.14150714316626112    0.1336627217802344    
  0.15358639770142415    0.15210272678623132    0.15358668561318964    0.15892523643331855    0.16967830468646442    
  0.1864112741499402    0.20649750245874857    0.22319307229441654    0.22964455444983636    0.22319446562836676    
  0.2064980914931393    0.18641309153125762    0.16967516523013815    0.1589268843830524    0.15358639770142415    
  0.18979578016001877    0.19222573270355814    0.19222452991200809    0.18979657351064938    0.18704332357423223    
  0.18641382657951472    0.1892458650313265    0.1941755656883022    0.19788632454194546    0.1978870776465878    
  0.1941755342326488    0.18924439047799782    0.18641311569579264    0.1870461240751743    0.18979578016001877    
  0.24233080607234883    0.257412258482169    0.2634053837330937    0.2574117965751658    0.24233485219678036    
  0.22367751120316703    0.206496626305181    0.1941756585730252    0.1873684929831511    0.18525851068341997    
  0.18736731165286374    0.194175512940588    0.2064980924158334    0.22367982997306093    0.24233080607234883    
  0.3036277765456149    0.3439375598936428    0.36921488648541206    0.36921459172080995    0.34393330906014435    
  0.30362676440978414    0.2601513112048717    0.22319154093419497    0.19788826967175363    0.18525431885284388    
  0.1852585094525743    0.19788708786943054    0.22319450099674815    0.26014632763672635    0.3036277765456149    
  0.3553133502975948    0.4326672724080281    0.493511669575479    0.5169629634491597    0.4935177619476574    
  0.43267152481346743    0.35530907892274965    0.28314282966381055    0.22964457262945287    0.1978882469768116    
  0.1873685208218731    0.1978863246239683    0.2296445726363184    0.28314281042669814    0.3553133502975948    
  0.37574637713970654    0.49078430427619607    0.5975948111133871    0.661318472713974    0.661311065906518    
  0.597592187118191    0.49078833240422093    0.3757466735763566    0.28314280898938243    0.22319153508313108    
  0.19417566359765853    0.19417554139103643    0.22319307550311598    0.2831428029545786    0.37574637713970654    
  0.355308070109197    0.490786695006034    0.6385908519591823    0.7500857310576707    0.7906639213994515    
  0.7500885769754833    0.6385834245593082    0.4907883023563245    0.35530908605810907    0.2601512612189325    
  0.2064966541467539    0.18924587137346166    0.2064975242637054    0.26014961861616603    0.355308070109197    
  0.30362937652467126    0.4326749283602538    0.5975871967195304    0.7500781229309925    0.8383102402848629    
  0.8383212450687091    0.7500885672620319    0.5975922346897723    0.43267153182045137    0.3036267584770718    