#     DFTpy    
  CRYSTAL 
    
  PRIMVEC    
  2.6637249004024843    -1.4635024e-10    2.7739632e-10    
  -1.4635024e-10    2.663724900247703    1.3366296e-10    
  5.069068000000001e-10    2.442928e-10    4.879995642208544    
  PRIMCOORD    
  4    1    
  Si    1.3318624501504928    1.3318624508568173    1.4995945985887322    
  Si    4.9388896057973e-10    -4.570876501056426e-10    0.9404032208751212    
  Si    7.575095790920607e-11    3.452103307091405e-10    3.939592418565451    
  Si    1.3318624505498151    1.3318624498449978    3.380401046798841    
  BEGIN_BLOCK_DATAGRID_3D    
  3d_datagrid_density    
  BEGIN_DATAGRID_3D#0    
  13    13    21    
  0.0    0.0    0.0    
  2.6637249004024843    -1.4635024e-10    2.7739632e-10    
  -1.4635024e-10    2.663724900247703    1.3366296e-10    
  5.069068000000001e-10    2.442928e-10    4.879995642208544    
  0.9602659815651325    0.8963026437568197    0.727402715774626    0.52245016788919    0.3561127371637366    
  0.2597105943227115    0.2295188964483445    0.2597106115917822    0.3561127962160807    0.5224501452371724    
  0.7274026038550765    0.8963026235011249    0.9602659815651325    0.8963026284448555    0.8380871688698951    
  0.6852811418416056    0.5000568721873005    0.34823800273890015    0.2586609071608278    0.23020592871866363    
  0.2586609004475811    0.34823805057409923    0.5000569543805432    0.6852810758802682    0.8380872348224663    
  0.8963026284448555    0.72740268150857    0.6852810850050628    0.5751287221577379    0.4403458580203519    
  0.326044720604563    0.2551185710786534    0.2316900406672368    0.255118582839842    0.3260447324114633    
  0.44034585524229536    0.575128632009189    0.6852811625398941    0.72740268150857    0.5224501935981257    
  0.5000569598343859    0.44034585338029997    0.36392231198560343    0.29448960516585126    0.24796633452030867    
  0.23177927618219746    0.24796628967387274    0.2944896316276074    0.3639222950336468    0.44034586704324363    
  0.5000569072849865    0.5224501935981257    0.3561127457904906    0.3482379818291602    0.3260447314955875    
  0.29448962817669483    0.261927646033229    0.23769531259841864    0.2287698708356257    0.23769527438298693    
  0.26192769550636996    0.29448964707081393    0.3260447400413214    0.3482380106231735    0.3561127457904906    
  0.25971061850006916    0.25866088571245965    0.25511860860415286    0.2479662938564986    0.23769528015432695    
  0.22854769787808216    0.2249785111908536    0.22854769529292604    0.23769529550228866    0.24796629626376387    
  0.2551185850467933    0.2586609102105854    0.25971061850006916    0.22951890900057892    0.23020593852625565    
  0.23169004725423226    0.23177927536078569    0.22876987232156215    0.2249785112605594    0.22346469233112806    
  0.22497854819881746    0.22876990617731588    0.23177928401957099    0.23169003365161503    0.23020590888567838    
  0.22951890900057892    0.25971060533612234    0.2586608870866462    0.255118587301072    0.24796630330828415    
  0.23769528341347088    0.2285477007806738    0.22497854260135156    0.22854768678570733    0.23769531329102986    
  0.24796628014986674    0.25511860165291994    0.2586608715196988    0.25971060533612234    0.35611274748576627    
  0.34823798351543456    0.3260447747621507    0.2944896118856321    0.26192764505225435    0.2376952867071662    
  0.22876986667048152    0.2376952993373321    0.2619276750775771    0.29448961902420684    0.32604468019113103    
  0.3482380380078305    0.35611274748576627    0.522450207222356    0.500056946535105    0.44034585515661046    
  0.36392232232141297    0.29448963969054537    0.24796630399587774    0.2317792893250431    0.24796630409860584    
  0.2944896726863139    0.3639222834547747    0.4403458604656465    0.5000569034397653    0.522450207222356    
  0.7274026816507759    0.6852810976732657    0.5751286931628804    0.44034582650277976    0.32604473013217816    
  0.2551186113398057    0.2316900218600583    0.2551185754400916    0.3260448044546678    0.4403458287778955    
  0.575128659918657    0.6852811307451783    0.7274026816507759    0.8963026367243017    0.8380871882115954    
  0.6852812182895226    0.5000568953074931    0.3482379971195261    0.2586609255685058    0.23020588631393374    
  0.25866090275602643    0.3482380079498946    0.500056900432271    0.6852811496042542    0.838087200755499    
  0.8963026367243017    0.9602659815651325    0.8963026437568197    0.727402715774626    0.52245016788919    
  0.3561127371637366    0.2597105943227115    0.2295188964483445    0.2597106115917822    0.3561127962160807    
  0.5224501452371724    0.7274026038550765    0.8963026235011249    0.9602659815651325    0.7652619898180146    
  0.7459932024973763    0.6654144179525584    0.5207052578862248    0.3748361600956251    0.2815499258800429    
  0.2512609627906149    0.2815499449690681    0.3748361873314505    0.5207052024476417    0.6654143779183994    
  0.7459931859517244    0.7652619898180146    0.7459931583067361    0.7242441437360023    0.6427450499187521    
  0.5055785888834802    0.3697549411774135    0.2823404774488141    0.2536498222841845    0.28234045356596077    
  0.36975498723709727    0.5055786203591282    0.6427450271205081    0.7242441924714703    0.7459931583067361    
  0.6654144031039472    0.6427450124048026    0.5700540124567022    0.4600033061970148    0.3534353434007466    
  0.28298096203081435    0.25915281672975427    0.2829809880909277    0.3534353316287381    0.4600033040672969    
  0.5700539406852928    0.6427451161688216    0.6654144031039472    0.5207052465967896    0.5055786316185591    
  0.46000327401131474    0.3931967778379477    0.3267009975771713    0.2800429055496393    0.2635003223984182    
  0.28004287210234735    0.32670101827244147    0.3931967510460789    0.46000326285594423    0.5055785825011441    
  0.5207052465967896    0.3748361755274996    0.36975491517577763    0.35343535668369774    0.32670098795292085    
  0.29638337649940166    0.27252078716711947    0.26348544449930517    0.27252078936630425    0.29638343612053014    
  0.32670101886914144    0.353435320870187    0.36975496414048453    0.3748361755274996    0.28154993724857735    
  0.2823404765181246    0.2829809986528183    0.2800428602300708    0.27252077827516563    0.26428459706205104    
  0.26077565175616446    0.26428456131061223    0.2725207967502746    0.2800428803469984    0.28298094024117526    
  0.282340491476462    0.28154993724857735    0.251260970247078    0.2536498240434488    0.2591528286718277    
  0.2635002993327792    0.26348540966180384    0.26077565718791096    0.2593087523630455    0.26077570119411425    
  0.26348543465565377    0.2635002945579627    0.25915281282210323    0.2536497936609607    0.251260970247078    
  0.28154995287246487    0.282340461645833    0.2829809805271623    0.28004287918539345    0.2725207895155214    
  0.2642846119302659    0.260775677079168    0.2642845847812497    0.2725207640554238    0.28004289966379853    
  0.2829809806718691    0.2823404498368718    0.28154995287246487    0.3748362168083883    0.3697549307150121    
  0.3534353645726691    0.32670096011640576    0.2963833870662194    0.27252077330977803    0.2634854104464276    
  0.2725207878873723    0.29638338279899035    0.32670101038711696    0.35343530070645635    0.36975496671883934    
  0.3748362168083883    0.5207052375775458    0.5055786617887201    0.4600033171960095    0.3931967735613457    
  0.32670102217474606    0.2800428960596453    0.26350031961022496    0.28004289841859237    0.3267010090141239    
  0.39319673972818053    0.46000330722475624    0.5055785735795102    0.5207052375775458    0.665414395421677    
  0.6427449927286193    0.5700540335541628    0.460003257374145    0.35343533678007677    0.2829810075623534    
  0.2591527836562851    0.2829809772284117    0.3534354053759659    0.4600032980485421    0.5700539929575894    
  0.6427450124560965    0.665414395421677    0.745993100644883    0.7242441883367382    0.6427450433841371    
  0.5055785925368905    0.3697549575840054    0.2823405084853234    0.25364977670095223    0.28234047716137484    
  0.36975495853905355    0.505578531824867    0.642745061832184    0.724244133756914    0.745993100644883    
  0.7652619898180146    0.7459932024973763    0.6654144179525584    0.5207052578862248    0.3748361600956251    
  0.2815499258800429    0.2512609627906149    0.2815499449690681    0.3748361873314505    0.5207052024476417    
  0.6654143779183994    0.7459931859517244    0.7652619898180146    0.34085826857166523    0.39083394475266187    
  0.4880487303920432    0.5066529060795603    0.42823613015326073    0.34718102518711086    0.3170965996566828    
  0.3471810588283097    0.428236179037881    0.506652863351914    0.4880487160297259    0.39083392751359963    
  0.34085826857166523    0.3908339438768051    0.4344538969087265    0.5116754923837045    0.5122228154311381    
  0.43125476580228955    0.3531844837330882    0.3243942629628108    0.3531844976229966    0.4312547839804782    
  0.5122228439993696    0.5116754569750582    0.43445391022801494    0.3908339438768051    0.4880487399054807    
  0.5116754606905806    0.5408030948556143    0.5104003956430008    0.4332133838187088    0.366596819410775    
  0.3420788449751969    0.36659679548195334    0.43321339862466435    0.5104004035334956    0.5408030684383424    
  0.5116754868313432    0.4880487399054807    0.5066529232256961    0.5122228639873557    0.5104004170159832    
  0.47720793822036184    0.42315063854089746    0.3773149184594321    0.35993974679200147    0.37731490484567487    
  0.42315066320081557    0.4772078972904806    0.5104003909694618    0.5122228354076517    0.5066529232256961    
  0.42823619384783956    0.4312547692997053    0.4332134310789544    0.42315065542599856    0.40080986727822837    
  0.37772962391372106    0.3679796349666773    0.377729625189321    0.40080989540343526    0.4231506454379071    
  0.43321340054436897    0.43125476168819704    0.42823619384783956    0.34718105121017756    0.35318449327259516    
  0.3665968752827168    0.37731489496161535    0.3777296284192696    0.370291755480384    0.3657801957917842    
  0.3702917401640835    0.3777296572879153    0.37731488858829854    0.3665968257238314    0.35318450799613016    
  0.34718105121017756    0.3170966146482443    0.32439424925696714    0.3420788364873005    0.35993973379673466    
  0.3679796008243684    0.36578023746311433    0.36299540980574907    0.365780282482819    0.367979636671242    
  0.3599397246632131    0.3420788493814916    0.3243942402911702    0.3170966146482443    0.3471810497732515    
  0.35318446249103835    0.3665968814665732    0.37731486467103037    0.37772963760320794    0.370291771724183    
  0.3657802677597779    0.3702917405640148    0.3777296072456636    0.3773149281563163    0.36659683619664035    
  0.35318449465113383    0.3471810497732515    0.42823617990657575    0.4312547355610129    0.4332134878482842    
  0.4231506882190883    0.40080987218827097    0.377729622027058    0.36797962826061703    0.3777295971509202    
  0.40080989697747343    0.42315067158644765    0.4332133944629726    0.4312547343652624    0.42823617990657575    
  0.5066529144743079    0.512222842305883    0.5104004428658548    0.4772079408093456    0.4231506156680756    
  0.3773148994457408    0.35993975774653064    0.3773148938673959    0.42315068017628493    0.47720786024351136    
  0.5104003931748975    0.5122228595884608    0.5066529144743079    0.48804873276614713    0.5116754595909331    
  0.5408031056927338    0.5104003542496229    0.4332133655548917    0.36659684905143197    0.3420788626481675    
  0.36659684894245936    0.43321345363169295    0.5104003811469064    0.5408031210820745    0.511675484586578    
  0.48804873276614713    0.39083391367495246    0.4344539204592231    0.5116755112603337    0.5122228150377475    
  0.4312547905168527    0.35318453205841965    0.3243942138468221    0.3531845025003488    0.43125474840870065    
  0.5122228238905557    0.511675478690993    0.4344539098291303    0.39083391367495246    0.34085826857166523    
  0.39083394475266187    0.4880487303920432    0.5066529060795603    0.42823613015326073    0.34718102518711086    
  0.3170965996566828    0.3471810588283097    0.428236179037881    0.506652863351914    0.4880487160297259    
  0.39083392751359963    0.34085826857166523    0.09559913758509364    0.14760185262009973    0.31769967399493193    
  0.4916037883565674    0.5081494833547544    0.44821621019322716    0.4192261029974861    0.4482162101792542    
  0.5081495773349852    0.49160373292044784    0.31769967271925886    0.1476018500804269    0.09559913758509364    
  0.14760185450470648    0.20639148416471112    0.37566702241123706    0.5235019771659197    0.5235805124500531    
  0.46236592779083563    0.43407760133885687    0.46236592486299477    0.5235805226097603    0.5235019678281756    
  0.37566699001737974    0.20639148288838494    0.14760185450470648    0.31769971024083854    0.3756669456402015    
  0.5064937633518972    0.5837827949641063    0.5548552002762239    0.4956220902190481    0.4701757152967582    
  0.4956221087870206    0.5548552007074056    0.5837828393650862    0.506493743745829    0.3756670002877508    
  0.31769971024083854    0.4916038120554044    0.5235020161027437    0.5837827662918912    0.6047063296714716    
  0.570723991793779    0.5232721363938678    0.5026958193694012    0.5232721417012405    0.5707241225347747    
  0.6047063160579336    0.5837828051802121    0.5235019748172745    0.4916038120554044    0.5081495394519152    
  0.5235804677801638    0.5548552735059886    0.5707239898984946    0.5536327876158101    0.5191656809104355    
  0.5019127347028792    0.5191656333996488    0.5536328541641096    0.5707240111015387    0.5548552402706078    
  0.5235804892544568    0.5081495394519152    0.4482162104413298    0.46236590068047295    0.4956221629850996    
  0.5232721045661382    0.5191656261814038    0.4884378302338688    0.47051504870978067    0.4884377796032012    
  0.519165681713558    0.5232720821492355    0.49562209673572744    0.4623659145680032    0.4482162104413298    
  0.41922610021956763    0.43407761444792486    0.47017569457274877    0.5026958463701918    0.5019127006589365    
  0.47051510730348894    0.4514849125843347    0.4705151485973669    0.5019127477014685    0.5026957862985244    
  0.47017573456888023    0.434077582057514    0.41922610021956763    0.4482162233573796    0.4623658916852843    
  0.4956221399867735    0.5232720519478428    0.5191656408857702    0.48843782477476    0.47051509996725904    
  0.48843779825832406    0.5191656347456765    0.5232721097997312    0.49562211555176267    0.4623659173333625    
  0.4482162233573796    0.5081495454183684    0.5235804787412803    0.5548552927141239    0.5707240662306728    
  0.5536328143269497    0.5191656100985775    0.501912731750403    0.5191656452380801    0.5536328435821335    
  0.5707240047173189    0.5548552138857767    0.523580502186823    0.5081495454183684    0.49160378389076353    
  0.5235020129165011    0.5837828578563344    0.6047064000137228    0.5707240042436451    0.5232720746971333    
  0.5026958211206253    0.5232721256630224    0.5707240489676857    0.6047063151109487    0.5837827638790407    
  0.5235019868021884    0.49160378389076353    0.3176997018898957    0.3756669686636035    0.5064937593527685    
  0.5837827644041191    0.5548551898708447    0.4956221245861495    0.470175719781678    0.495622132339885    
  0.5548552361153619    0.5837828410091535    0.5064937954769504    0.3756669907576585    0.3176997018898957    
  0.14760184208418647    0.20639150426814415    0.37566700525259134    0.5235019777658101    0.5235805206966836    
  0.4623659558160257    0.43407753702917945    0.4623659146126571    0.5235805067191688    0.5235019350508873    
  0.37566697155949763    0.20639149574806123    0.14760184208418647    0.09559913758509364    0.14760185262009973    
  0.31769967399493193    0.4916037883565674    0.5081494833547544    0.44821621019322716    0.4192261029974861    
  0.4482162101792542    0.5081495773349852    0.49160373292044784    0.31769967271925886    0.1476018500804269    
  0.09559913758509364    0.05381784211518433    0.0990827352241455    0.2813862909764578    0.5231998521131301    
  0.5952543385328001    0.5495662543413978    0.5212302828617513    0.5495662876524299    0.5952543882575577    
  0.5231998179355047    0.2813862595949928    0.09908273632349389    0.05381784211518433    0.09908273625909576    
  0.15675156957963968    0.352713399989045    0.5721680431711126    0.6221704288903434    0.5725238316920459    
  0.5444147433016663    0.5725238182235073    0.6221704539747196    0.5721681131419252    0.35271335748346716    
  0.15675158089939287    0.09908273625909576    0.2813862791632889    0.3527133719102537    0.5333441835629606    
  0.6756571308189693    0.6790787443374668    0.6227521336178026    0.5950129714040484    0.6227521472248194    
  0.6790787420638891    0.6756572091138413    0.533344101948008    0.35271340884653457    0.2813862791632889    
  0.5231998677251231    0.5721681174772093    0.6756571854423149    0.7351921536262714    0.7068475186271805    
  0.6418036548750649    0.610589476175036    0.6418036002143591    0.7068475898028135    0.735192081253771    
  0.6756571184398131    0.5721680945250854    0.5231998677251231    0.5952543710474034    0.622170356774513    
  0.67907876062    0.7068475338134578    0.6585563281769684    0.5684177829174549    0.5247095977532469    
  0.5684177476634771    0.6585563486811203    0.7068475515347385    0.6790787139099322    0.6221704621155175    
  0.5952543710474034    0.5495662876935162    0.5725238183546548    0.6227521167079193    0.6418036233229472    
  0.5684176903843725    0.4472238340489699    0.391814131361475    0.44722381893142776    0.5684177347694341    
  0.6418036233536492    0.6227520739029724    0.5725238082893189    0.5495662876935162    0.5212303160644548    
  0.5444147773982813    0.5950130119455302    0.6105894570530215    0.5247095389638506    0.39181414536865217    
  0.333372580510718    0.39181416244113676    0.5247095878146942    0.6105894614262719    0.5950129871321055    
  0.5444146993592496    0.5212303160644548    0.5495662979771926    0.5725237659591803    0.6227521454056714    
  0.6418036018310443    0.5684177112537351    0.4472238761829029    0.3918141543906257    0.4472238333150221    
  0.568417712173558    0.641803717272752    0.6227521232415689    0.5725237944517434    0.5495662979771926    
  0.5952544131487902    0.6221704269997468    0.6790787712427806    0.7068475191940491    0.6585563117556255    
  0.5684176966211333    0.5247095506501973    0.5684177212681205    0.6585563391858776    0.706847584733064    
  0.6790787080814873    0.6221704251571578    0.5952544131487902    0.523199862403752    0.5721681441248223    
  0.675657173629883    0.7351921096498889    0.7068475196736277    0.641803690517522    0.6105894939669115    
  0.64180365885055    0.7068475926287756    0.7351921031494264    0.675657181199686    0.5721680808896248    
  0.523199862403752    0.28138627378025605    0.35271333950404776    0.5333441489033759    0.6756571004155132    
  0.6790787085950135    0.6227522037437982    0.5950129576114784    0.622752156422836    0.6790788154271507    
  0.6756572101340947    0.5333441050574826    0.35271336673931886    0.28138627378025605    0.0990827170541113    
  0.1567515863278717    0.3527134124859088    0.5721680694166169    0.6221704235830198    0.5725238498701769    
  0.544414647172098    0.572523771276462    0.6221704528295012    0.5721680365129908    0.3527134038812971    
  0.156751585252029    0.0990827170541113    0.05381784211518433    0.0990827352241455    0.2813862909764578    
  0.5231998521131301    0.5952543385328001    0.5495662543413978    0.5212302828617513    0.5495662876524299    
  0.5952543882575577    0.5231998179355047    0.2813862595949928    0.09908273632349389    0.05381784211518433    
  0.125576628417001    0.1881915827107958    0.3877591006822679    0.5978745693379671    0.6423049770695695    
  0.5930035951219473    0.5652072226468047    0.5930035870323516    0.6423050328918589    0.5978745759469107    
  0.3877590499961578    0.18819157313309637    0.125576628417001    0.1881915866840969    0.25816540941144495    
  0.45817629556185435    0.6443702630969477    0.6724832573814024    0.6206716806953975    0.5930036153116078    
  0.6206716914954447    0.6724833405479131    0.6443703369277367    0.4581763003827539    0.2581654223716576    
  0.1881915866840969    0.3877590869063325    0.45817625069540097    0.6236485701200853    0.741801406231622    
  0.7338740924110962    0.6724832610864617    0.6423049901358346    0.6724832957548548    0.7338740984368493    
  0.7418013966527515    0.6236484989367639    0.45817630872209125    0.3877590869063325    0.5978746482252005    
  0.6443703122727097    0.7418014180914376    0.7924851792997193    0.7418013926390247    0.6443703431839607    
  0.5978745964560637    0.6443702812523046    0.7418014096899803    0.7924851595179387    0.7418014296554739    
  0.6443702840134102    0.5978746482252005    0.6423050099759786    0.672483218226492    0.7338741069113318    
  0.7418013986123544    0.6236485028049568    0.45817630763044337    0.38775907581394214    0.4581762874922058    
  0.6236486224406588    0.7418014136208443    0.7338741106156501    0.6724833224436767    0.6423050099759786    
  0.5930035865242224    0.620671652571348    0.6724833369045238    0.6443702680732887    0.45817628933373916    
  0.258165401522485    0.18819155612512636    0.25816540784128156    0.45817627097670816    0.6443702768000429    
  0.6724832923754185    0.6206716833745224    0.5930035865242224    0.5652072268684246    0.593003664249297    
  0.6423050092039161    0.59787460158736    0.3877590699802326    0.18819157438590606    0.12557662256059618    
  0.18819159953334555    0.3877591005034187    0.5978746025920684    0.6423050100041218    0.5930035976096828    
  0.5652072268684246    0.5930035907492173    0.6206716451377678    0.6724833299226338    0.6443702856341541    
  0.45817629289350154    0.2581654233905926    0.1881915925853738    0.2581654215768087    0.4581763487577601    
  0.6443702676284222    0.6724832701048109    0.6206716322738354    0.5930035907492173    0.642305000341634    
  0.6724832379632294    0.7338741887184673    0.7418013549602245    0.623648497643921    0.4581762845773203    
  0.3877590440303205    0.4581762855074738    0.6236485341832543    0.7418013559187978    0.7338740691114214    
  0.6724833433341988    0.642305000341634    0.5978746095994426    0.6443703236171786    0.7418014345840989    
  0.7924852342974041    0.7418013829901157    0.6443703009648473    0.5978746049664608    0.6443702896038431    
  0.7418014161435136    0.7924851290357984    0.7418013848582631    0.6443703098687535    0.5978746095994426    
  0.38775909055587815    0.4581762301428703    0.6236485201461914    0.7418014077753253    0.7338740949033568    
  0.6724833281435504    0.6423049483027394    0.6724832690564034    0.7338742075104452    0.741801379065911    
  0.6236485182091406    0.458176310319759    0.38775909055587815    0.18819158675398198    0.2581654183946545    
  0.4581763856315088    0.6443702510959276    0.6724832791039166    0.6206717117863796    0.5930035377335554    
  0.6206716613669077    0.6724833036299416    0.6443702526116619    0.45817629509177243    0.25816542995461383    
  0.18819158675398198    0.125576628417001    0.1881915827107958    0.3877591006822679    0.5978745693379671    
  0.6423049770695695    0.5930035951219473    0.5652072226468047    0.5930035870323516    0.6423050328918589    
  0.5978745759469107    0.3877590499961578    0.18819157313309637    0.125576628417001    0.3333726035623577    
  0.3918141794188637    0.524709578681378    0.6105894950977284    0.595012956510438    0.5444147213250643    
  0.5212302596813035    0.5444147337244425    0.595013013837523    0.6105894309343495    0.5247095571940825    
  0.3918141575281461    0.3333726035623577    0.3918141307280058    0.44722383945402877    0.5684177407363369    
  0.6418036063335246    0.6227521293141655    0.5725238077231848    0.549566309456098    0.5725238002770776    
  0.6227521891185297    0.641803643643382    0.5684176702543957    0.44722386514817913    0.3918141307280058    
  0.5247095617474772    0.5684176685022767    0.6585563510213212    0.7068475266978871    0.6790787446822414    
  0.6221703921069288    0.5952543849007946    0.6221704456244137    0.6790787360585744    0.7068475371691062    
  0.6585563078459552    0.5684177926287542    0.5247095617474772    0.6105894863605028    0.6418036868911571    
  0.7068475399233642    0.7351921125226801    0.675657147843477    0.5721681195232019    0.523199877604271    
  0.572168054098136    0.6756572029609297    0.735192118690642    0.7068475289840079    0.6418036187894397    
  0.6105894863605028    0.5950129688948992    0.6227520969247079    0.6790787402758539    0.6756571454494247    
  0.5333440875584136    0.352713402987058    0.281386295159753    0.35271337871370445    0.5333441904130783    
  0.6756572098613414    0.6790786442875602    0.6227521757246043    0.5950129688948992    0.5444146945823182    
  0.5725237955764052    0.6221704146398526    0.57216801674439    0.3527133514486319    0.15675158394290772    
  0.09908272145690859    0.1567515620673655    0.3527133965698372    0.5721680805367348    0.6221703744471678    
  0.572523851681332    0.5444146945823182    0.5212303229578088    0.5495663192176317    0.5952543972231197    
  0.523199872633504    0.28138627370724506    0.09908272864673155    0.05381784143220638    0.09908274321162105    
  0.28138628996112264    0.5231998319346324    0.5952543740887133    0.5495662700845689    0.5212303229578088    
  0.5444147243865891    0.5725237878095925    0.6221704185777465    0.5721680612762625    0.3527133928817341    
  0.15675158823176785    0.09908273880690961    0.15675156195807557    0.35271336374338974    0.5721681366731612    
  0.6221704175279181    0.5725237620337412    0.5444147243865891    0.5950130370654754    0.6227521369957687    
  0.6790787727352735    0.6756570899794289    0.5333441270990626    0.3527133586733327    0.28138627164910696    
  0.3527133826926011    0.5333441381722207    0.6756571947423679    0.679078682293409    0.622752178552541    
  0.5950130370654754    0.6105894755228777    0.6418036700279048    0.7068475939970877    0.7351921482046143    
  0.6756571374862294    0.5721681144720746    0.5231999149238961    0.572168087668251    0.6756571900485091    
  0.7351921355821647    0.7068475915081517    0.6418036483489333    0.6105894755228777    0.5247095954761485    
  0.568417670547981    0.6585563752055418    0.7068474863787481    0.6790786963343529    0.622170441090462    
  0.5952543114269467    0.6221704229449987    0.6790788149862641    0.7068476003460121    0.6585562968795129    
  0.5684176677949293    0.5247095954761485    0.3918141342502459    0.44722385718732044    0.5684177513275509    
  0.6418036127240333    0.6227521512519013    0.5725238195416869    0.5495662117385762    0.5725238221696416    
  0.6227521383567302    0.6418035604747111    0.5684177327110245    0.44722385320668157    0.3918141342502459    
  0.3333726035623577    0.3918141794188637    0.524709578681378    0.6105894950977284    0.595012956510438    
  0.5444147213250643    0.5212302596813035    0.5444147337244425    0.595013013837523    0.6105894309343495    
  0.5247095571940825    0.3918141575281461    0.3333726035623577    0.45148493618406277    0.4705151138954874    
  0.501912701359758    0.5026957999988675    0.470175681222035    0.43407757146783976    0.4192260821988202    
  0.4340775691767419    0.47017575812003193    0.5026957743596258    0.5019126848133543    0.470515099814021    
  0.45148493618406277    0.4705151040091113    0.4884377894588537    0.5191656944470976    0.5232721170673706    
  0.49562212284918183    0.462365905694968    0.4482162386585717    0.4623659166918126    0.4956221331324747    
  0.5232721081108337    0.519165648942847    0.4884378554343615    0.4705151040091113    0.5019127209624191    
  0.5191656596215173    0.5536328478333203    0.5707240281370932    0.5548551963129883    0.5235804700665468    
  0.5081495193144989    0.5235804930871287    0.5548552278742317    0.5707240502021932    0.553632793345396    
  0.5191656285123989    0.5019127209624191    0.502695871553837    0.5232721119010577    0.5707240515149763    
  0.6047063622935768    0.5837827837232755    0.5235019964357106    0.4916038310436878    0.5235019354839302    
  0.5837828303230623    0.604706286574768    0.570724019048291    0.5232720692401877    0.502695871553837    
  0.4701757664423202    0.49562207100719874    0.5548552651521163    0.583782812696545    0.5064937635822645    
  0.3756669778484503    0.3176997106267126    0.3756669723585715    0.5064937790410245    0.5837828187138873    
  0.5548552028515845    0.49562209723986556    0.4701757664423202    0.4340775676181383    0.4623658897433963    
  0.5235805266232286    0.5235019732796321    0.37566697751002254    0.206391488076562    0.1476018232750756    
  0.20639148790047948    0.3756670047189962    0.5235019466945579    0.5235804851957464    0.46236593218790306    
  0.4340775676181383    0.41922610050629794    0.4482162238926008    0.5081494986575962    0.49160378486702494    
  0.31769967993181925    0.1476018508244986    0.09559912833276915    0.14760187893406898    0.3176997209328258    
  0.4916037541648882    0.5081495162065472    0.4482162068537483    0.41922610050629794    0.43407757966860294    
  0.46236589891842483    0.5235805608978363    0.5235019538634669    0.37566702417078307    0.20639151008913778    