#     DFTpy    
  CRYSTAL 
    
  PRIMVEC    
  2.791655172413793    0.0    0.0    
  0.0    2.791655172413793    0.0    
  0.0    0.0    2.791655172413793    
  PRIMCOORD    
  2    1    
  Si    0.0    0.0    0.0    
  Si    1.3958275862068965    1.3958275862068965    1.3958275862068965    
  BEGIN_BLOCK_DATAGRID_3D    
  3d_datagrid_density    
  BEGIN_DATAGRID_3D#0    
  13    13    13    
  0.0    0.0    0.0    
  2.791655172413793    0.0    0.0    
  0.0    2.791655172413793    0.0    
  0.0    0.0    2.791655172413793    
  0.0541303399042013    0.0990713972697981    0.26068346604575954    0.41279413211301413    0.39347010608895383    
  0.3185372953664355    0.2877926070443726    0.3185372881107484    0.3934701292073237    0.41279410260039195    
  0.2606834479935161    0.09907139724812898    0.0541303399042013    0.09907139786795083    0.15276342289593572    
  0.3113365951429503    0.42834796257890156    0.39225448461136486    0.31851153626312556    0.2894266907800771    
  0.31851155246022567    0.3922545253948306    0.4283480081926407    0.31133655013248335    0.1527634160842428    
  0.09907139786795083    0.26068347826422134    0.3113365905513471    0.4136536635620088    0.4434832273178902    
  0.3823327509117767    0.3168461039565298    0.29282471533236043    0.3168460790897893    0.38233279090929245    
  0.4434832429256733    0.4136536104143254    0.3113366166795703    0.26068347826422134    0.412794073050402    
  0.4283480070312651    0.4434832792496359    0.4156137609518215    0.35831022376341787    0.3112789901343317    
  0.2945754512428611    0.3112789797023347    0.3583102069884055    0.4156137761964326    0.443483222884907    
  0.428347971978371    0.412794073050402    0.39347012662210146    0.3922545203320736    0.38233279868265346    
  0.35831022231513937    0.32716165129419283    0.30207833190525285    0.2928247395548391    0.30207834610844825    
  0.3271616612976926    0.3583102652681808    0.3823327993430889    0.3922545793142457    0.39347012662210146    
  0.3185372855623092    0.31851154301497997    0.3168460826834834    0.3112789912245262    0.302078276623089    
  0.2931011119419981    0.2894266723028906    0.2931010630810091    0.30207833313154986    0.31127900429199357    
  0.31684604486504225    0.31851152943975075    0.3185372855623092    0.2877925780443174    0.28942667623248464    
  0.29282473911568746    0.2945754851155063    0.2928247165706394    0.2894267132822662    0.2877925800156636    
  0.28942671922742746    0.2928247309330079    0.29457549169521313    0.29282474615880993    0.28942669084334055    
  0.2877925780443174    0.3185372453083702    0.3185115537032646    0.31684606187944453    0.31127896207791306    
  0.3020783116536013    0.293101093830192    0.2894266782538265    0.29310108623363407    0.30207833629542946    
  0.3112789827741524    0.31684606433108226    0.3185115496058589    0.3185372453083702    0.39347013101813477    
  0.39225451599092565    0.3823328329526828    0.35831021996907986    0.3271616235430447    0.3020783515800942    
  0.2928247167031992    0.3020782969390488    0.3271617038115007    0.35831026095891166    0.3823327648038963    
  0.3922545433431667    0.39347013101813477    0.41279403794132963    0.4283480154019674    0.4434832705755028    
  0.41561377624660667    0.3583102075032405    0.3112789974886515    0.29457546907270893    0.31127899124602637    
  0.35831021442374744    0.4156137452884212    0.4434832008575628    0.4283480082889773    0.41279403794132963    
  0.26068344677009864    0.31133660207535074    0.4136536277490276    0.44348323230614495    0.3823327498145723    
  0.31684610162308147    0.2928247488365699    0.31684611569708065    0.38233276429407353    0.4434832777563576    
  0.41365360587405287    0.31133661330580403    0.26068344677009864    0.09907139111615225    0.15276342612848798    
  0.3113366184176089    0.42834800251331673    0.392254493739272    0.31851154877638593    0.2894266724998223    
  0.3185115368232964    0.3922545101603228    0.42834803387443837    0.311336546985996    0.15276340146937706    
  0.09907139111615225    0.0541303399042013    0.0990713972697981    0.26068346604575954    0.41279413211301413    
  0.39347010608895383    0.3185372953664355    0.2877926070443726    0.3185372881107484    0.3934701292073237    
  0.41279410260039195    0.2606834479935161    0.09907139724812898    0.0541303399042013    0.09907139593263196    
  0.15276341589353148    0.31133660425648707    0.4283480321114948    0.3922544623758364    0.3185115550692545    
  0.2894267258578557    0.31851154727324255    0.39225451916624177    0.42834799333188395    0.31133654941197353    
  0.15276340534591198    0.09907139593263196    0.1527634011110295    0.21010949752849215    0.3559760947169031    
  0.440658915549755    0.3926494230709455    0.3206944667830573    0.29310108139027524    0.3206944835838506    
  0.3926494886510956    0.44065892079190566    0.35597606998503006    0.21010949603739937    0.1527634011110295    
  0.3113365965843717    0.35597611715099775    0.4381014504877223    0.450380459834433    0.3874350303480534    
  0.3248967800371054    0.3020783084034102    0.3248967516552785    0.3874350737720072    0.45038049938943653    
  0.4381013728691306    0.3559761062954741    0.3113365965843717    0.42834794421437755    0.44065895479996187    
  0.4503805214366272    0.4226890970609851    0.37023593972449875    0.3269160862229563    0.3112789673745716    
  0.3269160816710321    0.3702358976454675    0.42268908715398945    0.45038045147232536    0.4406589474720491    
  0.42834794421437755    0.3922544884374332    0.392649440771555    0.38743507051910725    0.3702358912771499    
  0.34579729660585107    0.3248967607987471    0.31684609451930257    0.32489679007990935    0.345797273371935    
  0.37023596936746106    0.387435036975695    0.3926494887692431    0.3922544884374332    0.3185115588937083    
  0.32069447344785634    0.3248967577499903    0.3269160718426986    0.32489674728015266    0.3206944867324483    
  0.31851151890420615    0.320694436255718    0.3248967812690454    0.3269161164040219    0.3248966871501576    
  0.32069444821697246    0.3185115588937083    0.2894266854716118    0.2931011188046338    0.3020783271150233    
  0.3112789950292756    0.3168460518052642    0.3185115768188365    0.31853727526551595    0.3185115668670986    
  0.31684607874577353    0.31127900994258306    0.30207829709677786    0.29310107181005707    0.2894266854716118    
  0.3185115172165436    0.3206944710520506    0.32489676836718545    0.32691605491019127    0.32489671356627475    
  0.3206944879266219    0.31851155595857206    0.3206944569217767    0.3248967850327341    0.32691605770326987    
  0.32489673625861115    0.3206944792956996    0.3185115172165436    0.3922545019001589    0.39264946042428567    
  0.3874350722084272    0.37023591960255    0.34579723536349616    0.3248967744182396    0.31684606396280396    
  0.3248967560234631    0.34579731787506496    0.3702359614427151    0.38743500253457047    0.3926494754008506    
  0.3922545019001589    0.4283479597642339    0.44065895499999796    0.45038050659076123    0.4226891220586966    
  0.3702359070794309    0.32691611477272525    0.31127895314971354    0.3269160659038453    0.3702358984707226    
  0.4226890980875853    0.4503804657318842    0.4406589318136382    0.4283479597642339    0.31133658946664716    
  0.35597612832439    0.438101404300183    0.4503804841140296    0.38743504819338676    0.32489679555933026    
  0.30207831083247416    0.324896792296517    0.38743502876129055    0.45038051941528257    0.43810137106690145    
  0.3559761417311576    0.31133658946664716    0.1527634177460177    0.21010948283879935    0.35597611817460517    
  0.4406589274569656    0.39264941945735526    0.3206944950995506    0.2931010470095804    0.3206944457426734    
  0.3926494673183813    0.44065896413231004    0.3559760706756087    0.21010948140638397    0.1527634177460177    
  0.09907139593263196    0.15276341589353148    0.31133660425648707    0.4283480321114948    0.3922544623758364    
  0.3185115550692545    0.2894267258578557    0.31851154727324255    0.39225451916624177    0.42834799333188395    
  0.31133654941197353    0.15276340534591198    0.09907139593263196    0.26068348595225993    0.3113365907552988    
  0.4136536405175776    0.44348329519210267    0.3823327310452256    0.3168461125113816    0.29282478762552233    
  0.31684608661080166    0.38233278202108084    0.44348326907505575    0.41365358925344414    0.3113366011287009    
  0.26068348595225993    0.3113365804932069    0.3559761352346565    0.4381014206990608    0.4503804507515731    
  0.3874350293162496    0.32489674842718563    0.30207831552095227    0.3248967752012597    0.3874350805809465    
  0.4503805326260268    0.4381013767217288    0.3559761232610706    0.3113365804932069    0.41365363432641117    
  0.4381014385907114    0.4714739993387755    0.454301126069019    0.39673667596532763    0.3457973093609363    
  0.32716166111164907    0.3457972801046838    0.3967367449228689    0.4543011509235038    0.4714739376529538    
  0.43810143062933316    0.41365363432641117    0.4434832321190012    0.45038053806116995    0.45430115598053994    
  0.4354369772006799    0.40090753607210655    0.3702359534791281    0.3583102353749084    0.37023593907085134    
  0.4009074696492329    0.43543698167386363    0.45430113319218235    0.45038051662223577    0.4434832321190012    
  0.38233275656405474    0.3874350523885885    0.3967367119267815    0.4009075109424079    0.39673668011386887    
  0.3874350709197214    0.38233277142888816    0.38743508988198916    0.3967367090779922    0.40090756303082237    
  0.3967367018062712    0.38743509389728265    0.38233275656405474    0.31684608514420987    0.3248967706464502    
  0.3457972752811581    0.3702359527674549    0.3874350124211004    0.3926494834346219    0.39225448189059653    
  0.39264943507173256    0.38743506237871334    0.37023598274400155    0.34579722041900113    0.3248967576855802    
  0.31684608514420987    0.29282475566212085    0.3020783409076544    0.3271616710409408    0.3583102630781216    
  0.3823327554803056    0.39225453178223585    0.39347015995048845    0.39225453903843255    0.38233278497108686    
  0.3583102940457158    0.3271616753407974    0.3020783216447541    0.29282475566212085    0.31684607268246406    
  0.3248967775066159    0.34579727845306896    0.37023591975341374    0.3874350231798663    0.39264949566635315    
  0.3922545203971482    0.39264949814421707    0.38743504485379865    0.37023594550501787    0.3457972540493556    
  0.3248967799949437    0.31684607268246406    0.3823327623300134    0.3874350438407202    0.39673679063422057    
  0.40090749380845647    0.39673665503936617    0.3874351027806823    0.38233275100480324    0.387435020610937    
  0.39673676348100834    0.4009075621017456    0.3967367198463522    0.38743507226113044    0.3823327623300134    
  0.4434832019173465    0.4503805129898671    0.45430114552472256    0.4354370362695159    0.40090750382616347    
  0.37023594985269687    0.3583102510492371    0.37023593329670285    0.4009075203472855    0.43543700377177097    
  0.4543010945387296    0.4503804959743066    0.4434832019173465    0.41365362270139217    0.4381014115412627    
  0.47147392083442086    0.45430110675219243    0.3967366991700481    0.3457973263510632    0.32716165423651666    
  0.3457973186112377    0.39673667718014    0.45430117476358295    0.4714739367048835    0.43810145354603525    
  0.41365362270139217    0.31133660523322465    0.3559761351497771    0.4381014202731369    0.450380491867564    
  0.3874350127342118    0.3248967742849813    0.3020782945707228    0.324896747200433    0.38743504045093513    
  0.45038052102735093    0.4381013541160692    0.35597611943911395    0.31133660523322465    0.26068348595225993    
  0.3113365907552988    0.4136536405175776    0.44348329519210267    0.3823327310452256    0.3168461125113816    
  0.29282478762552233    0.31684608661080166    0.38233278202108084    0.44348326907505575    0.41365358925344414    
  0.3113366011287009    0.26068348595225993    0.41279407239012456    0.4283479825674217    0.443483205441199    
  0.4156138099311826    0.35831018908120327    0.3112790146815673    0.29457550106962677    0.3112789878909382    
  0.3583102229084576    0.4156137751667995    0.44348320195559504    0.4283479959232371    0.41279407239012456    
  0.428347981120879    0.44065893595931815    0.4503804868712406    0.422689058636938    0.37023589207897406    
  0.326916057500829    0.31127894961290725    0.32691607988602506    0.3702359268134041    0.42268911626699074    
  0.4503804319657755    0.44065889344304027    0.428347981120879    0.44348324765783276    0.45038045727531956    
  0.45430114180737435    0.4354369552655797    0.4009075055170631    0.3702359546757744    0.35831020342518927    
  0.3702359334958533    0.40090752314707934    0.4354369868251448    0.45430106304172113    0.45038048162839284    
  0.44348324765783276    0.41561373853887246    0.4226891379395275    0.4354370195683608    0.4410903984261083    
  0.4354369603188792    0.42268914113605766    0.41561374774594045    0.4226891282940321    0.43543696259462944    
  0.441090402680256    0.4354369694428649    0.4226890895507404    0.41561373853887246    0.35831022596306483    
  0.37023593650013076    0.400907531709252    0.43543695143083916    0.4543010976956392    0.4503805201895264    
  0.4434832149368204    0.45038051835757226    0.45430109801145163    0.43543702937075873    0.4009075325891582    
  0.3702359818600407    0.35831022596306483    0.31127897387594256    0.32691606139306906    0.3702359135217402    
  0.4226891358108279    0.4503804332362327    0.44065894602614275    0.42834797019768517    0.4406589008620059    
  0.45038049976498973    0.4226891344018168    0.37023590012839813    0.3269160484895702    0.31127897387594256    
  0.2945754812068263    0.311278976373819    0.3583102248422592    0.4156137678498295    0.4434831707508134    
  0.4283480003174871    0.4127940690861877    0.4283480054703213    0.44348317685882593    0.4156137887419397    
  0.35831022945156055    0.3112789643188414    0.2945754812068263    0.31127897591451004    0.3269160602415542    
  0.3702359206718529    0.42268911934402253    0.4503804622392698    0.44065891304297455    0.4283479698479766    
  0.4406589146380745    0.45038051995360934    0.4226890922126946    0.3702359127300275    0.3269160612115361    
  0.31127897591451004    0.3583102108249596    0.3702359209781688    0.40090757096321583    0.43543693643740716    
  0.45430105474111404    0.45038052207922663    0.4434831744759297    0.4503804726072429    0.45430112371001635    
  0.43543703833520875    0.4009074792884711    0.37023596847782425    0.3583102108249596    0.41561371771256134    
  0.4226891323810373    0.4354370234784851    0.44109045738961655    0.4354369552180535    0.42268911511818835    
  0.4156137584815345    0.42268908383156034    0.43543697037179285    0.4410903595239703    0.4354369538960928    
  0.422689139747121    0.41561371771256134    0.44348319000967423    0.450380474257444    0.45430110078144487    
  0.4354369945126311    0.40090747972794405    0.37023597175117295    0.3583102557748074    0.3702359745763424    
  0.4009074851023473    0.43543705013898354    0.45430108719283013    0.45038053114640636    0.44348319000967423    
  0.42834797951974085    0.4406589343612065    0.4503804940294527    0.42268909746360595    0.3702358858713302    
  0.3269160869695999    0.3112789394022913    0.3269160431889128    0.3702359480309767    0.4226891499717413    
  0.45038040979733623    0.4406588612315021    0.42834797951974085    0.41279407239012456    0.4283479825674217    
  0.443483205441199    0.4156138099311826    0.35831018908120327    0.3112790146815673    0.29457550106962677    
  0.3112789878909382    0.3583102229084576    0.4156137751667995    0.44348320195559504    0.4283479959232371    
  0.41279407239012456    0.3934701486540579    0.39225455764424494    0.38233279388838093    0.3583102860655906    
  0.32716160025113894    0.302078365906894    0.29282477445736976    0.3020783296279037    0.3271616591678857    
  0.3583102573947439    0.3823327629302789    0.3922545281165    0.3934701486540579    0.39225452558832763    
  0.3926494745425812    0.3874350332552418    0.37023592173506714    0.3457972694715169    0.3248967614885361    
  0.3168460945264957    0.3248967617950585    0.34579729479900595    0.3702359471029589    0.38743500832072986    
  0.3926494576834624    0.39225452558832763    0.38233279582250385    0.3874350651215058    0.39673674915593976    
  0.4009075057030159    0.39673669853122995    0.38743507722565285    0.3823327579852712    0.38743505844779025    
  0.39673673529345044    0.40090752138738267    0.3967367131301468    0.3874350506479358    0.38233279582250385    
  0.3583102298558676    0.37023596888634813    0.40090758750279615    0.4354369767889488    0.45430112730439587    
  0.45038051732440015    0.44348322529875944    0.45038048862323254    0.4543010782684397    0.43543699601730945    
  0.4009074683951214    0.37023595843279167    0.3583102298558676    0.32716165604495484    0.3457972827452228    
  0.3967367429365643    0.4543010805678006    0.4714739851680917    0.4381014424076696    0.41365363755088974    
  0.43810145204529133    0.4714739614807378    0.45430118626955157    0.396736709270935    0.34579732124303936    
  0.32716165604495484    0.30207832763378445    0.32489676362278674    0.38743504480485097    0.4503804918505612    
  0.4381013666363664    0.35597614018280166    0.31133656955808386    0.35597609409954484    0.4381014204195406    
  0.450380545802024    0.3874349776791648    0.32489675026364784    0.30207832763378445    0.2928247589170441    
  0.31684611426780696    0.3823327924006987    0.44348325913105446    0.4136535953211757    0.31133663365392517    
  0.2606834866642375    0.3113365996338191    0.4136536401081627    0.44348326617471784    0.38233277534995885    
  0.31684608159501715    0.2928247589170441    0.3020783055557422    0.3248967590561547    0.38743506773610176    
  0.4503804783168482    0.43810134778446014    0.35597614382796267    0.3113365952322956    0.35597612232092113    
  0.4381014059866712    0.4503804942515875    0.3874350227057202    0.32489677293106134    0.3020783055557422    
  0.3271616503913227    0.3457972871048614    0.39673677316989414    0.4543011266154219    0.4714739091290216    
  0.4381014544353384    0.4136536242600989    0.4381014100166959    0.47147399277467295    0.4543011371272652    
  0.3967366879109463    0.3457972927374945    0.3271616503913227    0.3583102206105077    0.3702359600728232    
  0.40090753741208285    0.43543701197199497    0.45430109742175123    0.4503805187720769    0.44348324334473077    
  0.45038047650137136    0.45430108600977026    0.43543699615429754    0.40090750238292605    0.37023596668594694    
  0.3583102206105077    0.382332793981622    0.3874350681800722    0.3967367296313541    0.4009075572010162    
  0.39673668929672706    0.38743509654129094    0.3823327625161434    0.38743508778482966    0.39673670112014175    
  0.4009075823056385    0.3967366605818489    0.3874350767583177    0.382332793981622    0.39225454270979965    
  0.39264945656638855    0.38743505368409936    0.37023594967661955    0.3457972418604174    0.3248967862822903    
  0.31684604493463575    0.32489675467904594    0.3457972893590612    0.3702359801155701    0.3874350230194586    
  0.3926494647501621    0.39225454270979965    0.3934701486540579    0.39225455764424494    0.38233279388838093    
  0.3583102860655906    0.32716160025113894    0.302078365906894    0.29282477445736976    0.3020783296279037    
  0.3271616591678857    0.3583102573947439    0.3823327629302789    0.3922545281165    0.3934701486540579    
  0.31853727283803523    0.31851153572359    0.316846092460233    0.31127900412337867    0.30207828969967665    
  0.29310108996701156    0.28942672737767594    0.29310108495362364    0.3020783016264153    0.31127898404199883    
  0.31684605107041863    0.31851155203577636    0.31853727283803523    0.318511526742982    0.3206944934736177    
  0.3248967523474244    0.32691604639864785    0.32489671664186454    0.3206944720903502    0.3185115232548211    
  0.3206944837556658    0.3248967867039958    0.3269161002113854    0.32489672398045716    0.32069446994405215    
  0.318511526742982    0.3168460878594531    0.3248967709094845    0.34579733379818334    0.37023591601013944    
  0.3874350267936261    0.3926494799766563    0.39225450538786755    0.3926494659312999    0.38743506969935276    
  0.3702359570521724    0.3457972642354754    0.3248967770205402    0.3168460878594531    0.3112789517027478    
  0.32691607715406434    0.37023596474501647    0.42268910138558236    0.45038047798163405    0.4406589539195411    
  0.42834799294397746    0.4406589214293639    0.45038045646431646    0.42268908526816257    0.370235916449605    
  0.326916076054031    0.3112789517027478    0.30207830853300405    0.3248967527070155    0.38743504307690446    
  0.45038043962154384    0.4381014125848375    0.3559761404524065    0.3113366034069537    0.3559761429986927    
  0.4381014028069017    0.45038052359301906    0.3874350246042218    0.32489680683396693    0.30207830853300405    
  0.29310108946851493    0.3206944789321039    0.39264946834946923    0.44065895290549395    0.35597608442352785    
  0.2101095011746661    0.15276339137604156    0.210109467115165    0.3559761294249116    0.44065896102920105    
  0.3926493951553917    0.32069445410068936    0.29310108946851493    0.2894267002440911    0.31851157409149455    
  0.3922545343636635    0.42834800121700206    0.31133656697253387    0.15276342545844265    0.09907139600123743    
  0.15276342878528154    0.3113365858834988    0.4283480540583469    0.39225449715118077    0.3185115467743652    
  0.2894267002440911    0.293101077904392    0.32069447026211845    0.3926494645340259    0.4406588897975368    
  0.3559761001280161    0.21010950441293658    0.15276341264462537    0.21010950089396377    0.3559761137350617    
  0.44065891869987045    0.3926494450714452    0.3206944765262866    0.293101077904392    0.3020783077367815    
  0.32489676382843113    0.38743511589336593    0.45038047850215246    0.438101351377882    0.35597616644231395    
  0.3113365542740471    0.3559761136151049    0.4381014448352972    0.4503805378970854    0.3874350304112523    
  0.3248967925285413    0.3020783077367815    0.31127894726281075    0.3269160839905041    0.37023594561692075    
  0.42268910953077904    0.45038045655877157    0.4406589584977847    0.42834797817627485    0.4406589291865483    
  0.4503804797555302    0.4226891100927401    0.3702359123106802    0.326916068464418    0.31127894726281075    
  0.31684606753416017    0.3248967538161104    0.3457972773006968    0.37023591961080216    0.3874350294502359    
  0.39264951326647507    0.3922545010004866    0.3926494893595172    0.38743500989635166    0.3702359773364318    
  0.3457972557249145    0.3248967938418861    0.31684606753416017    0.3185115623164456    0.3206944974438961    
  0.3248967926473249    0.3269160750027837    0.3248967201475918    0.3206944865783138    0.3185115207950208    
  0.32069445519195566    0.3248967574308904    0.32691610086563727    0.3248967094621608    0.32069448834801045    
  0.3185115623164456    0.31853727283803523    0.31851153572359    0.316846092460233    0.31127900412337867    
  0.30207828969967665    0.29310108996701156    0.28942672737767594    0.29310108495362364    0.3020783016264153    
  0.31127898404199883    0.31684605107041863    0.31851155203577636    0.31853727283803523    0.28779257779623885    
  0.28942670465938686    0.2928247458248223    0.29457551818300765    0.29282470933908633    0.28942671743922604    
  0.28779261168325426    0.289426718386956    0.2928247256474981    0.294575500913214    0.2928247263660154    
  0.28942670915061114    0.28779257779623885    0.2894267057183646    0.2931010920989367    0.30207832131939655    
  0.31127894642637194    0.3168460481357728    0.3185115490407579    0.3185372528107636    0.3185115547488972    
  0.31684608681151416    0.3112789932651469    0.3020782804287427    0.2931010856964691    0.2894267057183646    
  0.29282475864108987    0.3020783157323875    0.32716169764372593    0.3583102301474945    0.3823327582175276    
  0.39225454066590376    0.39347012845508944    0.3922545082038587    0.3823327938125342    0.3583102436645096    
  0.3271616457422729    0.3020783406446981    0.29282475864108987    0.29457547743206686    0.31127899450224494    
  0.3583102688148633    0.4156137552792023    0.4434832118091901    0.4283480077454986    0.41279404588313556    
  0.4283479971914792    0.4434832010139492    0.41561378007712496    0.3583102279314728    0.3112789598620952    
  0.29457547743206686    0.2928247299738512    0.3168460833513985    0.38233279802387377    0.44348321187339895    
  0.4136536100386961    0.3113366032463393    0.2606834707407606    0.3113366151739324    0.4136536260654609    
  0.44348326588753473    0.3823327954466305    0.3168461388444191    0.2928247299738512    0.2894267149899849    
  0.3185115451745209    0.3922545093847268    0.42834800642996285    0.31133653908857606    0.15276343946896867    
  0.0990713808495565    0.1527634069646296    0.3113366070826379    0.4283480273310591    0.3922544778520384    
  0.31851152995323756    0.2894267149899849    0.2877925816303946    0.31853723782372306    0.3934701558960554    
  0.41279408120055244    0.26068344721427517    0.09907140015340532    0.054130347760201446    0.09907140372684038    
  0.2606834543744289    0.4127940959247502    0.39347015866778906    0.3185372595904875    0.2877925816303946    
  0.2894266792939478    0.3185115540709059    0.39225449561258274    0.4283479889567605    0.311336588537853    
  0.15276342991661299    0.09907138451414825    0.1527634233747447    0.31133660239439415    0.42834798950991604    
  0.3922544957576552    0.3185115408169832    0.2894266792939478    0.2928247191685398    0.3168460761026635    
  0.3823328285471308    0.44348320735033464    0.41365358912592604    0.31133662687850266    0.2606834389673995    
  0.31133657185374114    0.413653680627975    0.44348325556632195    0.3823327574409706    0.3168461054618368    
  0.2928247191685398    0.294575448736718    0.311278989924969    0.3583102711361748    0.41561378574176366    
  0.4434831936769297    0.42834800803992246    0.41279406647468864    0.4283480073654752    0.4434832105496903    
  0.41561374271609786    0.35831020340569697    0.3112789958289881    0.294575448736718    0.2928247193801438    
  0.3020783249021723    0.3271616654429552    0.35831024527634897    0.38233275180090276    0.39225454342955385    
  0.3934701631728819    0.3922545544272055    0.3823327718754177    0.358310278916856    0.3271616456023281    
  0.3020783404232853    0.2928247193801438    0.2894266969292082    0.2931010982973364    0.3020783487134922    
  0.3112789873995973    0.3168460589505078    0.3185115568293726    0.31853723420170366    0.31851153840886254    
  0.3168460785472042    0.3112790207267871    0.3020782778236397    0.2931010654655647    0.2894266969292082    
  0.28779257779623885    0.28942670465938686    0.2928247458248223    0.29457551818300765    0.29282470933908633    
  0.28942671743922604    0.28779261168325426    0.289426718386956    0.2928247256474981    0.294575500913214    
  0.2928247263660154    0.28942670915061114    0.28779257779623885    0.3185372548012021    0.3185115525341589    
  0.31684609955692367    0.3112790102186929    0.30207827476499843    0.29310109373772625    0.2894267206305722    
  0.2931010797139202    0.30207832431962367    0.31127899582420393    0.3168460508594834    0.31851153178170627    
  0.3185372548012021    0.31851153420277817    0.3206944822104539    0.3248967455383215    0.32691605635139    
  0.32489672825888855    0.32069446416480124    0.3185115433829031    0.3206944887834268    0.3248967869324737    
  0.32691607052308225    0.32489672394035124    0.3206944801543505    0.31851153420277817    0.31684609313714246    
  0.32489676002994783    0.34579731965541    0.37023591103607534    0.3874350327784978    0.39264948326036536    
  0.3922545060744981    0.39264945687050506    0.38743507380331443    0.3702359352715711    0.3457972505975472    
  0.3248967517826605    0.31684609313714246    0.3112789422468257    0.3269160817169184    0.3702359692480695    
  0.42268910514064034    0.45038048602361747    0.44065894805204847    0.4283479760647373    0.4406589459544657    
  0.45038045269528104    0.42268909892711665    0.3702359044895477    0.3269160917248849    0.3112789422468257    
  0.3020782938162616    0.3248967465615935    0.38743506735186856    0.45038045353329764    0.43810141334334096    
  0.3559761199408219    0.3113366067883248    0.355976158104317    0.43810139687528077    0.45038054881897127    
  0.38743503959949477    0.3248967836646404    0.3020782938162616    0.29310109408124096    0.3206944798852187    
  0.39264945780463834    0.44065892617928604    0.35597610604319707    0.2101095056397938    0.15276339817121656    
  0.21010946864523736    0.3559761411320632    0.440658988486374    0.39264937719381604    0.3206944535280916    
  0.29310109408124096    0.289426691115798    0.3185115866320167    0.3922545309002448    0.42834801867252964    
  0.31133655919352915    0.152763436734106    0.09907139877593855    0.15276342696188783    0.31133657646292107    
  0.4283480331982468    0.3922544935561204    0.31851153975612073    0.289426691115798    0.2931010544772959    
  0.3206944747426188    0.3926494654431228    0.44065890644302447    0.3559760785853807    0.21010949957157268    