#     DFTpy    
  CRYSTAL 
    
  PRIMVEC    
  5.838344827586207    0.0    0.0    
  0.0    5.838344827586207    0.0    
  0.0    0.0    3.216551724137931    
  PRIMCOORD    
  4    1    
  Si    0.0    0.0    0.0    
  Si    2.9191724137931034    2.9191724137931034    1.6082758620689654    
  Si    0.0    2.9191724137931034    0.8041379310344827    
  Si    2.9191724137931034    0.0    2.4124137931034477    
  BEGIN_BLOCK_DATAGRID_3D    
  3d_datagrid_density    
  BEGIN_DATAGRID_3D#0    
  25    25    15    
  0.0    0.0    0.0    
  5.838344827586207    0.0    0.0    
  0.0    5.838344827586207    0.0    
  0.0    0.0    3.216551724137931    
  0.07357106779142117    0.13245824260973432    0.3171731800048498    0.4157095786459065    0.3125201332186319    
  0.19676093775347725    0.14148847838361225    0.13578357022545398    0.17027623226593996    0.23942991625602023    
  0.32057337542346287    0.37671798159090597    0.393513902569048    0.37671801946230465    0.32057346473515186    
  0.2394299219159882    0.17027620514110983    0.13578359916865015    0.14148848176527581    0.19676092875571147    
  0.3125201337860179    0.41570961595294786    0.3171731322832231    0.13245820575986525    0.07357106779142117    
  0.13245820827842844    0.19785792013098824    0.3595442129018374    0.40581432294519015    0.2921655738571193    
  0.18401179065369067    0.13336736314539077    0.12825806781355018    0.16002872021632714    0.22398564398501197    
  0.3011258743250313    0.35809587269950766    0.37667451368995336    0.3580959234962331    0.3011258854257738    
  0.22398565432657455    0.16002874308565815    0.12825804176909325    0.13336734779989307    0.18401184255197378    
  0.2921656575304617    0.405814345973123    0.3595441804012119    0.19785796447889503    0.13245820827842844    
  0.31717317756843344    0.3595441818238862    0.41219221381115545    0.35603990775862904    0.23870932650904733    
  0.1521896736920767    0.11267818200896158    0.10873893831703249    0.13368332069580574    0.1840211230354916    
  0.24749789838394298    0.2996317101225242    0.3189564228603058    0.2996318258245162    0.24749788502030684    
  0.18402114052686266    0.13368330500604525    0.1087389229124585    0.1126781897707726    0.1521896663079655    
  0.23870931834959982    0.3560399352341269    0.41219216535464054    0.35954423909448735    0.31717317756843344    
  0.415709620140035    0.40581430689808595    0.3560400387707549    0.2634774335171668    0.17312645272654414    
  0.1146553953959166    0.08782993150150119    0.08505289473419353    0.10197637556264785    0.13573248180333025    
  0.17886617931922283    0.2162606419776935    0.23106001558539085    0.21626057133784163    0.17886622011004338    
  0.1357324317480317    0.10197636724080915    0.08505287913165009    0.08782990440652168    0.11465541265441723    
  0.1731265031827505    0.263477469316145    0.3560398965062105    0.40581435343770395    0.415709620140035    
  0.3125201463875136    0.29216562664593804    0.2387093746605104    0.17312641319647243    0.11802843111904279    
  0.08295544639101059    0.06634647914076855    0.06445401377066291    0.07461770186791732    0.09457001929089745    
  0.11972586588387067    0.14146173037027895    0.15013467989678303    0.1414617552132689    0.11972592201409092    
  0.09457000188225931    0.07461773769173688    0.06445401310138067    0.06634648182524679    0.08295544164075101    
  0.11802843272038788    0.1731265119372156    0.23870935996534084    0.292165661148415    0.3125201463875136    
  0.19676088791252813    0.18401179585748628    0.15218965747988408    0.11465535567951363    0.08295542479980339    
  0.062073608227479836    0.05172926955513392    0.05016664266778937    0.05582085155571496    0.06708538236080701    
  0.0810038490587407    0.09268221625553233    0.09726832748064651    0.09268223784305486    0.08100386182585767    
  0.06708536831065197    0.05582085032935934    0.050166625077863694    0.05172927123912085    0.062073630935934626    
  0.08295543796032337    0.11465540287426167    0.1521896049930334    0.18401179239379012    0.19676088791252813    
  0.14148845390255874    0.1333674213841731    0.11267822159953793    0.08782991109503135    0.06634648449272162    
  0.051729296381061704    0.04411375027002374    0.04246251469381846    0.04570419309994057    0.052603797490076376    
  0.061013577236316036    0.06791027919326305    0.07059101609154346    0.06791029163872297    0.06101360567244789    
  0.0526037829144767    0.04570417579090868    0.0424625349892417    0.044113742393135036    0.051729306792553505    
  0.0663464954908548    0.08782991019176985    0.11267817800270681    0.13336739179951154    0.14148845390255874    
  0.13578355154409225    0.1282580033261371    0.10873891739206394    0.08505284586294797    0.06445404134361646    
  0.05016661203408848    0.04246251069256736    0.040329661062814576    0.04258025035933843    0.04796513213551969    
  0.05459896479080104    0.060051949020578844    0.062167039043175755    0.06005190894822823    0.05459901076490121    
  0.04796513285124536    0.04258023039709539    0.040329665615798004    0.042462507610603266    0.05016662029535388    
  0.06445403342716757    0.08505290074564593    0.10873891691526594    0.12825801750557742    0.13578355154409225    
  0.1702761583643772    0.16002873132721812    0.13368326777987122    0.10197633492523037    0.07461771126987038    
  0.055820839271727735    0.04570417669751865    0.04258024751709832    0.04467288349426168    0.05042021882113357    
  0.05777604415434976    0.06396438926472124    0.06640305473805766    0.06396439545425263    0.05777605484983294    
  0.05042021075621878    0.04467288593923251    0.04258024657870771    0.04570416959907102    0.055820855933115886    
  0.07461771859955155    0.10197637836867719    0.13368327082287831    0.16002872606166366    0.1702761583643772    
  0.23942988737289947    0.22398565677318144    0.18402119352910648    0.1357324253371816    0.09457003283973148    
  0.06708537252561955    0.052603793442871784    0.04796513552105872    0.05042021550380082    0.057905023467167326    
  0.06776801637050568    0.07629717358144518    0.07971776384872058    0.0762971356018584    0.06776803089005592    
  0.05790500340713195    0.05042020005342863    0.04796513988261148    0.05260378256028972    0.06708538802817517    
  0.09457003170927412    0.13573243388878256    0.18402118490782451    0.22398563689107123    0.23942988737289947    
  0.32057345207542615    0.3011259648692077    0.2474980384842268    0.17886613008264104    0.11972589153193021    
  0.08100389019258611    0.06101360153793764    0.054599000642035496    0.05777604089555769    0.06776803406296471    
  0.08118105498098295    0.09300681987605605    0.09779609858794276    0.09300686541381475    0.08118110191451751    
  0.06776800253135616    0.057776056539840775    0.0545990020006228    0.06101356375056315    0.08100388107457884    
  0.11972588960980576    0.17886617820501527    0.24749794202450265    0.30112587493530873    0.32057345207542615    
  0.37671795977317923    0.35809592785264216    0.2996317852574026    0.21626050351227352    0.14146170711090877    
  0.09268224527615689    0.06791026339239353    0.060051945324526526    0.06396441063563402    0.07629713353040739    
  0.09300682625362293    0.10783906498808457    0.11382544959172926    0.10783909189257539    0.09300682077613373    
  0.07629713877524245    0.06396438276650628    0.06005194062045993    0.06791026417972587    0.09268225387685831    
  0.1414617502217552    0.21626058296685144    0.29963179763303666    0.35809587913007146    0.37671795977317923    
  0.3935139136240706    0.376674543767985    0.31895651305882633    0.2310600515732063    0.15013465454142227    
  0.09726832613146304    0.07059100887543036    0.06216705708892372    0.06640306035316113    0.0797177773408548    
  0.09779608011867488    0.11382540360018936    0.12025926791048794    0.11382544532190682    0.09779607708989678    
  0.07971774166832628    0.0664030503166698    0.06216704394328794    0.07059102021206666    0.09726834129215599    
  0.15013472219931898    0.23106001972209816    0.31895645492388097    0.37667448697116007    0.3935139136240706    
  0.37671790040611286    0.35809590204554487    0.29963184615925753    0.2162605741328305    0.14146174341720472    
  0.09268225166111993    0.0679102498389633    0.0600519237321589    0.06396438595121033    0.07629714079504787    
  0.09300683671679143    0.10783909597757066    0.1138253973487762    0.10783906189746228    0.09300682612204718    
  0.07629710726494356    0.06396440145082631    0.06005194136961796    0.06791024828178253    0.09268228355694853    
  0.14146175733756136    0.21626065122450389    0.2996318038188883    0.35809594139344286    0.37671790040611286    
  0.3205734808276885    0.30112599143151664    0.24749796930913193    0.17886611632678245    0.11972584322738253    
  0.08100388693367158    0.06101358559425139    0.054599006867737054    0.05777606579061015    0.06776801470978647    
  0.08118107533886448    0.0930068030882384    0.09779609948705    0.0930068479321019    0.08118107569967542    
  0.06776803088895048    0.05777605703017818    0.05459899714766018    0.06101358772128328    0.08100389313742097    
  0.11972586800881498    0.1788662061856856    0.24749790150046266    0.3011259645520417    0.3205734808276885    
  0.23942986983663658    0.22398565627565897    0.18402117322881895    0.13573241822885226    0.09457001937818296    
  0.06708537931080684    0.05260379946206167    0.04796512840260942    0.05042023108046773    0.05790504198709369    
  0.06776800225475038    0.07629713290575582    0.07971774252143606    0.07629714490878271    0.0677680681784058    
  0.057905021679654056    0.05042020323995891    0.047965147658939195    0.05260377599164189    0.06708539374571429    
  0.09457004058982073    0.13573243054436676    0.18402108627084582    0.22398557186227816    0.23942986983663658    
  0.17027616070716386    0.16002882414699401    0.13368333363015472    0.10197634731441256    0.07461770169306398    
  0.0558208437655448    0.045704169131867735    0.04258025981703303    0.04467287951220685    0.05042022204131945    
  0.057776027845864615    0.06396440169247045    0.06640306355397593    0.06396437974367367    0.057776033034162476    
  0.050420196311407935    0.0446728971733079    0.04258026500525143    0.045704171465517966    0.055820860574069535    
  0.07461772244019946    0.10197641365804644    0.1336832913806298    0.16002871697602414    0.17027616070716386    
  0.13578353207101568    0.12825805695536985    0.10873894966940759    0.0850528440629449    0.06445400085437183    
  0.05016661599755371    0.04246250730606635    0.04032967387640367    0.04258025960959227    0.04796514152414074    
  0.05459896898135035    0.06005189811957688    0.06216704058489041    0.06005194138909193    0.05459899609417171    
  0.04796513021007491    0.042580247841333185    0.0403296708737808    0.042462509653184245    0.05016663179773634    
  0.06445401220990553    0.08505289163920564    0.10873889491787032    0.12825803515487105    0.13578353207101568    
  0.14148844727072907    0.13336738500997367    0.11267822982742925    0.08782991709914992    0.06634649596834381    
  0.051729308557760374    0.04411374309537362    0.04246251513542295    0.04570420704046253    0.05260380534917416    
  0.06101357494358505    0.06791028387706995    0.07059100580964005    0.06791029576399812    0.06101362163281201    
  0.052603780983048895    0.04570417966242064    0.042462526190226786    0.04411374476906407    0.05172930766206198    
  0.06634649450974558    0.08782993548783878    0.11267818600058396    0.1333673609364753    0.14148844727072907    
  0.19676093761349675    0.18401181078965778    0.15218965902899861    0.11465536761133546    0.08295542924339927    
  0.06207361307903095    0.051729282864872425    0.05016662361797245    0.05582084557196142    0.06708536448225039    
  0.08100385163048132    0.09268227958385179    0.09726833646095273    0.09268224289507272    0.08100387747777991    
  0.06708536378370016    0.055820828383012305    0.050166632762009576    0.05172926696576505    0.06207361147444892    
  0.08295544011335601    0.11465544718462363    0.152189651496965    0.1840118192299475    0.19676093761349675    
  0.31252017520588943    0.29216566658435006    0.23870932747085685    0.17312641330757733    0.1180284295275261    
  0.08295543311026712    0.0663465100546087    0.06445403244704134    0.07461772607866006    0.09457004035822507    
  0.1197258644914603    0.14146174575791476    0.15013474465930607    0.1414617834702579    0.11972589248959072    
  0.0945700075428594    0.07461771651470424    0.06445402938128537    0.066346487979176    0.0829554487417425    
  0.11802842539854778    0.17312645655472977    0.23870928035788114    0.29216565646508613    0.31252017520588943    
  0.41570963207565353    0.4058143571125454    0.3560399777050318    0.263477465498789    0.17312648333885639    
  0.11465541559109815    0.08782992620319331    0.08505289825662252    0.10197638040751099    0.13573246877161604    
  0.17886610722011181    0.21626064760669747    0.23106002093939357    0.2162605732727322    0.17886623047381417    
  0.13573244942066243    0.10197636474889919    0.0850528963665593    0.08782990659657898    0.11465540901770836    
  0.17312648692714513    0.2634775178425841    0.3560400247446177    0.40581437371568885    0.41570963207565353    
  0.31717316265547174    0.3595441948644002    0.41219233255626775    0.3560399179175395    0.23870926929931402    
  0.15218967917734158    0.11267815436277788    0.10873891190463146    0.13368327725021445    0.18402112566954293    
  0.24749795289593782    0.2996318027801235    0.3189565233853498    0.29963190382302674    0.2474979571039686    
  0.18402120233698416    0.13368328894658513    0.10873891188498858    0.11267816893311869    0.15218964393381446    
  0.23870932533154257    0.35604003147586416    0.4121922283525002    0.3595441704284706    0.31717316265547174    
  0.1324582363744766    0.19785795260125133    0.3595441650656318    0.4058142575367484    0.29216562471353696    
  0.18401182274879718    0.13336735522331106    0.12825801545449655    0.1600287291869185    0.22398563776381408    
  0.3011259303436089    0.3580958670546822    0.3766745136450359    0.3580958924440732    0.3011258521302891    
  0.22398562279197268    0.1600287498235683    0.12825804711931327    0.1333673269525581    0.18401183214317976    
  0.29216568766419365    0.40581437638388324    0.35954415526765654    0.197857954255859    0.1324582363744766    
  0.07357106779142117    0.13245824260973432    0.3171731800048498    0.4157095786459065    0.3125201332186319    
  0.19676093775347725    0.14148847838361225    0.13578357022545398    0.17027623226593996    0.23942991625602023    
  0.32057337542346287    0.37671798159090597    0.393513902569048    0.37671801946230465    0.32057346473515186    
  0.2394299219159882    0.17027620514110983    0.13578359916865015    0.14148848176527581    0.19676092875571147    
  0.3125201337860179    0.41570961595294786    0.3171731322832231    0.13245820575986525    0.07357106779142117    
  0.12564174628260225    0.19088284316349716    0.35576709228796616    0.4055300277460096    0.2893884094722327    
  0.17644224331502173    0.11970730380593173    0.10498931601868036    0.11966857365400273    0.1576109090460112    
  0.2086820462668352    0.2534849604121568    0.27101756620005824    0.25348496063749265    0.20868215252526173    
  0.1576108285614353    0.11966849974134404    0.10498933726816964    0.11970729478459735    0.17644220235902738    
  0.28938843976825257    0.4055300768727537    0.35576700464658134    0.19088284454026738    0.12564174628260225    
  0.19089007760111038    0.25487475331281934    0.38641233043988127    0.39184043992966977    0.2705561549003478    
  0.16546342235363654    0.11331142363533861    0.09980250095089459    0.11338374016667327    0.14832242976436238    
  0.1954136359163648    0.23696542628084116    0.25334142069332    0.2369653662805362    0.19541367292815315    
  0.14832248528051978    0.11338373934140897    0.09980249899176565    0.11331143072032021    0.16546343576782657    
  0.2705562108236752    0.39184048976911545    0.3864123140016645    0.25487475067632487    0.19089007760111038    
  0.3563588822732386    0.3869011425931365    0.41075332991536007    0.3377206398597272    0.22151568588374962    
  0.1379638713620287    0.09706034204409494    0.08636183963679366    0.09715831801756965    0.12464007526770439    
  0.16153645396765784    0.19429005344552383    0.20736618981474408    0.19429011183862238    0.16153645609488348    
  0.12464003904767354    0.09715829972408928    0.08636184221125937    0.09706034666925682    0.13796389402308162    
  0.22151571852416121    0.33772070323945086    0.41075328909529907    0.3869012163967733    0.3563588822732386    
  0.4105004593839537    0.3962799789317844    0.34081353136852716    0.2490177535719975    0.16218326623860366    
  0.10550411562384929    0.0774429630124994    0.06992266527672004    0.07739137070576436    0.09615460612106873    
  0.12097979055106584    0.14287341708012166    0.15164594333000142    0.14287334080169276    0.12097978583572137    
  0.09615458411884766    0.0773913560441151    0.06992265566204638    0.0774429329902977    0.10550410857415128    
  0.16218328999610027    0.24901772629607338    0.3408135211541391    0.3962799467738462    0.4105004593839537    
  0.30212805166125417    0.2820606174573614    0.2300256561195024    0.1666350568476515    0.11307371205511549    
  0.07823911881173086    0.06044283070516202    0.05548388865640857    0.06010456515277253    0.07171167301903479    
  0.08678581565944025    0.0998048510403939    0.10498128218282027    0.09980485596373494    0.08678586315005582    
  0.07171165228453699    0.06010456934529663    0.055483871657038726    0.06044283131639855    0.07823912734765205    
  0.11307370127914207    0.1666351458459805    0.23002562027179171    0.28206064668093234    0.30212805166125417    
  0.19888192394693072    0.18591792714119715    0.1534760746113617    0.11520549671259303    0.08266965791307498    
  0.060794386485135056    0.04914688178165348    0.045655724263744236    0.048358254952269454    0.055479794784345074    
  0.0645537827131239    0.07219844874125964    0.07521093318240822    0.07219847738279349    0.06455381603897532    
  0.055479779270388704    0.0483582554621879    0.04565569982490313    0.04914688703275979    0.0607943967184233    
  0.0826696505454246    0.11520556809546965    0.15347605601123746    0.18591793801732873    0.19888192394693072    
  0.15652008791096103    0.1471221813007808    0.12326971921190945    0.09479098058952902    0.07025674250976671    
  0.05336201349158524    0.04409313693223672    0.04102385310447452    0.04270527759635782    0.04771848026039365    
  0.054056397900260414    0.05932674306275415    0.0614071821952724    0.0593267423527993    0.05405643664250162    
  0.047718465183813785    0.042705270367087475    0.041023870852253286    0.04409313553822366    0.05336201390624538    
  0.07025676025013948    0.09479098767693916    0.12326967363867909    0.14712214290533943    0.15652008791096103    
  0.16799551482956043    0.15778006368367387    0.13164418197474487    0.10039216552454741    0.07355069369188287    
  0.05506738254865391    0.04484087318319423    0.041226077257589054    0.04254248589656887    0.047246691525111496    
  0.05338171038023999    0.058518955209191065    0.0605388220149861    0.05851892879371178    0.053381727879198926    
  0.04724668645930812    0.042542477900541664    0.04122608776706841    0.04484086398599947    0.05506738521049706    
  0.07355069258312998    0.10039223027300306    0.13164415904219437    0.15778009101327994    0.16799551482956043    
  0.2310752782243541    0.21597291906619076    0.17727279914457747    0.13096639031903093    0.09160971371257104    
  0.06514515301005491    0.05081716694263712    0.04568251152584529    0.04708432914381531    0.052967754510997035    
  0.06094256752148689    0.06778483668616085    0.07048031740967765    0.06778486458169851    0.06094256042204272    
  0.05296775210074681    0.04708432450533406    0.04568250228705569    0.05081715127019422    0.06514514687467893    
  0.09160972087180275    0.13096645218885816    0.1772727382837646    0.21597290555030427    0.2310752782243541    
  0.333098572550369    0.31288107604326953    0.2570391447130413    0.18529576347711058    0.12321725394214836    
  0.0824189922783786    0.061004243590699885    0.053395080251378436    0.05527833733636236    0.06363385478052648    
  0.07518601520517015    0.08534616210713582    0.08939709539999477    0.0853461185331438    0.07518602995680845    
  0.0636338202796069    0.05527831844673801    0.053395068419962034    0.06100423932583176    0.08241899083354048    
  0.12321724591642515    0.185295841620942    0.2570391758442553    0.3128810545007707    0.333098572550369    
  0.4080550250938954    0.39602147544458516    0.3434853216245832    0.25144869820905763    0.1623918845601975    
  0.10331475062043541    0.07297257054189264    0.06238866469632571    0.06495229719891037    0.07649642677161675    
  0.09268826394846091    0.1072235529736376    0.11309680413911412    0.10722354126547057    0.0926882962784497    
  0.07649640965369478    0.06495230811473968    0.0623886608986712    0.07297255758308133    0.1033147445495909    
  0.16239185986287835    0.2514487389556541    0.343485207706744    0.39602136555360223    0.4080550250938954    
  0.401285781008076    0.41174753619388665    0.3945443557172418    0.30451317243976767    0.19591030366421336    
  0.12092612068935756    0.08282896717629018    0.06973263541766367    0.07290401130195734    0.08725220305393058    
  0.10759025037981876    0.12602959275666453    0.13348778703888878    0.1260296456575857    0.10759023590297122    
  0.08725218354202699    0.07290399832419499    0.06973261571075333    0.08282896282805657    0.12092610127243125    
  0.1959102927249176    0.30451321399145337    0.39454434624805773    0.41174744822840553    0.401285781008076    
  0.3791432416661113    0.4011985052855065    0.4064054252094769    0.32393729099814333    0.20916716624015405    
  0.12788251079340449    0.08668423173420375    0.07259515764479368    0.07602184745213247    0.09151830992481431    
  0.11356244298944339    0.1335517870343152    0.14161304259335616    0.1335517988949744    0.11356247838993862    
  0.09151831462680984    0.07602183661542258    0.07259514238080018    0.08668422372725627    0.12788252131362987    
  0.20916718799549427    0.32393736023680314    0.4064053327427301    0.40119836244070567    0.3791432416661113    
  0.4012857247827337    0.41174751125205045    0.39454436463475684    0.3045131549180318    0.19591029752174344    
  0.12092610046994204    0.08282896229729776    0.06973259988510111    0.07290397673279071    0.08725221884565962    
  0.10759027698935925    0.12602964427126695    0.13348773534549468    0.12602963735443065    0.10759027598430913    
  0.08725217771409895    0.07290400761063999    0.06973259746135875    0.08282896279194188    0.12092611419813551    
  0.19591032592574315    0.3045132656938385    0.39454439446147366    0.41174744341199243    0.4012857247827337    
  0.40805503145855565    0.39602147006632266    0.34348517941882123    0.2514486972561486    0.1623918362503776    
  0.10331473956658431    0.07297257868442987    0.062388663805246804    0.0649523052051483    0.07649640384291685    
  0.09268829905207651    0.10722350222314149    0.1130967842476601    0.10722354206829239    0.0926883128445176    
  0.07649641458569811    0.06495227990183947    0.062388647282024944    0.07297257905769612    0.10331474860423269    
  0.16239186134550868    0.25144876926539605    0.3434851541614023    0.39602143680538177    0.40805503145855565    
  0.33309855062313287    0.31288106361527446    0.257039110244225    0.185295758683936    0.12321723854970672    
  0.08241900513066042    0.06100425366312295    0.05339506600566225    0.05527834285754128    0.06363388148403362    
  0.07518601174493156    0.08534614113973898    0.08939709989018992    0.08534614995089913    0.07518608391484988    
  0.06363383873004473    0.05527830973181111    0.053395060698097095    0.06100422877590043    0.0824189922126309    
  0.12321725321886817    0.1852957700137569    0.2570390650750391    0.3128809867657295    0.33309855062313287    
  0.23107531220454758    0.2159729861521246    0.1772728166696026    0.130966414136353    0.091609706414283    
  0.0651451545329934    0.05081715971637674    0.04568250868497582    0.04708432500236181    0.05296775696589877    
  0.06094253756709358    0.06778483535515362    0.07048032451066298    0.06778484171530252    0.06094256957538567    
  0.052967748699457085    0.047084321158081865    0.04568252181401918    0.050817159064285584    0.06514516012598123    
  0.0916097163659202    0.13096649028798846    0.17727280510003154    0.21597289052325375    0.23107531220454758    
  0.16799551059379383    0.1577801116934052    0.13164418799609592    0.10039213171206778    0.07355067843343102    
  0.05506737989221891    0.044840869913383596    0.04122608986827802    0.042542495864900574    0.047246699863935114    
  0.0533816878771452    0.058518901592938107    0.06053883451113098    0.05851891054392188    0.053381720869707494    
  0.04724668438244205    0.04254247978590983    0.04122608598303885    0.04484087487446119    0.05506738283560362    
  0.07355067875186534    0.10039221920788276    0.13164414389006876    0.15778006779963777    0.16799551059379383    
  0.1565200894676133    0.14712217706476832    0.1232697179287309    0.09479097113275763    0.07025673482130852    
  0.05336201627847955    0.04409312863763839    0.041023866434609924    0.042705308192268934    0.04771848271930891    
  0.054056399776509424    0.05932673870552293    0.06140717472596118    0.05932675298418833    0.054056432666312146    
  0.047718473521871814    0.04270527359387233    0.04102387170843725    0.0440931266368613    0.05336201077082795    
  0.07025673895289243    0.09479100123375345    0.12326966896779819    0.14712211930666289    0.1565200894676133    
  0.1988819405930959    0.18591787988233135    0.15347609968764073    0.1152055275106243    0.08266967057637192    
  0.060794376439865676    0.04914690307521128    0.04565571038774177    0.04835825753994955    0.055479785440202066    
  0.06455379400197896    0.07219849211951342    0.07521091401289381    0.07219847125250622    0.06455381478040069    
  0.05547978835286892    0.04835824213814243    0.04565570614459133    0.049146883511650884    0.060794393754704634    
  0.0826696578710442    0.11520559382939291    0.1534760594779637    0.1859179100235458    0.1988819405930959    
  0.3021280580660224    0.2820606361183574    0.23002560274987818    0.16663503063759583    0.11307372116586958    
  0.07823910212619818    0.060442851514627624    0.055483884975524075    0.060104592808012273    0.07171168576512556    
  0.08678583426024833    0.09980485042336172    0.10498136375944787    0.0998048651365611    0.08678585505883867    
  0.07171166419762329    0.06010458245186989    0.0554838771514994    0.06044282838916064    0.07823911814058868    
  0.11307371205414024    0.16663509930116263    0.23002556211578326    0.28206055670265046    0.3021280580660224    
  0.41050044477792386    0.3962798926292795    0.3408135694510597    0.24901776701964484    0.16218328678074723    
  0.10550410365132894    0.07744294557679218    0.06992267774627187    0.07739137690295496    0.09615459864311793    
  0.12097971280694818    0.14287334522532996    0.151645967380717    0.1428733209406435    0.12097980944767242    
  0.09615461283476116    0.07739135900184312    0.0699226741826479    0.07744292566805996    0.10550411124224908    
  0.16218328338273133    0.24901780188151446    0.3408135541396519    0.39627997216359145    0.41050044477792386    
  0.3563588492738158    0.38690119627387903    0.41075339472905603    0.3377206493515503    0.22151563064061094    
  0.13796389400521905    0.09706030152976536    0.08636184687965173    0.09715829637154758    0.1246400467938342    
  0.16153647534175725    0.1942901086017997    0.20736627201801847    0.1942901330297456    0.1615365238598687    
  0.1246400526849633    0.09715830501204803    0.08636183250656951    0.09706031182472113    0.1379639037167851    
  0.22151570744636123    0.3377207913029296    0.4107533179564107    0.38690115973207817    0.3563588492738158    
  0.19089004972723397    0.25487476654946223    0.38641232972188366    0.3918404318056613    0.2705561195834534    
  0.1654634745196488    0.11331144340691048    0.09980249128569176    0.11338376346049202    0.1483224582108498    
  0.19541370040322312    0.23696532511429963    0.2533414134729531    0.23696539939703237    0.19541363041485385    
  0.1483224180388179    0.11338376530461787    0.09980248238257788    0.11331140731362593    0.16546345390117317    
  0.27055621846761874    0.39184050762163386    0.3864122945392162    0.2548747527171276    0.19089004972723397    
  0.12564174628260225    0.19088284316349716    0.35576709228796616    0.4055300277460096    0.2893884094722327    
  0.17644224331502173    0.11970730380593173    0.10498931601868036    0.11966857365400273    0.1576109090460112    
  0.2086820462668352    0.2534849604121568    0.27101756620005824    0.25348496063749265    0.20868215252526173    
  0.1576108285614353    0.11966849974134404    0.10498933726816964    0.11970729478459735    0.17644220235902738    
  0.28938843976825257    0.4055300768727537    0.35576700464658134    0.19088284454026738    0.12564174628260225    