#     DFTpy    
  CRYSTAL 
    
  PRIMVEC    
  2.727724137931034    0.0    0.0    
  0.0    2.727724137931034    0.0    
  0.0    0.0    2.727724137931034    
  PRIMCOORD    
  2    1    
  Si    0.0    0.0    0.0    
  Si    1.363862068965517    1.363862068965517    1.363862068965517    
  BEGIN_BLOCK_DATAGRID_3D    
  3d_datagrid_density    
  BEGIN_DATAGRID_3D#0    
  13    13    13    
  0.0    0.0    0.0    
  2.727724137931034    0.0    0.0    
  0.0    2.727724137931034    0.0    
  0.0    0.0    2.727724137931034    
  0.05412913636596034    0.09723130238289474    0.25527970084656065    0.41986362711682207    0.41929309071927523    
  0.35111050088172996    0.3213036744057547    0.351110517751888    0.41929309693465827    0.41986368210498676    
  0.25527971972789076    0.09723128490632807    0.05412913636596034    0.09723129656971496    0.1489252453298091    
  0.30664490125070465    0.438826539011771    0.41993965253609916    0.3518259820547323    0.32334951062519435    
  0.3518260057984433    0.41993959116890023    0.43882655212507804    0.30664488481406316    0.148925237887278    
  0.09723129656971496    0.25527971783546055    0.3066448788028072    0.4170813543414318    0.46396443187401126    
  0.41431271143837695    0.35135640344844576    0.327066948449842    0.3513564343694584    0.41431270466058945    
  0.46396454532041914    0.417081359518287    0.30664485347502174    0.25527971783546055    0.41986359842177357    
  0.43882658068157476    0.4639645052044762    0.44614515376958663    0.3929656963236023    0.34601340484591014    
  0.32873865833544924    0.346013475699832    0.3929656290443534    0.44614520073948494    0.46396455523593527    
  0.43882645668485726    0.41986359842177357    0.4192930930474876    0.41993964403412876    0.41431276020333296    
  0.3929656889802796    0.36189250363901415    0.336476078389963    0.3270670091446516    0.3364761104264829    
  0.3618924590293905    0.3929657340562386    0.4143127547154963    0.41993961514497363    0.4192930930474876    
  0.3511105328281285    0.3518259781878221    0.3513564315915029    0.3460133821390028    0.3364760712442963    
  0.3272178145851789    0.3233494838967085    0.32721780711701776    0.336475999435536    0.34601343034489157    
  0.3513563869669953    0.3518259663455157    0.3511105328281285    0.32130371121770057    0.323349515333697    
  0.327066985454224    0.32873868256551014    0.32706701457404297    0.323349530415532    0.32130370624841453    
  0.3233495468540275    0.3270669807021772    0.3287387067703248    0.3270670009140441    0.3233495168169068    
  0.32130371121770057    0.3511104976099188    0.3518259699239843    0.35135639118024664    0.34601339968654676    
  0.33647607097671045    0.32721780181092486    0.3233495057117336    0.32721783174439134    0.33647607046248795    
  0.3460134065852489    0.35135642940257733    0.3518260060754868    0.3511104976099188    0.4192930835621846    
  0.4199396163845178    0.41431277568227315    0.39296567396280035    0.36189250253166616    0.3364761020175512    
  0.3270669397994231    0.33647612679416283    0.3618924631083238    0.39296566111076237    0.41431274732015216    
  0.4199395739471929    0.4192930835621846    0.4198636327225313    0.4388265595718999    0.4639645307015995    
  0.4461452037155895    0.39296564547739327    0.34601345104714404    0.32873866403287194    0.3460134376908529    
  0.39296564771574943    0.4461452045033522    0.4639644321895912    0.43882650553473296    0.4198636327225313    
  0.25527969147368684    0.3066448934874816    0.41708135911020333    0.46396451484204787    0.41431278126897614    
  0.35135640443257965    0.3270669626394851    0.3513564338049987    0.4143127245688534    0.4639645279038586    
  0.41708134591602825    0.3066448758513697    0.25527969147368684    0.0972312874646572    0.1489252328962426    
  0.30664487914080424    0.4388265002739981    0.41993959912268825    0.35182597013752503    0.3233494812588036    
  0.3518259919523306    0.41993956713374947    0.43882657688479765    0.30664488127266015    0.14892522162568314    
  0.0972312874646572    0.05412913636596034    0.09723130238289474    0.25527970084656065    0.41986362711682207    
  0.41929309071927523    0.35111050088172996    0.3213036744057547    0.351110517751888    0.41929309693465827    
  0.41986368210498676    0.25527971972789076    0.09723128490632807    0.05412913636596034    0.09723129835177945    
  0.1489252180518268    0.30664485535229247    0.4388265069436496    0.41993958748328064    0.351825953641627    
  0.3233495347987871    0.3518259969812545    0.4199395817793286    0.4388265825985536    0.30664488759932446    
  0.14892522953183845    0.09723129835177945    0.14892521142741733    0.20491768468441812    0.3533564349321912    
  0.454627960307329    0.421827704241131    0.3544704641497189    0.3272177639513721    0.354470481772773    
  0.42182766717547265    0.4546279647556992    0.3533564543150348    0.2049176816392604    0.14892521142741733    
  0.30664485982437156    0.3533564447267163    0.4456793366222474    0.47379008085169344    0.4202960825496619    
  0.3596580489907042    0.33647603031856493    0.3596580604558223    0.4202960418613898    0.47379006122173745    
  0.44567933144226535    0.3533563885291583    0.30664485982437156    0.4388264875315557    0.45462796705104497    
  0.473789970074121    0.45474639578147746    0.40556907108988366    0.36219845067250567    0.34601338416911154    
  0.3621984795064979    0.40556906178702024    0.45474640474370615    0.4737900484283018    0.4546279496712522    
  0.4388264875315557    0.4199395444398884    0.4218277060536234    0.42029608371342264    0.4055690320130161    
  0.38112579565997284    0.3596580592395761    0.3513563754758014    0.3596580835276909    0.38112573462399557    
  0.4055691312612022    0.4202960248167707    0.42182771650592166    0.4199395444398884    0.3518259483103123    
  0.35447043992075455    0.35965807571604586    0.3621984926505815    0.35965801298792116    0.3544704603952187    
  0.3518259019929017    0.35447046825795164    0.3596579820455559    0.362198485758172    0.35965801609786974    
  0.3544704209552504    0.3518259483103123    0.3233495182536463    0.3272177864052903    0.33647604995135655    
  0.3460133902316479    0.3513564179559317    0.3518259936396752    0.35111050940014044    0.351825997470629    
  0.35135637299056244    0.3460134519294102    0.33647604584065327    0.3272177943181405    0.3233495182536463    
  0.3518259664405749    0.3544704727907856    0.3596580267102937    0.3621984241484925    0.35965805291466274    
  0.35447044755315155    0.3518259464852835    0.3544704712089956    0.3596580213775608    0.36219847123327964    
  0.35965806911549997    0.3544704806616811    0.3518259664405749    0.41993955420437656    0.4218277034183098    
  0.42029609046327254    0.40556906444780927    0.38112572659402505    0.35965807962608143    0.35135634773816343    
  0.3596580737093402    0.3811257047523843    0.40556907691127436    0.4202960945185194    0.42182763341676716    
  0.41993955420437656    0.4388265124491512    0.45462798304867347    0.47379006535480844    0.4547464288666111    
  0.4055690177719011    0.36219847510450104    0.3460134200035065    0.3621984758091852    0.405569061723065    
  0.4547464562617353    0.47378997472007645    0.4546279178927407    0.4388265124491512    0.30664483618338495    
  0.35335649226944477    0.44567929154982    0.47379003159606814    0.4202961021275016    0.35965805512576354    
  0.33647602425192513    0.3596581052211418    0.42029609799417905    0.47379011372794005    0.44567928367027826    
  0.3533564755022043    0.30664483618338495    0.14892521056882654    0.20491767924003726    0.35335646873431387    
  0.4546279509832984    0.4218276645399857    0.35447049185891694    0.32721777985025424    0.3544704661651105    
  0.4218276622928389    0.4546279263058384    0.3533564520256769    0.20491766337742962    0.14892521056882654    
  0.09723129835177945    0.1489252180518268    0.30664485535229247    0.4388265069436496    0.41993958748328064    
  0.351825953641627    0.3233495347987871    0.3518259969812545    0.4199395817793286    0.4388265825985536    
  0.30664488759932446    0.14892522953183845    0.09723129835177945    0.255279735374036    0.306644847486583    
  0.4170813706721264    0.4639644578173528    0.4143127330037034    0.35135636986491253    0.32706698296308384    
  0.35135644180468895    0.4143127203388493    0.46396460464675465    0.4170813672241604    0.3066448457710935    
  0.255279735374036    0.3066448359327187    0.35335644835107727    0.4456793122779008    0.4737900432545065    
  0.42029606504370653    0.35965806847897985    0.3364760568213898    0.35965803154799436    0.4202960428181463    
  0.47379004368949185    0.4456793811388339    0.35335648010611787    0.3066448359327187    0.417081364408269    
  0.44567931169053004    0.4905390672582353    0.4844399654240846    0.4316782378700347    0.3811257547216815    
  0.3618924460349325    0.3811257404338784    0.43167821526527145    0.4844399713559886    0.4905390275359492    
  0.4456792803069831    0.417081364408269    0.4639644659002976    0.4737900285326226    0.48443996447417187    
  0.4705386964718846    0.43707326785235845    0.4055690461507117    0.3929656106990669    0.4055690778702317    
  0.4370732661274258    0.4705387588894134    0.4844398884111147    0.4737900747375548    0.4639644659002976    
  0.4143127140412034    0.42029607277869163    0.4316782297247277    0.43707317503664356    0.43167822533388717    
  0.42029609162444886    0.4143127322925576    0.4202961560665895    0.4316781618003766    0.4370732352541525    
  0.4316781763229096    0.42029607929068397    0.4143127140412034    0.3513563988907147    0.3596580348882736    
  0.38112575827924183    0.4055690542124476    0.42029607717592266    0.42182770786522794    0.41993953837837844    
  0.4218277012384612    0.42029602240736486    0.4055691269015678    0.3811256976036977    0.3596580299877591    
  0.3513563988907147    0.3270670042908546    0.3364760641274673    0.36189248129304397    0.3929656426537609    
  0.4143127302431716    0.4199395785263118    0.4192931066968615    0.4199396368456961    0.4143127321524025    
  0.3929656590565227    0.3618924669667682    0.33647606345172526    0.3270670042908546    0.3513563751839393    
  0.3596580778433584    0.3811257079672374    0.4055690297326069    0.42029606763843075    0.4218277181765372    
  0.4199395823919881    0.42182776498480107    0.4202960178437693    0.40556903979241665    0.3811257214977958    
  0.35965806985202087    0.3513563751839393    0.41431269785917674    0.420296090889289    0.4316782198895447    
  0.43707320243758224    0.43167819705063576    0.42029608286734155    0.4143126841552124    0.42029610294502606    
  0.43167815112998165    0.4370731910155337    0.4316782623769598    0.42029603608360966    0.41431269785917674    
  0.46396451975807185    0.47379011541934757    0.48443989619064354    0.4705386916134296    0.4370731707048489    
  0.40556904808079725    0.39296564678841645    0.4055691073018422    0.43707322290864037    0.47053884921375666    
  0.48443993356539483    0.4737901214928326    0.46396451975807185    0.4170813545475493    0.44567935813509457    
  0.490538992232845    0.4844399919164463    0.4316781888043641    0.381125748431865    0.36189247921810946    
  0.3811257898987738    0.4316781813306154    0.4844399606998196    0.4905389983863043    0.44567934632502537    
  0.4170813545475493    0.30664486968727594    0.3533564491119196    0.4456793350112847    0.47379003293263977    
  0.4202960631649273    0.35965804831369785    0.3364760503449886    0.35965807251288673    0.4202960265459136    
  0.4737900321295721    0.4456793130524699    0.3533564126554638    0.30664486968727594    0.255279735374036    
  0.306644847486583    0.4170813706721264    0.4639644578173528    0.4143127330037034    0.35135636986491253    
  0.32706698296308384    0.35135644180468895    0.4143127203388493    0.46396460464675465    0.4170813672241604    
  0.3066448457710935    0.255279735374036    0.4198636244502782    0.4388265140962839    0.4639644838536884    
  0.4461451508108641    0.3929656345689693    0.34601340933602764    0.32873866246319944    0.3460134052898533    
  0.39296565431413794    0.44614520626196236    0.4639644854494627    0.4388265105367624    0.4198636244502782    
  0.4388264908984858    0.454627996084501    0.473790052046586    0.45474639690004715    0.4055690999286514    
  0.36219849626453293    0.34601337904029494    0.3621985139932635    0.40556903462390187    0.4547464430724722    
  0.4737900566676333    0.4546279682011394    0.4388264908984858    0.4639645077700442    0.47379005733354906    
  0.4844399460090517    0.47053872489128434    0.4370731878515885    0.4055690992395269    0.3929656044946946    
  0.40556909193728224    0.43707320280036116    0.47053872759816034    0.48443992255315593    0.4737900432113868    
  0.4639645077700442    0.4461451404720572    0.45474645411737996    0.4705387270108769    0.4776922923856506    
  0.47053875258977307    0.4547463862156584    0.4461451635341667    0.45474646600003094    0.47053874206126406    
  0.47769238611045556    0.4705387325241598    0.4547463753172676    0.4461451404720572    0.3929656322201608    
  0.4055690974790654    0.4370732270484303    0.4705387917189231    0.4844399453149027    0.47379005170638644    
  0.46396451236377306    0.4737901644303636    0.48443988880409505    0.4705388368808574    0.4370732314470802    
  0.4055690745983893    0.3929656322201608    0.3460134348373252    0.36219845272153317    0.40556908609858683    
  0.4547463620473964    0.4737900044822762    0.454627950384394    0.43882646547073345    0.45462792048772904    
  0.47378995049006983    0.4547464625893477    0.40556904103144104    0.36219845339199297    0.3460134348373252    
  0.32873869795116956    0.34601339334324077    0.3929656337189801    0.44614514329347316    0.4639645421013623    
  0.43882655220584554    0.4198636221946573    0.4388265540196522    0.46396451954825146    0.4461452232000135    
  0.39296565866854455    0.34601340084385507    0.32873869795116956    0.3460133967230658    0.3621984796254194    
  0.4055690640364904    0.4547464158974429    0.47379007473818163    0.4546279464124813    0.4388265066481244    
  0.45462797105723973    0.4737900024089511    0.4547464068906063    0.40556906616251354    0.36219849796272907    
  0.3460133967230658    0.39296564846217136    0.4055690946039975    0.43707323097278783    0.4705387696608666    
  0.4844399488291525    0.4737901092832446    0.4639644400594652    0.47379013713060353    0.48443994970309545    
  0.4705388063049273    0.43707324012690885    0.4055690410044494    0.39296564846217136    0.44614518196588143    
  0.45474640672954697    0.4705387340960107    0.4776923161947197    0.4705387301806788    0.45474648341935675    
  0.44614512722318744    0.4547463949871343    0.4705387214074279    0.4776923979487417    0.47053872869312513    
  0.45474635817683406    0.44614518196588143    0.46396447841917887    0.4737901039699212    0.4844399494094388    
  0.4705387704286953    0.4370732410938439    0.4055690663056466    0.3929656030836093    0.4055691091639509    
  0.43707315553149084    0.4705388021552636    0.4844398994817645    0.4737900638244837    0.46396447841917887    
  0.43882648589045575    0.4546278884207022    0.4737900284013955    0.4547464366689157    0.40556909164071014    
  0.36219845846871274    0.3460133707465536    0.3621985001441481    0.4055690329413361    0.45474646237224214    
  0.4737900454425355    0.454627930638271    0.43882648589045575    0.4198636244502782    0.4388265140962839    
  0.4639644838536884    0.4461451508108641    0.3929656345689693    0.34601340933602764    0.32873866246319944    
  0.3460134052898533    0.39296565431413794    0.44614520626196236    0.4639644854494627    0.4388265105367624    
  0.4198636244502782    0.41929310924223495    0.4199395513771448    0.41431273583650513    0.39296565251169185    
  0.36189248363929644    0.336476053607531    0.3270670149142994    0.33647608477619684    0.3618924971951588    
  0.39296569799866543    0.41431274777829963    0.4199395508189658    0.41929310924223495    0.41993954874031253    
  0.42182769721294217    0.4202960901636844    0.4055691032065074    0.381125738341407    0.359658063683781    
  0.3513563616929525    0.35965807649352    0.38112573054260523    0.4055690488681249    0.4202961128144941    
  0.42182773448777156    0.41993954874031253    0.4143126925054823    0.42029609866967627    0.4316782302419413    
  0.4370731826105617    0.43167821431052555    0.42029609204353663    0.4143126921124104    0.42029610129907213    
  0.4316781984196739    0.43707321862296916    0.4316782121158521    0.4202960329062169    0.4143126925054823    
  0.3929656228197637    0.40556911942479207    0.4370731324867489    0.47053867724122456    0.4844399275777746    
  0.4737900764955772    0.4639644883983396    0.4737901082710029    0.4844399738279029    0.4705387319259361    
  0.4370732226031506    0.4055690817577611    0.3929656228197637    0.3618924595061403    0.3811257590297554    
  0.431678235685596    0.4844398974210499    0.49053907619968795    0.4456793320978486    0.4170813717383819    
  0.4456793659245662    0.49053903209438593    0.4844400092428028    0.43167820357097175    0.3811257640151948    
  0.3618924595061403    0.33647604104516526    0.3596580286222784    0.4202961302806893    0.47379009561765567    
  0.4456792711074951    0.3533564627788765    0.3066448296809878    0.35335649285285825    0.4456792522610395    
  0.47379006486857805    0.420296021455865    0.35965800721422625    0.33647604104516526    0.3270670326572305    
  0.351356352424844    0.41431271339268017    0.4639645198524584    0.4170813961371073    0.30664488501165404    
  0.2552797178842955    0.30664492112839464    0.4170813650685054    0.4639645204385892    0.41431270801571907    
  0.3513563687773448    0.3270670326572305    0.33647606758988235    0.35965808215030143    0.4202960482657068    
  0.47379003964590605    0.44567932725569015    0.35335645467903215    0.3066448689948425    0.3533564673306366    
  0.4456792591227073    0.47379007955401536    0.4202961154580122    0.35965806068301387    0.33647606758988235    
  0.3618924648433386    0.3811257678324371    0.4316782328914541    0.48443995303054016    0.4905389903290977    
  0.4456793072891556    0.4170813474971912    0.4456793445577085    0.4905389640630702    0.48443999352570516    
  0.43167823707416775    0.3811256894981393    0.3618924648433386    0.3929656141433099    0.4055691322970717    
  0.4370731400009318    0.47053880756936717    0.484439956811008    0.4737900330138369    0.463964485007352    
  0.4737900786637386    0.48443991061353536    0.4705387898934413    0.4370731311370437    0.4055690745978729    
  0.3929656141433099    0.41431270769806233    0.4202961270997997    0.4316782480304095    0.43707318827901837    
  0.43167821530017947    0.4202960950489392    0.414312683567105    0.4202961348685444    0.431678271291734    
  0.43707324980778944    0.43167822665025335    0.42029606651726126    0.41431270769806233    0.41993955757758955    
  0.42182769601576103    0.42029608398987595    0.4055690981184203    0.38112571895967934    0.35965807890015755    
  0.3513563446150651    0.3596580572025921    0.3811257354541288    0.40556907036550915    0.4202960681098938    
  0.4218276728339119    0.41993955757758955    0.41929310924223495    0.4199395513771448    0.41431273583650513    
  0.39296565251169185    0.36189248363929644    0.336476053607531    0.3270670149142994    0.33647608477619684    
  0.3618924971951588    0.39296569799866543    0.41431274777829963    0.4199395508189658    0.41929310924223495    
  0.3511105008842157    0.3518259440197391    0.35135639767221954    0.34601339120342267    0.336476063280915    
  0.32721776102914396    0.323349504802898    0.32721785172295764    0.33647604474062515    0.34601346453800874    
  0.3513563862508673    0.35182596558287893    0.3511105008842157    0.3518259571437894    0.3544704409311511    
  0.3596580607128431    0.3621984609105062    0.3596580247791862    0.3544704572357324    0.35182594102824716    
  0.3544704544652543    0.35965800583940166    0.3621985074783509    0.3596580536318371    0.35447046000372884    
  0.3518259571437894    0.3513563752147715    0.3596580381033994    0.38112577362431815    0.40556906125053854    
  0.4202961167883649    0.4218277257081111    0.419939536367417    0.4218277104852487    0.4202960556513364    
  0.40556906067010523    0.3811257059083144    0.3596579823580794    0.3513563752147715    0.3460133707941881    
  0.3621985000390982    0.40556909300983396    0.4547463908139477    0.47379012789673697    0.4546279137873989    
  0.43882648148711695    0.45462791972886507    0.4737901037715754    0.45474641061440874    0.40556901526022715    
  0.3621984937848127    0.3460133707941881    0.3364760567659664    0.3596580483501528    0.4202960860636075    
  0.47379003272051556    0.4456793270939141    0.35335643869519534    0.30664484837918093    0.35335649755721094    
  0.44567929801219885    0.4737901822419582    0.42029605091472283    0.3596580421295867    0.3364760567659664    
  0.32721779426740644    0.3544704195796331    0.4218277272073819    0.4546279045910366    0.3533564459092502    
  0.2049176646466734    0.14892519143257463    0.20491767710386125    0.3533564158685181    0.45462798979272884    
  0.42182764394090677    0.35447041819957653    0.32721779426740644    0.3233495275117557    0.3518259674589448    
  0.41993957602197945    0.43882649190070594    0.30664488928445593    0.1489252288154111    0.09723129741324968    
  0.14892527241975229    0.3066448617703011    0.4388265189934761    0.41993957028185935    0.35182597746654803    
  0.3233495275117557    0.3272177881641523    0.35447046447241165    0.42182765799131383    0.45462789830112793    
  0.35335642464867556    0.20491768964933624    0.1489252066649137    0.2049176999970951    0.3533563952509152    
  0.45462789347969373    0.4218276954272363    0.3544704633749381    0.3272177881641523    0.33647603733123405    
  0.3596580553882401    0.4202961189738757    0.47379005034792177    0.44567929301835046    0.3533564735166264    
  0.30664483131223974    0.35335649906276123    0.44567929342702567    0.4737900517545258    0.4202961127946383    
  0.35965801598698466    0.33647603733123405    0.34601340748930476    0.36219849279441163    0.40556901894955294    
  0.4547464120172664    0.4737900323698497    0.4546278940202657    0.43882654210267635    0.45462796058078453    
  0.4737900654926482    0.4547465049806725    0.4055690588272525    0.3621984897994223    0.34601340748930476    
  0.35135639319785605    0.35965807787576154    0.38112572348608886    0.405569080248661    0.42029608446247874    
  0.4218276721396358    0.41993955833147467    0.4218277474059562    0.4202960579844691    0.40556912774385584    
  0.38112573152535417    0.35965806844657094    0.35135639319785605    0.3518259758068575    0.35447045665542976    
  0.3596580686452766    0.3621984646456939    0.35965802128500385    0.35447043555977753    0.3518259586603225    
  0.354470488092795    0.35965801571125045    0.3621984613515685    0.3596580229576009    0.3544704043384429    
  0.3518259758068575    0.3511105008842157    0.3518259440197391    0.35135639767221954    0.34601339120342267    
  0.336476063280915    0.32721776102914396    0.323349504802898    0.32721785172295764    0.33647604474062515    
  0.34601346453800874    0.3513563862508673    0.35182596558287893    0.3511105008842157    0.32130369933173364    
  0.3233495329118119    0.3270669621346418    0.3287386761997992    0.3270669780228646    0.32334951421037944    
  0.3213036918576835    0.3233495346939442    0.32706697707129007    0.32873872261544557    0.32706699737938644    
  0.32334951508386767    0.32130369933173364    0.3233495392213857    0.3272178287619147    0.3364760968772015    
  0.3460134275354562    0.3513564586132198    0.3518259912109948    0.3511104886330039    0.351825996075931    
  0.3513563938869349    0.3460134423410062    0.3364760733026221    0.3272178191073992    0.3233495392213857    
  0.3270669942331589    0.3364760784559228    0.361892475257301    0.3929655875992938    0.41431269417287997    
  0.4199395962373872    0.41929305652189813    0.41993962347566777    0.414312710144241    0.3929656914439905    
  0.36189247836865585    0.33647604362433187    0.3270669942331589    0.32873865150106923    0.3460134611370256    
  0.39296562796825435    0.4461451403836351    0.4639645546173883    0.4388265094476867    0.4198636069661582    
  0.4388265830077646    0.46396448839744653    0.4461452000357012    0.3929656929958611    0.34601337649477143    
  0.32873865150106923    0.3270669857420687    0.35135644036983393    0.414312754413057    0.46396454048185326    
  0.41708138791146687    0.30664487701495596    0.25527974032332335    0.3066449242938738    0.41708135201448815    
  0.46396461857148086    0.4143127691008402    0.3513564110002158    0.3270669857420687    0.32334955263057835    
  0.35182597651990755    0.41993963110317534    0.43882649535806334    0.3066448826943016    0.148925226958486    
  0.09723126876409267    0.14892523175109762    0.30664481710540237    0.43882654567443474    0.41993958202185677    
  0.35182597021823087    0.32334955263057835    0.32130372051765177    0.3511104965097194    0.41929309616020594    
  0.4198636380980454    0.2552797442729332    0.09723129199112272    0.05412913191784993    0.0972313118003795    
  0.25527971142782907    0.41986365419209454    0.41929311787952983    0.3511104992818729    0.32130372051765177    
  0.3233495187754645    0.3518259635307511    0.4199395713629754    0.4388265027986271    0.3066448896192159    
  0.14892523441706154    0.09723127769737255    0.14892524663203355    0.30664488424483166    0.4388264945408139    
  0.4199396298472481    0.35182600303726724    0.3233495187754645    0.3270669786190925    0.3513564293289992    
  0.41431277964825636    0.46396453688284106    0.41708139751628354    0.3066449097668458    0.25527966913090827    
  0.30664493505765084    0.4170813448725979    0.4639645320373685    0.4143127605780838    0.35135638860213375    
  0.3270669786190925    0.32873867899200127    0.34601346255624194    0.3929656621192901    0.44614520716148537    
  0.46396449864342976    0.43882657681199366    0.41986361473007305    0.4388265253872829    0.46396451700191416    
  0.4461452256359226    0.39296559255455976    0.34601339315644813    0.32873867899200127    0.32706697071994756    
  0.33647609029293407    0.36189247623750403    0.39296565430326624    0.4143127736145374    0.4199395932510204    
  0.41929306954281426    0.4199396313793769    0.4143127284181384    0.39296567472506927    0.3618924678707257    
  0.33647607270168733    0.32706697071994756    0.32334950651617855    0.32721780598908773    0.3364760734967273    
  0.3460134004307861    0.3513564184275661    0.35182596755488194    0.3511104548732332    0.3518259933186662    
  0.35135638929700164    0.3460134651750936    0.33647607854384654    0.32721779509508175    0.32334950651617855    
  0.32130369933173364    0.3233495329118119    0.3270669621346418    0.3287386761997992    0.3270669780228646    
  0.32334951421037944    0.3213036918576835    0.3233495346939442    0.32706697707129007    0.32873872261544557    
  0.32706699737938644    0.32334951508386767    0.32130369933173364    0.3511104926520891    0.3518259378074012    
  0.3513563733853014    0.3460133997540506    0.33647606219310305    0.3272177769301587    0.3233495267725559    
  0.32721781950596096    0.3364760581372643    0.34601345740360306    0.35135640546505387    0.35182597214821765    
  0.3511104926520891    0.35182594305638903    0.3544704661084855    0.3596580316235021    0.3621984870271471    
  0.3596580430453361    0.35447046123949866    0.35182593560302894    0.3544704668965888    0.3596579984673081    
  0.3621984859338169    0.3596580397824623    0.35447045982354297    0.35182594305638903    0.35135637710411743    
  0.35965804027066745    0.3811257629987736    0.4055690769801889    0.4202960842024408    0.42182769970962325    
  0.4199395697937523    0.421827705383056    0.42029604468701903    0.4055690608684313    0.38112575711547303    
  0.35965798404875854    0.35135637710411743    0.34601339049003765    0.3621985131039319    0.40556898801823554    
  0.4547464018271121    0.473790076180611    0.45462791928737245    0.4388264947922913    0.4546279283948694    
  0.4737900573368743    0.45474641090496243    0.4055690574783705    0.3621984828782042    0.34601339049003765    
  0.33647603180853286    0.359658055544838    0.42029607850466943    0.47379004489162574    0.4456793761901576    
  0.3533564657768523    0.3066448569749225    0.3533565005076062    0.4456793244174315    0.4737901267047983    
  0.42029602840396013    0.35965804743352414    0.33647603180853286    0.32721778388151357    0.35447044064494876    
  0.4218277253177062    0.4546279720412798    0.35335643414455303    0.204917680440339    0.14892518352426523    
  0.20491768289304432    0.3533563911396426    0.45462796318949095    0.4218276724916241    0.3544704217375948    
  0.32721778388151357    0.3233495247587019    0.3518259443945186    0.4199395703853086    0.43882649495782083    
  0.3066449013623292    0.14892523171865052    0.09723128954174476    0.1489252489368093    0.30664485975372374    
  0.43882654690483525    0.41993956675582333    0.35182596329992916    0.3233495247587019    0.3272177976340614    
  0.3544704623428869    0.42182769214996735    0.4546278533524289    0.35335645814194455    0.204917669728022    