#     DFTpy    
  CRYSTAL 
    
  PRIMVEC    
  7.377310344827585    0.0    0.0    
  0.0    7.377310344827585    0.0    
  0.0    0.0    7.377310344827585    
  PRIMCOORD    
  8    1    
  Si    0.0    0.0    0.0    
  Si    1.8443275862068962    1.8443275862068962    1.8443275862068962    
  Si    0.0    3.6886551724137924    3.6886551724137924    
  Si    1.8443275862068962    5.5329827586206894    5.5329827586206894    
  Si    3.6886551724137924    0.0    3.6886551724137924    
  Si    5.5329827586206894    1.8443275862068962    5.5329827586206894    
  Si    3.6886551724137924    3.6886551724137924    0.0    
  Si    5.5329827586206894    5.5329827586206894    1.8443275862068962    
  BEGIN_BLOCK_DATAGRID_3D    
  3d_datagrid_density    
  BEGIN_DATAGRID_3D#0    
  33    33    33    
  0.0    0.0    0.0    
  7.377310344827585    0.0    0.0    
  0.0    7.377310344827585    0.0    
  0.0    0.0    7.377310344827585    
  0.10384369932350446    0.17375339585827704    0.38779640821439704    0.5073438539658788    0.366873198404851    
  0.1906705387716023    0.0886480762491969    0.041903102467986224    0.02203659303920173    0.013667552720371007    
  0.010062419491973054    0.008528526794648276    0.007941553597704978    0.007789618372160136    0.007816322729397232    
  0.007887700252234838    0.007921135327206787    0.00788770061927013    0.007816322217682506    0.007789614971869287    
  0.007941544365425043    0.00852851961316762    0.010062418879761812    0.013667552166435509    0.022036598129957504    
  0.04190310287995455    0.0886480457738278    0.1906706240451682    0.3668731865640441    0.5073439726990054    
  0.38779632560473754    0.17375344188458688    0.10384369932350446    0.17375334091742756    0.2499213056145381    
  0.43975964963065345    0.49928969472317075    0.3439382946294556    0.17832193902975038    0.08404796063352661    
  0.04053269262747727    0.021779542071177473    0.01374524706412868    0.010215175456458343    0.00867232946998837    
  0.008043199254965926    0.007845412854856664    0.007829064152866671    0.007867748374174347    0.007887695537971267    
  0.007867744416935362    0.007829056967396117    0.007845419897678245    0.008043194169494946    0.008672346490352409    
  0.010215161412840307    0.013745261383942447    0.02177953763957805    0.04053269117439518    0.08404796827560648    
  0.1783218997518753    0.3439383288303864    0.4992896379295587    0.43975973244356664    0.24992126771921305    
  0.17375334091742756    0.38779630472754395    0.43975965035519304    0.510485447041559    0.4442402551079612    
  0.28049901164106306    0.1466729772164869    0.07231133461593864    0.037016488646943096    0.02116195050243272    
  0.014025440311456932    0.010705805097172857    0.009129122022445276    0.008374020580458733    0.008029877007268808    
  0.007883966109709973    0.00782905763040828    0.007816323681655303    0.007829050137347072    0.007883961628840095    
  0.008029880957697898    0.008374031909282452    0.009129117393452776    0.010705789169036363    0.014025434139029149    
  0.02116195495361373    0.03701651653169514    0.07231133840463873    0.14667307198134422    0.2804990079800208    
  0.4442403237172922    0.5104854774379621    0.43975967191569804    0.38779630472754395    0.507343760142774    
  0.4992896662307693    0.4442402085887735    0.3254970941587841    0.19800043189040806    0.10819242707107644    
  0.057875548919374006    0.03267919569360103    0.02055733628441445    0.014633305405990674    0.011590568563776714    
  0.009933748103740743    0.008962006137504006    0.008378207710047174    0.008029868940465262    0.00784543317814884    
  0.007789604555413224    0.00784541397259823    0.008029877786610382    0.008378225240620473    0.008962004684294709    
  0.009933747520285802    0.011590554742964181    0.014633321208891461    0.020557347442617523    0.032679188655047986    
  0.05787556112036488    0.10819245275244423    0.19800046056038392    0.3254970449238143    0.4442402147172236    
  0.4992897407307804    0.507343760142774    0.3668732847349176    0.3439382028731345    0.2804991181620459    
  0.19800041739665108    0.12472740217033243    0.0743380897965397    0.04474297433064173    0.02876101347598908    
  0.020313979749979824    0.015663819466913503    0.012899633536240475    0.011102496864619928    0.009845604165560956    
  0.008961996203931833    0.00837403407988274    0.008043172115137243    0.007941560559474726    0.008043169068689241    
  0.008374037571616968    0.008961996875701508    0.009845614542443041    0.011102506746580202    0.012899637161279924    
  0.015663822715151828    0.020313980886425553    0.028761011575941388    0.044742941514429986    0.07433808755302394    
  0.12472739983823822    0.19800042376337462    0.2804990627680741    0.34393825677131995    0.3668732847349176    
  0.19067045594344706    0.17832205891030795    0.14667298111079557    0.10819252645748122    0.0743380658382394    
  0.050114998224110516    0.03489846626519459    0.02591769457790101    0.02055733488842587    0.017095633966265258    
  0.014602104809926287    0.012651659957151637    0.011102492102287271    0.009933761705964175    0.009129110886760538    
  0.008672364383974849    0.008528498462833501    0.008672356312363646    0.009129099004515872    0.009933776816168291    
  0.011102500614868154    0.012651662079325077    0.014602092897214468    0.017095634599406412    0.020557334847545294    
  0.025917693213241586    0.03489848097338271    0.05011500833563979    0.07433806871145829    0.10819249430178529    
  0.14667299396917136    0.17832206303222686    0.19067045594344706    0.08864817894521895    0.08404785349456184    
  0.0723114106678362    0.05787548668932874    0.04474299790470436    0.0348984237603631    0.02834894249247673    
  0.024118426817899358    0.02116194839362695    0.018773866656047866    0.01660185014756994    0.014602083182717019    
  0.012899655590094867    0.011590525535276596    0.010705833448812279    0.010215116519842526    0.010062464481920714    
  0.010215119580619042    0.01070582524241752    0.01159052867567123    0.012899656697285666    0.01460207776323333    
  0.016601846962124252    0.018773876498619415    0.021161948332643017    0.02411843200438998    0.028348928898007702    
  0.03489845519330459    0.044742994513525    0.057875479534641255    0.0723114324289002    0.08404786036775454    
  0.08864817894521895    0.04190301726205594    0.04053278029878333    0.03701642300796044    0.03267926111366009    
  0.028760970286417616    0.02591770967821632    0.024118422390912247    0.022907179960266384    0.021779529548481186    
  0.020413694382803837    0.018773881175149405    0.017095656043887214    0.01566381093815826    0.014633358395173495    
  0.014025390329875572    0.013745306882117527    0.013667503130951055    0.013745312593061108    0.014025396393714395    
  0.014633365030608539    0.01566379816012681    0.017095665058243573    0.01877387466772291    0.020413712450199073    
  0.021779528498210233    0.022907167555850542    0.024118430662170714    0.025917712762321903    0.028760988627443446    
  0.03267924652924926    0.03701642197577948    0.04053277622948589    0.04190301726205594    0.022036676581305058    
  0.021779456342959542    0.02116202504862456    0.020557277222846813    0.020314028631634676    0.020557293646128554    
  0.02116197031440423    0.021779517138908695    0.022036603922534825    0.021779521996961124    0.021161965138479427    
  0.020557313970113983    0.020314029443539546    0.020557278964565672    0.02116201803297723    0.02177946636113267    
  0.022036675871743017    0.02177945784055629    0.021162024155234518    0.02055727304199313    0.020314027347274225    
  0.020557300255542026    0.021161974264372593    0.021779512743702628    0.02203660289662986    0.021779529052629944    
  0.021161963095979282    0.02055731733163804    0.020314028236632132    0.020557278777432693    0.021162021183645827    
  0.021779473956278234    0.022036676581305058    0.01366749264639449    0.013745314589935288    0.014025381447480448    
  0.014633359583805537    0.015663794291003272    0.0170956724281129    0.01877387205431069    0.020413715358086667    
  0.021779533001689236    0.022907170624765237    0.024118430379144212    0.02591771609228183    0.028760968575767196    
  0.03267924660344045    0.037016424792021434    0.0405327829507611    0.04190300709896404    0.040532789938049915    
  0.0370164067871899    0.03267924448436302    0.028760966543725265    0.025917734859914165    0.02411841951100364    
  0.02290716935173475    0.021779526331768228    0.020413713961317612    0.018773877040413712    0.01709566088710649    
  0.015663801018818112    0.014633364567128604    0.014025395705766773    0.013745320309058376    0.01366749264639449    
  0.010062469429715112    0.010215119052454773    0.010705831519199242    0.01159052477233135    0.012899656013823278    
  0.014602073303491269    0.01660185125145902    0.018773869428533027    0.021161950732183937    0.02411841594777046    
  0.02834892622319631    0.03489845317230325    0.04474299912206157    0.05787545878924595    0.0723114050824763    
  0.08404783089567543    0.08864818454926227    0.08404784757579913    0.07231142955258293    0.05787546598406456    
  0.04474299950415128    0.034898434417963246    0.02834894818493214    0.02411841482551097    0.021161953064841522    
  0.01877387898440942    0.016601842108425607    0.014602084161849294    0.01289965306940234    0.011590523369315176    
  0.010705830131168093    0.010215125243205506    0.010062469429715112    0.008528493051357184    0.00867235780767565    
  0.009129097412513653    0.009933782231992335    0.01110248728444245    0.01265167095961934    0.014602083981123053    
  0.017095662774396038    0.020557315525883805    0.02591770355219861    0.0348984481568889    0.05011501346154587    
  0.07433806706008723    0.10819249648072056    0.14667295696359922    0.17832200759436867    0.19067042292272082    
  0.17832204213792602    0.14667294029713954    0.10819257630751651    0.07433804830031966    0.05011501701826746    
  0.03489846471355977    0.025917712401069756    0.02055730828727322    0.017095650288809598    0.014602089987313547    
  0.012651664323853843    0.011102492382833517    0.009933763631397788    0.009129099359130791    0.00867237197926955    
  0.008528493051357184    0.007941572696828055    0.008043158326959171    0.008374051455788975    0.008961978501898683    
  0.009845621869125085    0.011102497307057932    0.012899647258780945    0.01566382385295443    0.020313994323251545    
  0.0287610026979932    0.044742957285004194    0.07433807997037789    0.12472737419520644    0.1980003391937459    
  0.28049902695829676    0.3439381814205666    0.3668732733283597    0.3439381143658134    0.2804991640028439    
  0.19800034970467592    0.12472744963177133    0.07433807018768585    0.04474298968416117    0.0287610029295867    
  0.020313990285731786    0.01566382697248559    0.012899643672610143    0.011102500731233759    0.009845604279731293    
  0.008961987310764821    0.00837403683082634    0.008043175208756175    0.007941572696828055    0.007789598029155596    
  0.007845417445133255    0.008029867568379026    0.008378226441035037    0.008961997740867162    0.009933750374198384    
  0.011590544107061534    0.014633332006682709    0.020557322147101556    0.03267918114135238    0.057875534722791215    
  0.10819243859302687    0.19800040125727947    0.32549712809961767    0.4442401677978991    0.4992896652417806    
  0.5073437450053345    0.4992897803491315    0.4442401888492829    0.3254971099767214    0.19800040218408538    
  0.10819244570962708    0.05787552581860702    0.032679204707683    0.020557322748795265    0.014633316027082717    
  0.011590561602739104    0.009933739313228376    0.008961999069667173    0.008378222849858747    0.008029865777164316    
  0.007845429657074183    0.007789598029155596    0.007816323715544388    0.00782904469043749    0.007883974194982974    
  0.008029879067532764    0.008374028200992248    0.009129123463349797    0.01070579968411019    0.014025433776641493    
  0.021161965891206433    0.03701649178176664    0.07231132500611955    0.14667307789689632    0.2804990091808027    
  0.444240299710287    0.5104854154907481    0.43975964715715704    0.38779635261778117    0.4397596164861822    
  0.5104855227532614    0.4442402524395369    0.28049904837672884    0.14667300729877508    0.07231135475305026    
  0.037016486590238123    0.021161965393354104    0.014025437889566249    0.010705799685595362    0.009129129628801302    
  0.008374033632361715    0.00802988500559896    0.007883961704945945    0.007829045715852459    0.007816323715544388    
  0.007887699297075758    0.007867740269053397    0.007829061741961277    0.00784542652447502    0.008043194563988774    
  0.008672340859704563    0.010215160876080875    0.013745268442793177    0.021779536556294252    0.04053269780350993    
  0.08404796409971262    0.1783219016284461    0.34393824623563074    0.4992896454605648    0.4397596529035748    
  0.24992129720070164    0.17375341207622672    0.24992127298943997    0.43975962877281105    0.49928968230202164    
  0.343938243517755    0.17832189402764448    0.084047961578492    0.0405326972512692    0.02177953111642555    
  0.013745253233497458    0.010215177524587251    0.008672333873578431    0.008043189897364935    0.007845412466490521    
  0.007829050356669543    0.007867744009784289    0.007887699297075758    0.007921135327206787    0.00788770061927013    
  0.007816322217682506    0.007789614971869287    0.007941544365425043    0.00852851961316762    0.010062418879761812    
  0.013667552166435509    0.022036598129957504    0.04190310287995455    0.0886480457738278    0.1906706240451682    
  0.3668731865640441    0.5073439726990054    0.38779632560473754    0.17375344188458688    0.10384369932350446    
  0.17375339585827704    0.38779640821439704    0.5073438539658788    0.366873198404851    0.1906705387716023    
  0.0886480762491969    0.041903102467986224    0.02203659303920173    0.013667552720371007    0.010062419491973054    
  0.008528526794648276    0.007941553597704978    0.007789618372160136    0.007816322729397232    0.007887700252234838    
  0.007921135327206787    0.007887695537971267    0.007867744416935362    0.007829056967396117    0.007845419897678245    
  0.008043194169494946    0.008672346490352409    0.010215161412840307    0.013745261383942447    0.02177953763957805    
  0.04053269117439518    0.08404796827560648    0.1783218997518753    0.3439383288303864    0.4992896379295587    
  0.43975973244356664    0.24992126771921305    0.17375334091742756    0.2499213056145381    0.43975964963065345    
  0.49928969472317075    0.3439382946294556    0.17832193902975038    0.08404796063352661    0.04053269262747727    
  0.021779542071177473    0.01374524706412868    0.010215175456458343    0.00867232946998837    0.008043199254965926    
  0.007845412854856664    0.007829064152866671    0.007867748374174347    0.007887695537971267    0.007816323681655303    
  0.007829050137347072    0.007883961628840095    0.008029880957697898    0.008374031909282452    0.009129117393452776    
  0.010705789169036363    0.014025434139029149    0.02116195495361373    0.03701651653169514    0.07231133840463873    
  0.14667307198134422    0.2804990079800208    0.4442403237172922    0.5104854774379621    0.43975967191569804    
  0.38779630472754395    0.43975965035519304    0.510485447041559    0.4442402551079612    0.28049901164106306    
  0.1466729772164869    0.07231133461593864    0.037016488646943096    0.02116195050243272    0.014025440311456932    
  0.010705805097172857    0.009129122022445276    0.008374020580458733    0.008029877007268808    0.007883966109709973    
  0.00782905763040828    0.007816323681655303    0.007789604555413224    0.00784541397259823    0.008029877786610382    
  0.008378225240620473    0.008962004684294709    0.009933747520285802    0.011590554742964181    0.014633321208891461    
  0.020557347442617523    0.032679188655047986    0.05787556112036488    0.10819245275244423    0.19800046056038392    
  0.3254970449238143    0.4442402147172236    0.4992897407307804    0.507343760142774    0.4992896662307693    
  0.4442402085887735    0.3254970941587841    0.19800043189040806    0.10819242707107644    0.057875548919374006    
  0.03267919569360103    0.02055733628441445    0.014633305405990674    0.011590568563776714    0.009933748103740743    
  0.008962006137504006    0.008378207710047174    0.008029868940465262    0.00784543317814884    0.007789604555413224    
  0.007941560559474726    0.008043169068689241    0.008374037571616968    0.008961996875701508    0.009845614542443041    
  0.011102506746580202    0.012899637161279924    0.015663822715151828    0.020313980886425553    0.028761011575941388    
  0.044742941514429986    0.07433808755302394    0.12472739983823822    0.19800042376337462    0.2804990627680741    
  0.34393825677131995    0.3668732847349176    0.3439382028731345    0.2804991181620459    0.19800041739665108    
  0.12472740217033243    0.0743380897965397    0.04474297433064173    0.02876101347598908    0.020313979749979824    
  0.015663819466913503    0.012899633536240475    0.011102496864619928    0.009845604165560956    0.008961996203931833    
  0.00837403407988274    0.008043172115137243    0.007941560559474726    0.008528498462833501    0.008672356312363646    
  0.009129099004515872    0.009933776816168291    0.011102500614868154    0.012651662079325077    0.014602092897214468    
  0.017095634599406412    0.020557334847545294    0.025917693213241586    0.03489848097338271    0.05011500833563979    
  0.07433806871145829    0.10819249430178529    0.14667299396917136    0.17832206303222686    0.19067045594344706    
  0.17832205891030795    0.14667298111079557    0.10819252645748122    0.0743380658382394    0.050114998224110516    
  0.03489846626519459    0.02591769457790101    0.02055733488842587    0.017095633966265258    0.014602104809926287    
  0.012651659957151637    0.011102492102287271    0.009933761705964175    0.009129110886760538    0.008672364383974849    
  0.008528498462833501    0.010062464481920714    0.010215119580619042    0.01070582524241752    0.01159052867567123    
  0.012899656697285666    0.01460207776323333    0.016601846962124252    0.018773876498619415    0.021161948332643017    
  0.02411843200438998    0.028348928898007702    0.03489845519330459    0.044742994513525    0.057875479534641255    
  0.0723114324289002    0.08404786036775454    0.08864817894521895    0.08404785349456184    0.0723114106678362    
  0.05787548668932874    0.04474299790470436    0.0348984237603631    0.02834894249247673    0.024118426817899358    
  0.02116194839362695    0.018773866656047866    0.01660185014756994    0.014602083182717019    0.012899655590094867    
  0.011590525535276596    0.010705833448812279    0.010215116519842526    0.010062464481920714    0.013667503130951055    
  0.013745312593061108    0.014025396393714395    0.014633365030608539    0.01566379816012681    0.017095665058243573    
  0.01877387466772291    0.020413712450199073    0.021779528498210233    0.022907167555850542    0.024118430662170714    
  0.025917712762321903    0.028760988627443446    0.03267924652924926    0.03701642197577948    0.04053277622948589    
  0.04190301726205594    0.04053278029878333    0.03701642300796044    0.03267926111366009    0.028760970286417616    
  0.02591770967821632    0.024118422390912247    0.022907179960266384    0.021779529548481186    0.020413694382803837    
  0.018773881175149405    0.017095656043887214    0.01566381093815826    0.014633358395173495    0.014025390329875572    
  0.013745306882117527    0.013667503130951055    0.022036675871743017    0.02177945784055629    0.021162024155234518    
  0.02055727304199313    0.020314027347274225    0.020557300255542026    0.021161974264372593    0.021779512743702628    
  0.02203660289662986    0.021779529052629944    0.021161963095979282    0.02055731733163804    0.020314028236632132    
  0.020557278777432693    0.021162021183645827    0.021779473956278234    0.022036676581305058    0.021779456342959542    
  0.02116202504862456    0.020557277222846813    0.020314028631634676    0.020557293646128554    0.02116197031440423    
  0.021779517138908695    0.022036603922534825    0.021779521996961124    0.021161965138479427    0.020557313970113983    
  0.020314029443539546    0.020557278964565672    0.02116201803297723    0.02177946636113267    0.022036675871743017    
  0.04190300709896404    0.040532789938049915    0.0370164067871899    0.03267924448436302    0.028760966543725265    
  0.025917734859914165    0.02411841951100364    0.02290716935173475    0.021779526331768228    0.020413713961317612    
  0.018773877040413712    0.01709566088710649    0.015663801018818112    0.014633364567128604    0.014025395705766773    
  0.013745320309058376    0.01366749264639449    0.013745314589935288    0.014025381447480448    0.014633359583805537    
  0.015663794291003272    0.0170956724281129    0.01877387205431069    0.020413715358086667    0.021779533001689236    
  0.022907170624765237    0.024118430379144212    0.02591771609228183    0.028760968575767196    0.03267924660344045    
  0.037016424792021434    0.0405327829507611    0.04190300709896404    0.08864818454926227    0.08404784757579913    
  0.07231142955258293    0.05787546598406456    0.04474299950415128    0.034898434417963246    0.02834894818493214    
  0.02411841482551097    0.021161953064841522    0.01877387898440942    0.016601842108425607    0.014602084161849294    
  0.01289965306940234    0.011590523369315176    0.010705830131168093    0.010215125243205506    0.010062469429715112    
  0.010215119052454773    0.010705831519199242    0.01159052477233135    0.012899656013823278    0.014602073303491269    
  0.01660185125145902    0.018773869428533027    0.021161950732183937    0.02411841594777046    0.02834892622319631    
  0.03489845317230325    0.04474299912206157    0.05787545878924595    0.0723114050824763    0.08404783089567543    
  0.08864818454926227    0.19067042292272082    0.17832204213792602    0.14667294029713954    0.10819257630751651    
  0.07433804830031966    0.05011501701826746    0.03489846471355977    0.025917712401069756    0.02055730828727322    
  0.017095650288809598    0.014602089987313547    0.012651664323853843    0.011102492382833517    0.009933763631397788    
  0.009129099359130791    0.00867237197926955    0.008528493051357184    0.00867235780767565    0.009129097412513653    
  0.009933782231992335    0.01110248728444245    0.01265167095961934    0.014602083981123053    0.017095662774396038    
  0.020557315525883805    0.02591770355219861    0.0348984481568889    0.05011501346154587    0.07433806706008723    
  0.10819249648072056    0.14667295696359922    0.17832200759436867    0.19067042292272082    0.3668732733283597    
  0.3439381143658134    0.2804991640028439    0.19800034970467592    0.12472744963177133    0.07433807018768585    
  0.04474298968416117    0.0287610029295867    0.020313990285731786    0.01566382697248559    0.012899643672610143    
  0.011102500731233759    0.009845604279731293    0.008961987310764821    0.00837403683082634    0.008043175208756175    
  0.007941572696828055    0.008043158326959171    0.008374051455788975    0.008961978501898683    0.009845621869125085    
  0.011102497307057932    0.012899647258780945    0.01566382385295443    0.020313994323251545    0.0287610026979932    
  0.044742957285004194    0.07433807997037789    0.12472737419520644    0.1980003391937459    0.28049902695829676    
  0.3439381814205666    0.3668732733283597    0.5073437450053345    0.4992897803491315    0.4442401888492829    
  0.3254971099767214    0.19800040218408538    0.10819244570962708    0.05787552581860702    0.032679204707683    
  0.020557322748795265    0.014633316027082717    0.011590561602739104    0.009933739313228376    0.008961999069667173    
  0.008378222849858747    0.008029865777164316    0.007845429657074183    0.007789598029155596    0.007845417445133255    
  0.008029867568379026    0.008378226441035037    0.008961997740867162    0.009933750374198384    0.011590544107061534    
  0.014633332006682709    0.020557322147101556    0.03267918114135238    0.057875534722791215    0.10819243859302687    
  0.19800040125727947    0.32549712809961767    0.4442401677978991    0.4992896652417806    0.5073437450053345    
  0.38779635261778117    0.4397596164861822    0.5104855227532614    0.4442402524395369    0.28049904837672884    
  0.14667300729877508    0.07231135475305026    0.037016486590238123    0.021161965393354104    0.014025437889566249    
  0.010705799685595362    0.009129129628801302    0.008374033632361715    0.00802988500559896    0.007883961704945945    
  0.007829045715852459    0.007816323715544388    0.00782904469043749    0.007883974194982974    0.008029879067532764    
  0.008374028200992248    0.009129123463349797    0.01070579968411019    0.014025433776641493    0.021161965891206433    
  0.03701649178176664    0.07231132500611955    0.14667307789689632    0.2804990091808027    0.444240299710287    
  0.5104854154907481    0.43975964715715704    0.38779635261778117    0.17375341207622672    0.24992127298943997    
  0.43975962877281105    0.49928968230202164    0.343938243517755    0.17832189402764448    0.084047961578492    
  0.0405326972512692    0.02177953111642555    0.013745253233497458    0.010215177524587251    0.008672333873578431    
  0.008043189897364935    0.007845412466490521    0.007829050356669543    0.007867744009784289    0.007887699297075758    
  0.007867740269053397    0.007829061741961277    0.00784542652447502    0.008043194563988774    0.008672340859704563    
  0.010215160876080875    0.013745268442793177    0.021779536556294252    0.04053269780350993    0.08404796409971262    
  0.1783219016284461    0.34393824623563074    0.4992896454605648    0.4397596529035748    0.24992129720070164    
  0.17375341207622672    0.10384369932350446    0.17375339585827704    0.38779640821439704    0.5073438539658788    
  0.366873198404851    0.1906705387716023    0.0886480762491969    0.041903102467986224    0.02203659303920173    
  0.013667552720371007    0.010062419491973054    0.008528526794648276    0.007941553597704978    0.007789618372160136    
  0.007816322729397232    0.007887700252234838    0.007921135327206787    0.00788770061927013    0.007816322217682506    
  0.007789614971869287    0.007941544365425043    0.00852851961316762    0.010062418879761812    0.013667552166435509    
  0.022036598129957504    0.04190310287995455    0.0886480457738278    0.1906706240451682    0.3668731865640441    
  0.5073439726990054    0.38779632560473754    0.17375344188458688    0.10384369932350446    0.1737534037603026    
  0.24992122343073736    0.43975971776595923    0.49928965348938786    0.34393828860043263    0.17832191596006255    
  0.08404794623296165    0.040532693110332745    0.021779526872505953    0.013745255325893362    0.010215166899398241    
  0.008672328596138586    0.008043198004163424    0.007845410902285029    0.00782906474624451    0.007867740583066624    
  0.007887707893682911    0.00786774579296043    0.007829056618294474    0.00784542163512895    0.008043189167085057    
  0.008672340771632599    0.010215150298521982    0.013745261836222796    0.021779529920687258    0.04053268976368316    
  0.08404795596329497    0.17832191858843652    0.34393833772561744    0.499289577249469    0.43975972611566666    
  0.24992129281340003    0.1737534037603026    0.24992125013612082    0.3238292509708372    0.4777204783578886    
  0.48667826586255025    0.32433323035178835    0.16944081031864217    0.08198667450045723    0.04100614943758382    
  0.02290716988666971    0.014905019046464003    0.011223949314930547    0.009485225237242682    0.008653083189298829    
  0.008258559486765831    0.008066003493453813    0.00796052946233452    0.007867739332578517    0.007758753626612799    
  0.007645544282311033    0.007589388685749879    0.007712047713592136    0.008252632513820463    0.009658474985204571    
  0.012934214093552141    0.0204137034462101    0.037815296744489045    0.07802197307246587    0.16490971500325596    
  0.3198339594306181    0.48352601104204507    0.4765627188943456    0.3235982198344103    0.24992125013612082    
  0.43975965107625953    0.4777205046148366    0.5123464218990433    0.4251088181235506    0.26721166450050804    
  0.1431370053119228    0.07369010606211071    0.03988368823276938    0.024118438622593122    0.01664435171799982    
  0.012877031355445994    0.01083992299792351    0.00964311562115738    0.00889250131603118    0.008398915854077158    
  0.008066004975879532    0.007829055982666347    0.007645535396693033    0.007515519305133306    0.007473095359338616    
  0.007613464586040909    0.008138052026331253    0.009429687947817584    0.012340009183935656    0.01877389348333019    
  0.033234691423289865    0.06559112978500621    0.13392426419726233    0.2580264752278608    0.4180724069417844    
  0.5087779005217163    0.47656277959980003    0.43975965107625953    0.49928978336438196    0.48667823857420794    
  0.4251088775936293    0.3107066593895635    0.19319242621136498    0.11039782931167207    0.06301027289989225    
  0.03840664531890644    0.025917690440198978    0.01928111029457796    0.015402722550026185    0.012888547961449896    
  0.01110661323931765    0.009815075787928014    0.00889250446722633    0.008258546309625768    0.007845421844227079    
  0.0075893758360624265    0.007473102869569098    0.007499160110346141    0.00772272330791218    0.008285100627016808    