#     DFTpy    
  CRYSTAL 
    
  PRIMVEC    
  4.2620689655172415    0.0    0.0    
  0.0    4.2620689655172415    0.0    
  0.0    0.0    4.2620689655172415    
  PRIMCOORD    
  2    1    
  Si    0.0    0.0    0.0    
  Si    2.1310344827586207    2.1310344827586207    2.1310344827586207    
  BEGIN_BLOCK_DATAGRID_3D    
  3d_datagrid_density    
  BEGIN_DATAGRID_3D#0    
  19    19    19    
  0.0    0.0    0.0    
  4.2620689655172415    0.0    0.0    
  0.0    4.2620689655172415    0.0    
  0.0    0.0    4.2620689655172415    
  0.08808373682735172    0.1528038317203051    0.35312235807767123    0.45979046692644127    0.33118056607663116    
  0.17708701501504412    0.08844786033848628    0.04753146054908334    0.030788085492467462    0.02635535314867284    
  0.030788076510500924    0.0475314659780132    0.08844785673493293    0.17708700332447047    0.3311806009313352    
  0.4597904396804259    0.3531223731143769    0.15280383206125916    0.08808373682735172    0.15280381766299608    
  0.22406825396492264    0.4006388916765077    0.45054138859401777    0.3094929758806086    0.16529486231131893    
  0.08363713554256143    0.04569613729139364    0.030032610717298604    0.025866872314374848    0.03003260152893918    
  0.04569614574608745    0.08363712592376969    0.16529486858832507    0.309492980588287    0.450541390720905    
  0.40063889507551476    0.2240682675733237    0.15280381766299608    0.353122325903478    0.4006388801383072    
  0.46205884891412313    0.39702851742459594    0.25110140506394185    0.13541402064816285    0.07137508016261936    
  0.04097388471271727    0.028123797272832766    0.024648220685986835    0.028123796973530703    0.04097388246042483    
  0.07137508529287565    0.13541402775979575    0.2511013906022133    0.3970285131145383    0.4620588394909109    
  0.40063888440273404    0.353122325903478    0.4597904153930467    0.4505413911294763    0.3970284984547034    
  0.28898041997899826    0.1770577418343466    0.09963636063749341    0.05652873025766231    0.03525496748407563    
  0.025911197445061436    0.023310786249587972    0.02591119745896805    0.03525497485518049    0.056528725896808615    
  0.09963636062977246    0.17705776774026252    0.288980416725405    0.3970284948859515    0.4505414011377838    
  0.4597904153930467    0.33118058391615635    0.3094929402090964    0.25110141495388355    0.17705775321224798    
  0.11245551271750771    0.06867440918252234    0.0433786938070474    0.03025245461565136    0.02421809399604095    
  0.022483414933264133    0.024218083110729288    0.03025245806122853    0.043378693642404736    0.06867441663405176    
  0.11245551524114666    0.17705773603965932    0.251101407635859    0.3094929613711858    0.33118058391615635    
  0.17708699452808105    0.16529485107252878    0.1354140182647578    0.09963635580212399    0.06867440929775126    
  0.047011797712197836    0.033914593996597645    0.026823126094499595    0.02346280518382259    0.022483575346019226    
  0.023462811299253553    0.026823127732640825    0.03391459774534726    0.04701179481168554    0.06867441636733493    
  0.09963636160910208    0.13541402678042586    0.16529485656204468    0.17708699452808105    0.0884478455892074    
  0.08363711834077141    0.07137508072781726    0.05652872132703726    0.04337869081503029    0.03391459345065921    
  0.028132213602232507    0.025056610286115947    0.02368094612442604    0.023310624540356026    0.023680944847568854    
  0.02505660274888328    0.028132213253675497    0.03391459304187364    0.04337869764513733    0.056528722638636286    
  0.0713750815242416    0.08363712225422716    0.0884478455892074    0.04753146217284542    0.045696147357742    
  0.040973882009713816    0.03525497217171061    0.030252456151265355    0.026823127829756304    0.0250566059053084    
  0.02450254995442639    0.02454778004894903    0.024648380771088062    0.02454778353324348    0.02450256117574549    
  0.0250566126163623    0.02682313029119547    0.030252457331730785    0.03525496604360215    0.040973892249190916    
  0.04569614273698349    0.04753146217284542    0.030788071762873518    0.03003259899827135    0.028123795148442515    
  0.025911198305099085    0.02421808551565201    0.023462815759496554    0.023680940315145678    0.0245477799650353    
  0.025472831466379096    0.025866704632664998    0.025472827721220052    0.024547778989816894    0.023680944009766527    
  0.02346281571380185    0.024218082095845823    0.025911199644931705    0.028123792365613062    0.030032602773713186    
  0.030788071762873518    0.02635535634206381    0.025866872971164828    0.024648217442055115    0.0233107811070904    
  0.02248341948768294    0.022483569445869867    0.023310632883522024    0.024648376419647018    0.02586671038812499    
  0.026355519234733546    0.025866708973044245    0.02464837924266561    0.023310624019191522    0.02248356610375752    
  0.022483416018674283    0.023310783646135938    0.024648223236002024    0.02586686926567364    0.02635535634206381    
  0.030788077278157758    0.030032599762284777    0.028123799379918355    0.025911201292054858    0.02421808054071012    
  0.02346280732141005    0.02368094526006819    0.02454778301983505    0.02547284430910003    0.025866705864031735    
  0.025472826166742322    0.024547782069316484    0.02368094472940656    0.023462812122422926    0.024218082887980222    
  0.025911189425486994    0.028123796560737817    0.030032601979371434    0.030788077278157758    0.04753146397577349    
  0.04569614531701329    0.040973885662604716    0.035254976646181026    0.030252454624985693    0.026823127597860947    
  0.02505661355184359    0.024502560745413002    0.024547775969691443    0.02464837379816506    0.02454778368141205    
  0.024502551720937276    0.025056608721111547    0.026823127388751786    0.030252457999019947    0.03525496563501178    
  0.04097388604612625    0.04569614141344046    0.04753146397577349    0.08844784342182553    0.08363712628247098    
  0.07137507695937097    0.0565287213792637    0.04337869289440344    0.03391459586088191    0.028132208296988242    
  0.02505660151058354    0.023680951250635292    0.023310629640800586    0.023680947530342115    0.025056607152882732    
  0.02813220496750787    0.033914591630936165    0.043378694413578806    0.05652872641307367    0.07137507342382647    
  0.08363712700302606    0.08844784342182553    0.17708699797833488    0.16529485163994415    0.13541402431234859    
  0.09963636850110066    0.0686744178312839    0.04701179635822918    0.03391459297685731    0.02682312711640372    
  0.0234628226077818    0.022483566504943504    0.02346280918996363    0.026823132371935378    0.033914597148615874    
  0.04701179880096194    0.06867441339105247    0.09963635859145073    0.13541402623203766    0.16529484418289359    
  0.17708699797833488    0.33118056994367584    0.3094929527279729    0.25110142367182314    0.1770577482716466    
  0.11245550980113438    0.06867441219350594    0.043378686784348114    0.030252453174091993    0.024218087231700026    
  0.022483417919925627    0.024218084486857937    0.030252455936121546    0.04337869481338755    0.06867441299290253    
  0.11245551202908817    0.17705775244897823    0.2511013909743314    0.3094929844895525    0.33118056994367584    
  0.45979041112543123    0.45054137822315815    0.3970285153170301    0.2889804209372923    0.1770577670139503    
  0.09963636547377269    0.05652872542624006    0.03525496780519939    0.025911200768164944    0.0233107833412604    
  0.02591119951566483    0.035254972097106096    0.05652872564563992    0.09963637214350855    0.17705777444190868    
  0.28898045068493117    0.39702852134253175    0.4505414104899596    0.45979041112543123    0.35312235022842303    
  0.4006388973921399    0.46205882463490255    0.3970285463580405    0.2511014101191534    0.13541403329230656    
  0.07137508470628812    0.04097387551451331    0.028123804564942657    0.02464822431922742    0.02812379469509374    
  0.04097388861247347    0.07137509031847886    0.13541403214546374    0.2511014219001337    0.39702850969477455    
  0.46205890128702976    0.4006388891673275    0.35312235022842303    0.15280383942872422    0.22406825699582306    
  0.40063890249382095    0.45054141936630404    0.30949298111358214    0.1652948692791244    0.0836371228377562    
  0.045696138185583296    0.030032601223182492    0.025866874144044906    0.030032597452005344    0.045696144269366815    
  0.08363713046191819    0.16529486185973052    0.30949299399018754    0.45054141568523737    0.40063890590450424    
  0.224068254155438    0.15280383942872422    0.08808373682735172    0.1528038317203051    0.35312235807767123    
  0.45979046692644127    0.33118056607663116    0.17708701501504412    0.08844786033848628    0.04753146054908334    
  0.030788085492467462    0.02635535314867284    0.030788076510500924    0.0475314659780132    0.08844785673493293    
  0.17708700332447047    0.3311806009313352    0.4597904396804259    0.3531223731143769    0.15280383206125916    
  0.08808373682735172    0.1528038197280731    0.22406826167933294    0.4006388564931619    0.45054140844880725    
  0.30949296943818466    0.16529486447704328    0.08363713214247284    0.045696141115324974    0.03003260478629354    
  0.025866870087023614    0.030032600163608245    0.04569614785855001    0.08363712951839675    0.16529486688432518    
  0.3094930010969935    0.4505414339385308    0.4006389010271528    0.22406825998023971    0.1528038197280731    
  0.22406824998016908    0.2930464161622132    0.4338797954011587    0.43583165146794545    0.288945670815426    
  0.15457293560123253    0.07929617764648324    0.04406514780904995    0.029397456611931494    0.025472668568879843    
  0.02939744641605177    0.04406515834515546    0.07929616917759738    0.1545729444720915    0.28894569860711133    
  0.43583164515258044    0.4338797919469615    0.29304642912461154    0.22406824998016908    0.40063889019423604    
  0.4338797802508163    0.45997131805868785    0.3751286450260729    0.23423834997839924    0.12731306545632698    
  0.06820213204951107    0.03990677846065333    0.02783471900143502    0.02454793813318413    0.02783471741288762    
  0.03990677949866531    0.06820213356691879    0.12731306761778688    0.23423835243048235    0.3751286549774571    
  0.4599712950012679    0.4338797829650086    0.40063889019423604    0.45054137687832124    0.4358316551085406    
  0.3751286274431863    0.26969625381653156    0.16581183899931065    0.09461242836302791    0.05477766160026458    
  0.03494172575897669    0.0261471273139223    0.023680786846232142    0.026147123370268994    0.03494173450546218    
  0.05477766057556315    0.0946124333431736    0.165811866034719    0.2696962602962599    0.3751286387805398    
  0.435831675934964    0.45054137687832124    0.3094929733387309    0.2889456457307621    0.23423835252334596    
  0.16581184641854033    0.10654875193227865    0.0663449238727333    0.0429632573881574    0.03074862368968901    
  0.02509641472693616    0.023462969911732617    0.025096410363615915    0.030748632861669272    0.04296325934822668    
  0.0663449312654774    0.10654874416097368    0.1658118433811652    0.2342383574207694    0.28894565017019425    
  0.3094929733387309    0.1652948514670722    0.15457293396944471    0.127313054816873    0.09461243074548588    
  0.0663449151489504    0.04656052899555402    0.03458439059116061    0.028127718085273676    0.025096572026358874    
  0.024217927234852825    0.0250965713049054    0.028127719223320472    0.034584394053638896    0.046560532832141385    
  0.06634492151076653    0.09461242547565911    0.12731306518064667    0.1545729508049275    0.1652948514670722    
  0.08363711580730279    0.07929616511956296    0.06820213284618822    0.05477765947922002    0.0429632612565929    
  0.03458439114578623    0.02961278408358267    0.027134366105352026    0.026146964577753767    0.025911359510348706    
  0.02614696104992183    0.02713436835472457    0.02961278046887174    0.034584391972211734    0.04296326729469395    
  0.05477765721994859    0.06820212950915439    0.07929617516933389    0.08363711580730279    0.04569614479935643    
  0.04406515660936273    0.03990677755637658    0.034941729133928394    0.03074862743847565    0.028127719265453502    
  0.02713437324601704    0.027277696297179337    0.027834892615316444    0.028123625932140166    0.02783488135233823    
  0.027277703986390595    0.027134369172382593    0.028127722862957862    0.030748626970889346    0.034941725396877565    
  0.03990678868598888    0.04406515227485683    0.04569614479935643    0.03003259689373544    0.029397445667941103    
  0.027834714674450454    0.026147123729745956    0.025096411367646128    0.025096565630959754    0.026146952793405308    
  0.027834894824607274    0.02939727118240849    0.030032780212922293    0.029397269125574565    0.027834886844324593    
  0.026146956011303853    0.02509657022576371    0.02509641107546323    0.02614712582985093    0.02783471612930777    
  0.0293974482314911    0.03003259689373544    0.025866872990174917    0.025472667917524925    0.024547936587681878    
  0.02368078495584338    0.023462965564745066    0.024217929448332256    0.025911368790610848    0.02812362604514589    
  0.030032778223188596    0.030787895606048526    0.030032778175554855    0.028123620305147944    0.025911365197852757    
  0.024217926347640376    0.02346297002297446    0.02368078699111503    0.024547938538822332    0.025472666350301834    
  0.025866872990174917    0.03003260097310633    0.02939744846372088    0.027834716664421017    0.026147132180259786    
  0.02509640915797233    0.025096572499265512    0.026146964421876584    0.02783488508781108    0.029397286876712107    
  0.030032777267212315    0.029397271641471365    0.0278348903479653    0.026146964494060596    0.02509656842328906    
  0.025096408522124893    0.026147121382814373    0.027834717634741074    0.029397445182108885    0.03003260097310633    
  0.04569614369187489    0.04406515471484178    0.03990677992868239    0.03494173406722555    0.030748626782728817    
  0.028127721605508447    0.027134369178071896    0.02727769328898216    0.027834887773912964    0.028123627226064717    
  0.02783488640315011    0.027277688435897743    0.02713437531042966    0.028127718419640103    0.030748625195360035    
  0.0349417292527131    0.03990678299355413    0.04406515351904696    0.04569614369187489    0.08363711778724088    
  0.07929616858176151    0.06820213280003834    0.054777665099354944    0.04296326002615499    0.03458439339059539    
  0.02961277967159821    0.02713436784432926    0.026146962936535297    0.025911366246835946    0.026146959929097435    
  0.027134376786793223    0.02961276927433924    0.03458439337901517    0.042963260457228196    0.05477766548671509    
  0.06820212780836417    0.07929616538819034    0.08363711778724088    0.16529483597931074    0.15457294475605596    
  0.12731305568250142    0.09461243144278907    0.06634493138829459    0.04656052805123923    0.034584397850487336    
  0.028127715197373816    0.025096579509490194    0.02421792940157667    0.02509657026716581    0.028127723829028208    
  0.03458439498872606    0.046560534952699205    0.06634492589257274    0.09461242601901482    0.12731306534413603    
  0.15457294748325232    0.16529483597931074    0.30949298686926413    0.2889456644624663    0.23423835642047958    
  0.16581185768254805    0.10654874287129007    0.0663449246225127    0.04296325511927154    0.03074862982301498    
  0.025096410685622735    0.023462969612236075    0.025096410541485925    0.030748626972688067    0.04296326581117038    
  0.06634491380291449    0.10654874776346185    0.1658118519227673    0.234238355914758    0.28894568087220723    
  0.30949298686926413    0.4505413587442655    0.43583164925106116    0.3751286632612681    0.2696962655888153    
  0.16581185990806238    0.09461243941042273    0.05477766431939156    0.034941725630887065    0.026147127334998778    
  0.02368078580931869    0.026147127193824705    0.034941732529505366    0.054777665285441764    0.09461243171082027    
  0.16581188122938723    0.2696962716421795    0.3751286628183086    0.43583162201348286    0.4505413587442655    
  0.40063887172808754    0.43387976632877345    0.4599712986405531    0.3751286768066325    0.23423836033486328    
  0.12731307011201395    0.0682021368614926    0.0399067731788352    0.02783472753552567    0.024547940169100464    
  0.027834714395160314    0.03990678745006097    0.06820214013656863    0.12731307183380738    0.23423837467738093    
  0.375128681490998    0.45997133773643806    0.43387979443802277    0.40063887172808754    0.2240682609176702    
  0.2930464141713148    0.43387980922234864    0.43583163620890913    0.28894566841400166    0.15457294665990362    
  0.07929616471388205    0.044065151878830866    0.02939744571458802    0.025472666229281564    0.029397445374612138    
  0.04406515320295413    0.07929617547062624    0.15457294477038114    0.28894568707578455    0.43583168655901555    
  0.4338797583338102    0.29304643200457436    0.2240682609176702    0.1528038197280731    0.22406826167933294    
  0.4006388564931619    0.45054140844880725    0.30949296943818466    0.16529486447704328    0.08363713214247284    
  0.045696141115324974    0.03003260478629354    0.025866870087023614    0.030032600163608245    0.04569614785855001    
  0.08363712951839675    0.16529486688432518    0.3094930010969935    0.4505414339385308    0.4006389010271528    
  0.22406825998023971    0.1528038197280731    0.35312235044426726    0.4006388981976629    0.46205881890597333    
  0.39702851294476    0.25110141931649127    0.13541403067617833    0.07137508329496306    0.0409738798972986    
  0.028123801460040714    0.024648218293039897    0.028123794265380257    0.040973882627902636    0.07137508909704905    
  0.13541402390584187    0.25110142774257743    0.39702852271123895    0.46205883883765814    0.40063888023449956    
  0.35312235044426726    0.40063888613330445    0.4338797788417909    0.4599712884545768    0.375128664476799    
  0.2342383350880223    0.12731306248645188    0.06820213462868686    0.039906775020042126    0.027834726344100395    
  0.024547936185606297    0.027834717811970795    0.039906782596719065    0.06820213284024822    0.12731306594161718    
  0.23423838058920343    0.3751286345346705    0.4599712902637089    0.4338797807434344    0.40063888613330445    
  0.4620588436837548    0.4599712801719519    0.417554856066309    0.30973244002429373    0.19051613734188966    
  0.10670296945685612    0.06012903221682989    0.03727662088231006    0.0272778645722177    0.024502398256296232    
  0.027277865270330805    0.037276621874215356    0.06012903332699215    0.1067029710984423    0.19051613274406448    
  0.3097324529042838    0.41755485351686844    0.45997128410722565    0.4620588436837548    0.39702851879591894    
  0.37512865588648997    0.3097324138245073    0.21909589561258336    0.13733665606601297    0.08198999772891216    
  0.05048115998209026    0.03441953612005668    0.02713420208187562    0.025056770182675846    0.027134198242017495    
  0.03441954361345144    0.050481155737022464    0.08199000114715596    0.13733665794191616    0.2190958969179855    
  0.3097324147593223    0.37512865520243327    0.39702851879591894    0.2511014043714823    0.2342383472962067    
  0.190516133478005    0.13733664964361597    0.09179142390968155    0.060670501578074194    0.04230459909192871    
  0.032620391150441755    0.02812789652719039    0.02682295909523188    0.028127888186236145    0.032620392424932726    
  0.042304594558443764    0.06067050820308378    0.0917914270415807    0.13733664903645043    0.19051612789115802    
  0.23423834464652774    0.2511014043714823    0.13541401751996035    0.12731306695427536    0.10670296023789352    
  0.08199000304341866    0.06067049454238242    0.045847055877131906    0.037068081769343425    0.032620571130383184    
  0.03074844560308514    0.030252635967201635    0.03074844691234285    0.03262057467475902    0.03706808878532902    
  0.045847056608564606    0.06067051270039335    0.0819899911499047    0.1067029714638731    0.12731307186814614    
  0.13541401751996035    0.07137507573085546    0.06820212678134936    0.06012903176334031    0.05048114902880051    
  0.04230460188560486    0.03706809073580041    0.034732824052524244    0.03441935214139773    0.034941924426639195    
  0.03525476900393613    0.0349419196969303    0.034419353431977794    0.03473282145498312    0.037068083017005246    
  0.04230460394351092    0.050481152752276895    0.06012902870395517    0.06820213684401344    0.07137507573085546    
  0.04097388276865003    0.03990678018005598    0.03727661866994203    0.03441953978350548    0.03262039043474622    
  0.0326205725705182    0.03441935404767497    0.037276817412985525    0.039906585766123374    0.040974098027493966    
  0.03990658359027808    0.03727682253076931    0.034419351333291555    0.03262057676240834    0.03262038850065192    
  0.0344195364424217    0.03727663000624782    0.0399067781685862    0.04097388276865003    0.028123790704201748    
  0.027834719209929578    0.027277863877069503    0.027134200003851444    0.028127890630573044    0.030748447322233474    
  0.03494192395081132    0.039906570678586384    0.044065363278817986    0.04569593457702792    0.044065366349981094    
  0.039906579726679395    0.03494191167823933    0.030748452775974208    0.028127891993886628    0.02713420083859979    
  0.027277863685941685    0.027834720314554567    0.028123790704201748    0.024648221384362373    0.024547937981474414    
  0.02450239641758986    0.02505676972317327    0.026822952784819554    0.03025263552586188    0.03525478880127761    
  0.04097409190870186    0.04569593465618443    0.04753167970859077    0.04569592405400592    0.0409740774796243    
  0.03525478371602571    0.03025263708273068    0.026822957885259204    0.025056771170330193    0.024502400626849174    
  0.024547939435838027    0.024648221384362373    0.028123796536493578    0.027834718358292668    0.027277865287012863    
  0.027134203859332264    0.028127894151506058    0.03074844399502285    0.0349419183740487    0.03990657849588294    
  0.04406538009400161    0.045695928270040036    0.04406537083928678    0.03990658334823369    0.03494192488801958    
  0.030748448852232078    0.028127891157003426    0.027134196742657834    0.027277866735673967    0.027834714218695742    
  0.028123796536493578    0.04097388469778989    0.039906780645780744    0.037276625255998654    0.03441954407652901    
  0.03262038616085375    0.03262057959400782    0.034419349816667694    0.03727681308585457    0.0399065866219845    
  0.040974086355258545    0.039906578265954264    0.03727680609870498    0.03441935280536696    0.03262057202381518    
  0.032620392853180226    0.034419536432037906    0.03727662605344253    0.039906777731353066    0.04097388469778989    
  0.07137507807886072    0.06820213464886293    0.060129032320788    0.05048115792767468    0.042304597764100706    
  0.03706808509250751    0.03473282759950117    0.034419348705166594    0.03494192411780666    0.0352547813964853    
  0.034941927381005176    0.03441935510814803    0.034732820332426625    0.03706808939449839    0.04230459854795159    
  0.050481160855914906    0.06012902823719433    0.06820213443765119    0.07137507807886072    0.135414012016834    
  0.1273130567001055    0.1067029681611514    0.08199000177709333    0.06067050846419485    0.04584705515796878    
  0.037068089066662514    0.03262057423634609    0.030748456531394686    0.03025263223668997    0.030748448474915008    
  0.03262057875938858    0.037068096312355164    0.04584705840496867    0.06067050433570106    0.08198999837199306    
  0.10670296701871645    0.1273130600381443    0.135414012016834    0.2511014168082853    0.2342383373237515    
  0.19051614553139443    0.1373366605606946    0.09179141755434772    0.06067050446564842    0.042304595553098144    
  0.032620391402658766    0.02812789257726077    0.026822959302868158    0.028127890062180673    0.032620388255761995    
  0.04230460662391109    0.060670503011136565    0.09179142339090127    0.1373366543943792    0.19051611995783138    
  0.23423836018348945    0.2511014168082853    0.39702848431384624    0.37512862231635125    0.30973243538311895    
  0.21909590160290976    0.137336656139717    0.0819899936932618    0.05048115740653359    0.03441953549475253    
  0.027134199920286983    0.02505676781208145    0.027134200061126868    0.03441954403865663    0.050481162191042206    
  0.08198999514603383    0.13733667246063058    0.21909590857276892    0.3097324458172812    0.3751286434722301    
  0.39702848431384624    0.4620588239208952    0.45997130774084166    0.4175548404863845    0.30973246558022693    
  0.19051613418000873    0.10670296677235705    0.060129037346929634    0.03727661661531903    0.027277876912596453    
  0.02450240036046939    0.02727786176246287    0.037276631950814855    0.0601290390594183    0.10670297718790124    
  0.19051614746938944    0.3097324373199464    0.4175548804068861    0.45997126775306646    0.4620588239208952    
  0.40063890424818643    0.4338797485082778    0.4599713214673973    0.3751286541569619    0.23423835453878664    
  0.12731306886463586    0.06820213080682512    0.03990677426514673    0.02783471659914121    0.024547938433350753    
  0.027834715348966938    0.039906778494037225    0.06820213464582514    0.12731306790354763    0.23423837306899836    
  0.37512866864481703    0.45997128975650325    0.43387980171494905    0.40063890424818643    0.35312235044426726    
  0.4006388981976629    0.46205881890597333    0.39702851294476    0.25110141931649127    0.13541403067617833    
  0.07137508329496306    0.0409738798972986    0.028123801460040714    0.024648218293039897    0.028123794265380257    
  0.040973882627902636    0.07137508909704905    0.13541402390584187    0.25110142774257743    0.39702852271123895    
  0.46205883883765814    0.40063888023449956    0.35312235044426726    0.45979043981856    0.4505414040181455    
  0.3970285008459395    0.2889804286378849    0.17705775365355778    0.09963636858319312    0.056528729627928105    
  0.03525496774353663    0.025911202275629302    0.023310777022114117    0.025911198682369962    0.03525497124375918    
  0.05652872872040392    0.09963635913629851    0.17705777031404166    0.2889804429205275    0.3970285171150273    
  0.45054137945074874    0.45979043981856    0.45054137434699076    0.43583164688930826    0.3751286410971428    
  0.26969627144980934    0.1658118528163126    0.09461243471868182    0.05477766310505517    0.034941726690272706    
  0.026147133106367907    0.023680787467521884    0.02614712390054025    0.03494173487806551    0.05477766300773538    
  0.094612436915162    0.1658118670148954    0.2696962632660364    0.3751286506479867    0.4358316761188001    
  0.45054137434699076    0.3970284928836768    0.3751286724367065    0.309732438311236    0.21909591375245885    
  0.13733664392667222    0.08198998882634818    0.05048116018381143    0.034419537890612556    0.027134200236017987    
  0.02505677031624084    0.02713420257395134    0.03441953597764035    0.05048116321366428    0.08198999970796181    
  0.13733663977724495    0.21909591230736214    0.30973242673696383    0.37512865342094376    0.3970284928836768    
  0.28898043282645003    0.26969627978634103    0.21909589490478226    0.15687085894167604    0.10342551443197415    
  0.0670831402490763    0.045836599022448625    0.034732625694410255    0.029612956994484605    0.028132033263923675    
  0.029612951590244466    0.03473263655350932    0.045836591059776555    0.06708314219353169    0.1034255326594703    
  0.15687087526729182    0.21909590998089312    0.2696962869039019    0.28898043282645003    0.17705775535991722    
  0.1658118402643891    0.1373366557504407    0.10342551852967989    0.07444935453784998    0.054558963846736905    
  0.04292336683046171    0.03706827694041304    0.03458421192847142    0.03391477848568732    0.034584203104260025    
  0.03706828639676652    0.04292337350619443    0.054558966829223954    0.07444935425759684    0.10342550620478627    
  0.13733665159376904    0.16581184650660938    0.17705775535991722    0.09963635750776433    0.09461243130510069    
  0.08198999088283689    0.06708313653906833    0.054558965245012664    0.0465610919566938    0.04292357594068566    
  0.042304389532343015    0.04296346505713446    0.043378487194385904    0.042963466428616    0.042304386588660516    
  0.042923582369054115    0.04656108948533824    0.05455896718061271    0.0670831359532157    0.08199000025684143    
  0.09461243293002955    0.09963635750776433    0.056528724298162525    0.05477765602557092    0.05048115898971425    
  0.045836592099112915    0.04292336658365049    0.04292357636371121    0.04583638053519132    0.05048138140658816    
  0.054777426190195336    0.05652895550665177    0.05477742551550493    0.05048137968703072    0.04583638335114334    
  0.0429235790355322    0.04292337426697035    0.04583659397365347    0.05048115875607454    0.054777668254611875    
  0.056528724298162525    0.0352549684335466    0.03494173177851772    0.03441953020382645    0.03473263439972866    
  0.037068280659413075    0.042304389492403165    0.050481379002062864    0.060128776995317344    0.06820240223770085    
  0.07137481039210637    0.06820239540095921    0.06012878512307378    0.050481387082744175    0.04230439571290407    
  0.037068283451580836    0.03473262692150145    0.034419547123965034    0.034941730162166944    0.0352549684335466    
  0.02591119500103145    0.026147125845758675    0.02713419802620134    0.029612951309260706    0.0345842045044543    