#     DFTpy    
  CRYSTAL 
    
  PRIMVEC    
  7.265343886560722    5.794981571737932e-07    9.567006622068964e-07    
  5.794982948565517e-07    7.26534637800691    9.671640152324138e-07    
  9.567007845668965e-07    9.671640374393104e-07    7.2653458744186965    
  PRIMCOORD    
  16    1    
  Si    1.072076075198706    6.193269147755101    2.5605972246808295    
  Si    6.193268321052561    1.0720783818118174    4.704747608025792    
  Si    1.0720771673460316    1.072077435636799    1.0720778129386848    
  Si    2.5606009854971425    2.560602048860782    2.560601781332271    
  Si    6.193266559276901    2.5605974033582153    1.0720766111151923    
  Si    1.0720758356109752    4.704751690541591    6.193269091093956    
  Si    2.560596444608482    1.0720786016121349    6.193269675736361    
  Si    4.704747343673363    6.193270827432589    1.0720766984071308    
  Si    4.704746976596017    2.5606024764358932    6.193273059659865    
  Si    2.56059833906062    4.704745308817653    1.072073173284159    
  Si    4.704744567004491    4.704748922812797    4.704747508516671    
  Si    6.1932685268317815    6.193271949835417    6.193270593873939    
  Si    2.5606012703105474    6.193275238463369    4.704747765170265    
  Si    4.7047434917627236    1.072072775264687    2.560599315539096    
  Si    6.193271124260957    4.704748258476801    2.5606019535521676    
  Si    1.07207308864284    2.56060019558203    4.704745247994738    
  BEGIN_BLOCK_DATAGRID_3D    
  3d_datagrid_density    
  BEGIN_DATAGRID_3D#0    
  31    31    31    
  0.0    0.0    0.0    
  7.265343886560722    5.794981571737932e-07    9.567006622068964e-07    
  5.794982948565517e-07    7.26534637800691    9.671640152324138e-07    
  9.567007845668965e-07    9.671640374393104e-07    7.2653458744186965    
  0.06450309869699032    0.06661240385047501    0.07239965760958346    0.08028402794608096    0.08807123146339056    
  0.09394731232489384    0.09729336710653402    0.09857786682938967    0.09857767647240483    0.09729367979676343    
  0.09394727353020756    0.0880715924741892    0.08028404972271552    0.07240003189525322    0.06661249642757414    
  0.06450349270253275    0.06661262594471754    0.07240026704974692    0.08028439933724478    0.08807195785886866    
  0.09394766408415059    0.09729400760488713    0.09857805638537734    0.09857814734240714    0.09729370494707507    
  0.09394757317579049    0.08807151093413511    0.08028423433613197    0.07239981149856325    0.06661248245430994    
  0.06450309869699032    0.06661241939891381    0.07734830743229795    0.09258320447134363    0.11027439149559629    
  0.1268916795909562    0.139409807827238    0.14701093317674527    0.1503456863606347    0.15034599523789566    
  0.14701090232938388    0.1394102862703681    0.12689176364171822    0.1102748864198086    0.09258330160623154    
  0.07734869768504517    0.0666124983710168    0.06094467558314341    0.059602399926228344    0.060932562346184646    
  0.06325163992165081    0.0652650495644245    0.06634604924507871    0.0666806666131913    0.06668050135777398    
  0.06634611188383929    0.06526479591211638    0.06325162262215796    0.06093226840090523    0.05960233855664482    
  0.060944333124435354    0.06661241939891381    0.07239968172190259    0.0920239904298096    0.1184487146875586    
  0.14851991091034183    0.17686241987935034    0.19909654272120342    0.21348308516770034    0.22015691644097676    
  0.2201567376899537    0.21348358767826764    0.19909668028355443    0.1768630800699662    0.14852011587900082    
  0.11844922701095668    0.09202410225488598    0.0724000518395826    0.060020484571418474    0.05353895379251952    
  0.05088862786085131    0.050236431484043    0.05024903545816612    0.05026531718606518    0.050230716313987754    
  0.05023082315570297    0.050265169838132666    0.0502491222904833    0.050236248202804194    0.050888663245624806    
  0.05353871922785686    0.06002044992564129    0.07239968172190259    0.08028401297761503    0.10741442750281587    
  0.14402577042458722    0.1857417471646658    0.2256265823092114    0.25852681609109057    0.28113390185105114    
  0.291978608546953    0.29197898580505904    0.28113400171476055    0.25852753659900446    0.2256268713508491    
  0.1857424557489754    0.14402600709688668    0.1074148766732779    0.08028409197319736    0.06285745841672678    
  0.05304769611661431    0.04822601386262833    0.04616425168689338    0.045323750763828614    0.0449441923247797    
  0.04479072817877986    0.04479063431978777    0.04494429563785339    0.04532365595876768    0.04616433437638162    
  0.04822588702884736    0.05304773711242585    0.0628572054588091    0.08028401297761503    0.08807131955211818    
  0.11898631930461336    0.1608197122483631    0.20868272460972764    0.2550371356193501    0.29451090341334635    
  0.322875407449912    0.3369895019068172    0.33698937689524444    0.3228760132885326    0.29451118651480424    
  0.2550379290973462    0.20868309008085612    0.16082031936613186    0.11898650139853499    0.0880716404672708    
  0.06832261521339826    0.057304092703283814    0.05193176027784582    0.049683052466123936    0.04885743935633161    
  0.048546974739247586    0.048415730947173774    0.04841583410790079    0.04854695357861297    0.04885757836705922    
  0.04968300741693354    0.05193186212350352    0.057303952313299385    0.06832260615166603    0.08807131955211818    
  0.09394725431575471    0.12291633515735921    0.16238821733484332    0.20793247104122436    0.2523548992035796    
  0.2902794736543703    0.31764401612173687    0.33132851615021686    0.3313287876228839    0.31764416450199523    
  0.2902801135907203    0.2523552876320864    0.20793312417868334    0.1623885374358209    0.12291676100730561    
  0.09394737724806465    0.07585161009997965    0.06644477100179826    0.06262256976672116    0.06174263496305488    
  0.06197261241426849    0.06228674576330368    0.062386880604158035    0.062386845331015364    0.06228692102768323    
  0.061972647184674844    0.061742806302442624    0.06262254131889392    0.06644482339306432    0.07585141771114734    
  0.09394725431575471    0.09729354517228891    0.118596939290057    0.14880948216100517    0.18430047064894553    
  0.21902869815817025    0.24816149996622436    0.26849167619307934    0.27834726749919997    0.2783472579240134    
  0.2684920427387702    0.2481617585690191    0.21902921195685188    0.1843008548415886    0.14880992901486634    
  0.11859721183412102    0.09729382237633351    0.08533411844890491    0.08112130091141867    0.08191276984155933    
  0.08491122097820382    0.08792987073764619    0.08989311666105125    0.0907183840059407    0.09071848404948307    
  0.08989320868256503    0.08793007361266396    0.08491129016913486    0.08191285279602267    0.08112120055171741    
  0.08533401790243872    0.09729354517228891    0.09857771603380634    0.10860483025099697    0.12599401754731654    
  0.14782584389772263    0.16958795963892523    0.18743985606655164    0.19933849336481196    0.20497594321615592    
  0.20497599062208532    0.1993385890384923    0.18744014015552776    0.16958820614359085    0.147826185879703    
  0.1259943530128367    0.1086051627802435    0.09857800586695234    0.0965912737454988    0.10156970587589373    
  0.11096884205566708    0.1214426049569396    0.13009333411456733    0.13563205756588254    0.13818700250619959    
  0.13818703822519876    0.13563218396798585    0.13009346969052313    0.12144264305402251    0.11096880242713339    
  0.10156953995630953    0.09659102618271045    0.09857771603380634    0.09857796461489891    0.096590839915776    
  0.10156966803371895    0.11096855163735124    0.12144277625166161    0.13009339156445504    0.13563245377322888    
  0.1381873315896741    0.13818740887918007    0.1356325317290889    0.13009360379879326    0.12144291400524168    
  0.11096886006131806    0.10156995115304768    0.09659125727805497    0.0985783189460554    0.1086052434235848    
  0.1259947461315162    0.14782625040475916    0.16958843418697206    0.18743997123602593    0.19933840974644615    
  0.20497572550962403    0.2049756492221546    0.199338528575257    0.18743981045300262    0.16958829354737437    
  0.14782585690152658    0.12599438410409486    0.10860474302361481    0.09857796461489891    0.09729349115163281    
  0.08533425339465833    0.0811210719647483    0.08191303375628438    0.0849112058767106    0.08793027458158635    
  0.08989329257697369    0.09071877730626307    0.09071872410768296    0.08989345200694172    0.0879302939948072    
  0.0849114476612328    0.08191316801223264    0.0811214679880814    0.08533458402070213    0.09729414564531469    
  0.11859799240150112    0.1488105474353016    0.18430180482806713    0.21902982198250445    0.24816239601096118    
  0.26849235903706226    0.27834747513376823    0.27834759599306347    0.2684918746592518    0.24816208737369624    
  0.21902896059836877    0.18430117988616376    0.14880963977352996    0.11859740894956602    0.09729349115163281    
  0.09394766493447952    0.07585136497098655    0.06644502662272221    0.06262244721960505    0.06174295101935422    
  0.06197263477496013    0.06228707476563728    0.06238699967096563    0.06238710697275973    0.06228706562648431    
  0.0619728310127066    0.06174299659058105    0.06262278310561407    0.06644524759094242    0.07585200087562732    
  0.09394823386586651    0.12291764817156074    0.1623900388230647    0.20793449922212187    0.25235696139914854    
  0.290281495982984    0.31764549922821167    0.33132998269678554    0.3313294197037428    0.31764514652837467    
  0.29028017239067516    0.2523559829988869    0.20793294717895175    0.1623889986631004    0.12291650133260415    
  0.09394766493447952    0.08807138728885089    0.06832292106232192    0.05730387532212065    0.05193203051680252    
  0.04968293949646951    0.04885769983902632    0.04854696335767958    0.04841597326663216    0.048415883738409084    
  0.04854714699402262    0.04885769785507896    0.049683220622042126    0.05193214592634357    0.05730438210567949    
  0.06832330462362306    0.08807239140364563    0.11898795287668183    0.16082194694689272    0.20868532329532152    
  0.25504009838989966    0.2945136058493529    0.3228782142577861    0.3369913624991029    0.3369914019786753    
  0.3228767982845866    0.29451245813207116    0.2550380135842932    0.20868388627356796    0.16082017189254977    
  0.11898698624840902    0.08807138728885089    0.08028445876406108    0.06285718989372548    0.05304793501709911    
  0.0482257751618958    0.04616443879705003    0.04532357313705088    0.04494438573104684    0.0447906785178751    
  0.04479085234611153    0.044944365638700697    0.04532392464343178    0.04616454869775416    0.048226250961709606    
  0.053048208338426786    0.06285796560989841    0.08028512025429783    0.10741612428516487    0.14402801998938772    
  0.18574466444439944    0.22562958942349162    0.25853015045895267    0.2811366223085591    0.2919814279471947    
  0.2919805822198304    0.28113588017520913    0.25852811375610246    0.22562803419771477    0.18574248855853573    
  0.14402669526635262    0.1074146603622746    0.08028445876406108    0.07239975034116176    0.06002073345305217    
  0.053538618384871596    0.05088877455309049    0.05023613089426955    0.05024917696347119    0.05026512514506979    
  0.05023092194235805    0.05023084877130992    0.05026551519934821    0.05024936644306287    0.05023670967608781    
  0.050889093687114126    0.05353934630639787    0.060021224685041535    0.07240083881436972    0.09202547680354044    
  0.1184508198363873    0.14852230180725828    0.1768653309028387    0.19909914302220522    0.21348591811025863    
  0.22015880547881433    0.22015883591656973    0.21348453639969395    0.19909807111986227    0.17686329720011    
  0.14852097561841604    0.11844908911837812    0.09202457850294621    0.07239975034116176    0.0666127752378514    
  0.06094426844145721    0.05960252449551684    0.06093210123552024    0.06325167941091955    0.06526464104935659    
  0.06634616754068706    0.06668055896013833    0.06668087859387718    0.06634642716942109    0.06526545207292477    
  0.06325223291592168    0.060933066329137905    0.05960309693425769    0.06094525347214463    0.06661342263296946    
  0.07734965212012335    0.09258473469940462    0.11027636576456347    0.12689360039911635    0.1394120137987376    
  0.1470125551010013    0.15034750898320084    0.15034689053098782    0.1470121832701152    0.13941061436038193    
  0.12689265173562397    0.11027483163476491    0.0925838599130966    0.07734842763335235    0.0666127752378514    
  0.06450308813599248    0.06661274344905486    0.07239967609016668    0.08028434772445303    0.08807124797184292    
  0.09394758898949009    0.0972935734373059    0.09857833409203416    0.09857839272641629    0.09729455574509197    
  0.09394849292450429    0.08807272954734804    0.08028536342645691    0.0724009843416326    0.06661350401516959    
  0.0645041589862676    0.06661343199661902    0.07240089734949595    0.08028520192758999    0.08807265512484204    
  0.09394839528329677    0.09729468423820484    0.09857857037688227    0.09857870471617812    0.09729395767750766    
  0.09394800228880701    0.08807158401562722    0.08028459172330518    0.0723997984541195    0.06661281714635502    
  0.06450308813599248    0.06661278176815721    0.0773483783117969    0.09258366494746526    0.11027449884190212    
  0.1268921147959902    0.1394099818130169    0.1470114276612034    0.15034634105191957    0.1503470339419027    
  0.14701244642600172    0.13941200189299421    0.12689381240136502    0.11027656000135408    0.0925849477952298    
  0.07734976573366147    0.0666134850945554    0.06094526230791419    0.05960305266489566    0.060933024409242774    
  0.06325215856186882    0.06526548229740906    0.0663464253390414    0.06668102377805867    0.06668068660171313    
  0.06634640360003728    0.0652648382036807    0.0632518861323715    0.06093223090864806    0.059602632689806326    
  0.06094432897719727    0.06661278176815721    0.07239977454286206    0.09202452586976924    0.11844889973656565    
  0.14852050962920763    0.17686256559528074    0.19909700004876013    0.21348345743817798    0.22015775750791644    
  0.22015813981228718    0.21348553431876383    0.19909926298336797    0.1768655328141879    0.14852270437935264    
  0.11845107818596881    0.09202569569921888    0.07240093532509387    0.06002126030793227    0.0535393646731162    
  0.050889073936339624    0.05023671465917098    0.05024931665408147    0.05026556465953748    0.050230866549805304    
  0.05023102128923027    0.05026520194604352    0.050249295438643864    0.05023619987050046    0.0508888742564578    
  0.05353867944946007    0.060020779756155274    0.07239977454286206    0.08028450928725939    0.10741464470211473    
  0.14402647389893747    0.1857419983037871    0.22562712267930965    0.2585268955564688    0.2811343179796006    
  0.2919792658163869    0.2919803494349051    0.28113623683369904    0.2585300933527514    0.22562997185918557    
  0.18574507540264495    0.14402845661774655    0.10741638584274026    0.08028529397615407    0.06285805491384013    
  0.05304822557919679    0.04822626764786424    0.04616452659680593    0.04532392955958488    0.04494435081317475    
  0.04479087933554998    0.04479065877194149    0.044944443431689865    0.04532359580290272    0.04616448978839869    
  0.04822580831288435    0.05304799253969278    0.06285724627467694    0.08028450928725939    0.08807147074375339    
  0.11898701149588706    0.16082002505583887    0.2086834097936578    0.2550371679055942    0.29451109234768286    
  0.32287525107543863    0.33698979316658473    0.3369903134169327    0.3228775786997769    0.29451368806896533    
  0.25504039517394056    0.20868589969299395    0.1608223875896599    0.11898829437343515    0.08807259075932318    
  0.06832341107646257    0.05730444780134036    0.05193213640315958    0.04968325148293557    0.04885763801694649    
  0.04854714444749533    0.048415820724872126    0.04841595598083871    0.04854691265448559    0.04885769898071625    
  0.049682913476627774    0.05193203911710387    0.057303930056341615    0.06832298173669127    0.08807147074375339    
  0.09394777294047747    0.12291659546345855    0.16238889122878453    0.2079325888704028    0.2523551780661425    
  0.29027906360756317    0.3176436536753102    0.33132816479124866    0.3313289234982015    0.31764515622024136    
  0.2902814557665708    0.2523574037291829    0.20793499935811655    0.16239053620802588    0.12291799054520955    
  0.09394846804077311    0.07585212307629548    0.06644530684127797    0.06262281555095907    0.06174295993894056    
  0.06197280651731086    0.06228693788511735    0.062387056168843553    0.06238687889077724    0.06228702265732315    
  0.061972527208007305    0.061742929539841084    0.06262241838643622    0.06644506958701608    0.07585145436350352    
  0.09394777294047747    0.09729361657284151    0.11859751711840485    0.14880964019803594    0.18430091272162794    
  0.2190284557316553    0.2481612243988093    0.26849088908000973    0.2783465335104495    0.2783468319477331    
  0.26849201309522863    0.2481625484901738    0.21903010386142838    0.18430228525382417    0.1488109556960428    
  0.11859834396764718    0.09729441569119375    0.08533478716876954    0.08112160367787088    0.08191320788155824    
  0.08491148600016522    0.08793019614282258    0.08989335107245511    0.09071852446313658    0.09071863871911633    
  0.0898931117351201    0.08793013619630424    0.08491107510662949    0.08191298951661376    0.08112107582511276    
  0.0853343528905977    0.09729361657284151    0.09857809524731902    0.10860488299431545    0.12599444266558354    
  0.14782577761711904    0.16958798375141526    0.18743930800376107    0.19933788055921628    0.20497511783990832    
  0.20497527317306746    0.19933831906017843    0.18744001549159367    0.169588745747805    0.1478265912622476    
  0.12599511741021158    0.10860555547379701    0.09857859247528143    0.09659151079540225    0.10157013974857557    
  0.11096906026139493    0.12144297784420076    0.13009361689614093    0.13563232344526735    0.13818723181445894    
  0.13818703228275112    0.1356322309030845    0.1300931502010797    0.12144261744553603    0.11096847368687705    
  0.10156969227297252    0.09659090848301143    0.09857809524731902    0.09857785286378429    0.0965911633093319    
  0.1015696225729507    0.11096877915808816    0.12144252407024404    0.13009318990276458    0.13563187823074735    
  0.13818673583692903    0.13818683035906032    0.13563200085284877    0.1300934670961621    0.12144276008546062    
  0.11096911853828516    0.1015699847232068    0.09659158088787716    0.09857834152627223    0.10860548836062686    
  0.1259947248054741    0.14782648096907933    0.16958850996967667    0.18744017097849147    0.1993385813233713    
  0.20497571540741585    0.2049756624525308    0.19933816023045134    0.18743966366098408    0.16958775838036863    
  0.14782581101204506    0.12599401805216315    0.10860492663969404    0.09857785286378429    0.09729367774989396    
  0.08533413867567338    0.08112129576007825    0.08191290289396169    0.084911261586539    0.08792999286729994    
  0.08989303896351265    0.09071837316810885    0.09071829021002982    0.0898931414258195    0.08792992878303234    
  0.08491137739305397    0.08191295177499681    0.08112153052586911    0.08533439109342422    0.09729416894625183    
  0.11859768393136177    0.14881044437174848    0.18430142432803698    0.21902960961439943    0.24816212638418436    
  0.2684920529638122    0.27834722461580663    0.27834701499303055    0.2684915447632575    0.24816130353549    
  0.21902866822032602    0.1843004867421857    0.14880960441598481    0.11859704164303259    0.09729367774989396    
  0.09394740433781824    0.07585152576535616    0.06644489778333307    0.06262256682247826    0.0617428011071286    
  0.0619726066742915    0.06228687318211285    0.06238680513466167    0.06238688202300935    0.06228676630413732    
  0.06197266981538921    0.06174271814291223    0.06262270760208045    0.06644495732796996    0.07585186872113367    
  0.0939477766699972    0.12291729233577943    0.16238927661139213    0.20793383939729246    0.25235607453500175    
  0.2902806370525779    0.3176446573543056    0.33132894958616    0.331328683312626    0.31764401718439794    
  0.2902795896406924    0.2523549687818103    0.20793265798551636    0.16238838579874157    0.12291652992173525    
  0.09394740433781824    0.08807147842363265    0.0683227030294566    0.057304013274262454    0.05193188977285794    
  0.04968301189694434    0.04885757223349389    0.04854692286083653    0.04841582018866384    0.04841569802059733    
  0.04854699765158995    0.04885743655280166    0.049683086192075926    0.05193182121520049    0.05730422375538543    
  0.06832284169733312    0.0880720317578249    0.11898713075050209    0.160821100616024    0.20868405468796933    
  0.2550388136246283    0.29451213092063144    0.322876685271399    0.33699008015957005    0.3369899057636062    
  0.32287583724270796    0.2945112019937908    0.2550374668045706    0.208683009175699    0.16081999622712145    
  0.11898652758277947    0.08807147842363265    0.08028415037674574    0.06285727679484265    0.053047756025962074    
  0.04822586247584146    0.04616431168609508    0.0453236062826387    0.0449442726165002    0.04479059080180788    
  0.04479070979010458    0.04494413329443827    0.04532373568527734    0.046164202653699124    0.04822603593674206    
  0.05304777946189791    0.06285763025931912    0.0802844409962144    0.10741540418745683    0.14402682762602245    
  0.1857433592155392    0.22562795414778367    0.25852848295720776    0.2811349569203922    0.29197971308365356    
  0.29197934856844343    0.28113447934383196    0.2585273726153087    0.22562701011988867    0.1857421828817003    
  0.1440260786243854    0.10741463214553673    0.08028415037674574    0.07239980151168314    0.06002048602701722    
  0.053538686776237174    0.050888602578430496    0.05023619221184093    0.05024904437403098    0.050265087199161784    
  0.05023076062002853    0.050230615796967866    0.050265243376582114    0.05024893476935762    0.050236354863436604    
  0.05088856129948353    0.05353895549918749    0.06002058657787828    0.07240029243801853    0.09202456418362884    
  0.11844985211717039    0.14852092920430557    0.1768639118311509    0.1990975977258555    0.21348438195796537    
  0.22015754203505988    0.22015753453404852    0.21348374636951278    0.19909709176963952    0.1768629330888448    
  0.14852030354344    0.11844900496920706    0.09202416699645471    0.07239980151168314    0.06661245927763473    
  0.06094430672431552    0.05960226786635399    0.06093213778600206    0.06325147571112316    0.06526462688541276    
  0.0663459635868705    0.066680316440031    0.06668050271223225    0.0663458341220032    0.0652648508866623    
  0.06325141816218424    0.06093242270210328    0.05960229491677604    0.06094467040587622    0.06661262649599169    
  0.07734898026547138    0.0925837612210906    0.11027540637118484    0.1268924418245091    0.1394108839263821    
  0.14701152810116144    0.15034649045419773    0.1503462256082665    0.14701140207168442    0.13941027951087412    
  0.1268920770344189    0.11027471788812261    0.09258344363479848    0.07734843823795623    0.06661245927763473    
  0.06450309869699032    0.06661240385047501    0.07239965760958346    0.08028402794608096    0.08807123146339056    
  0.09394731232489384    0.09729336710653402    0.09857786682938967    0.09857767647240483    0.09729367979676343    
  0.09394727353020756    0.0880715924741892    0.08028404972271552    0.07240003189525322    0.06661249642757414    
  0.06450349270253275    0.06661262594471754    0.07240026704974692    0.08028439933724478    0.08807195785886866    
  0.09394766408415059    0.09729400760488713    0.09857805638537734    0.09857814734240714    0.09729370494707507    
  0.09394757317579049    0.08807151093413511    0.08028423433613197    0.07239981149856325    0.06661248245430994    
  0.06450309869699032    0.06661241193573077    0.07734830379163238    0.09202397874011256    0.10741437436036276    
  0.11898634386928807    0.12291621406816249    0.11859705632565834    0.10860465074768429    0.09659104691722686    
  0.0853339953581269    0.07585161592238329    0.06832260028328545    0.06285746836017306    0.06002047911483581    
  0.06094468298259931    0.06661262194406434    0.0773489768274824    0.09202451352663311    0.1074153191455326    
  0.11898698326410997    0.12291707110780807    0.1185974053345731    0.10860516952079989    0.09659106524374467    
  0.08533428521714019    0.07585148797146965    0.06832275515334965    0.06285728159487193    0.06002050306930432    
  0.060944324228459974    0.06661241193573077    0.07734832172601436    0.09991105299819876    0.12915618442242213    
  0.15957075254411204    0.18286250740675122    0.19209104047637648    0.18577732270172828    0.16817684605590383    
  0.1460714296313824    0.1247019999484689    0.10629495401055462    0.09110089917801707    0.07865359419064236    
  0.06901688766630097    0.06294498139321263    0.06094467594953606    0.06294509281247619    0.06797197120061796    
  0.07397996341893025    0.07858523352457247    0.0797869173038569    0.07719286241558156    0.07204925438921458    
  0.06609373681939901    0.06074955860742997    0.056562205796007375    0.05381797321116985    0.05309478453017526    
  0.05553114976787125    0.0629449357998228    0.07734832172601436    0.09258322539623226    0.12915621473408465    
  0.1766201608193143    0.22531774840223895    0.2626280441533909    0.28020126504489407    0.27449691285912864    
  0.24842563600195786    0.21237627993654054    0.17658274507323252    0.1456616660460149    0.11997205506453909    
  0.09856247430563171    0.08105009682992573    0.06797180012209203    0.05960232002032637    0.055531434999638536    
  0.0547590605899364    0.05574539808902458    0.056903688635379694    0.05693816119727613    0.05550792696401617    
  0.05314645384472814    0.05057670161094381    0.04844548234788978    0.04713401980679352    0.047131672092166045    
  0.04942019632668474    0.055790155278758725    0.06901658543489805    0.09258322539623226    0.11027447382092449    
  0.15957077064032194    0.2229686009848082    0.28517458404982987    0.3315344402304745    0.3583683019883398    
  0.35981871928714976    0.32985174281833324    0.2800949277020374    0.22891807023224225    0.18461170788726858    
  0.147903084582752    0.11766380860005139    0.09293491907794137    0.0739797427899075    0.06093244281667374    
  0.05309473018057299    0.0492593630359962    0.04789339605368485    0.04764511995642286    0.04753034684589102    
  0.04713164410790653    0.04652575919594482    0.04596115328209059    0.045726644334700466    0.04609442610095923    
  0.04766968198503805    0.051734601007889326    0.06077302918096104    0.07865356121681244    0.11027447382092449    
  0.1268916686695656    0.18286262263676037    0.2533227378450585    0.3186955867930815    0.3656795293170035    
  0.3979989079828872    0.40842497005709344    0.37996855896329923    0.32242532837742904    0.2612297620988427    
  0.20829083932536388    0.16478365006574075    0.12936728138080492    0.1006276847373048    0.07858504833059896    
  0.06325150195482439    0.05381812268828706    0.04893891042729423    0.04700482916399672    0.046791804685217424    
  0.0474111355946017    0.048362811970327976    0.04952312559142558    0.05086810433813892    0.05236414616916206    
  0.054048327269034906    0.05648412156748481    0.06116608206685254    0.07113870271004406    0.09110061808159038    
  0.1268916686695656    0.13940997697526117    0.19209096507728385    0.25853286268743053    0.31986795736288076    
  0.3637230038071644    0.3938774954529693    0.40288388208356973    0.37418315158331383    0.3174966573106202    
  0.257364500492898    0.2055027458925913    0.16308032793194685    0.12862945784649552    0.10086199135271431    
  0.0797867735383713    0.06526493690597718    0.05656208003808071    0.052530872513136824    0.05171563387598242    
  0.05297801827011153    0.0554754963634211    0.05881017471056305    0.06286247148013371    0.06727330171091983    
  0.07139072336741    0.07457323329125416    0.07707663147726275    0.08059348298406412    0.08865326094058808    
  0.10629490896831457    0.13940997697526117    0.14701082099908477    0.18577750090022366    0.237268851155702    
  0.28796452826257973    0.3253976301466275    0.34657600140675143    0.3452529899056377    0.3154682601120677    
  0.2680681949034964    0.21961670928562216    0.17790927647771934    0.14373856481703493    0.11595531834618758    
  0.09373477977423302    0.07719280026595346    0.0663459879634434    0.06074970918121604    0.05963384689867781    
  0.061891418323545506    0.066523007547202    0.07284435456018487    0.08074284274249593    0.09012835691476356    
  0.10006910136656724    0.10876118692102796    0.11407544762953468    0.11526317693125211    0.11424644223086826    
  0.11553956972371587    0.12470177724806925    0.14701082099908477    0.150345905695865    0.16817657440748893    
  0.19728102743411552    0.22948975450693676    0.25438017244624195    0.2648641724805379    0.2569197461244234    
  0.23202262845388283    0.19892757603504443    0.1663436815866364    0.13838277372885774    0.1154136641212964    
  0.09677982706820096    0.08221691028843969    0.07204926506253918    0.06668066356852012    0.06609368579226087    
  0.06990547541165139    0.07736652374082881    0.08779653633988929    0.10087535583983276    0.11683831834680274    