#     DFTpy    
  CRYSTAL 
    
  PRIMVEC    
  2.9392826487199826    -1.6148991999999998e-10    3.0609249103448273e-10    
  -1.6148991999999998e-10    2.939282648549189    1.4749016275862068e-10    
  5.593454344827587e-10    2.695644689655173e-10    5.384822777609428    
  PRIMCOORD    
  4    1    
  Si    1.4696413243039916    1.4696413250833846    1.654725074304808    
  Si    5.449809220190125e-10    -5.043725794269159e-10    1.0376863126897888    
  Si    8.358726389981358e-11    3.8092174423077573e-10    4.3471364618653245    
  Si    1.4696413247446234    1.469641323966894    3.730097706812514    
  BEGIN_BLOCK_DATAGRID_3D    
  3d_datagrid_density    
  BEGIN_DATAGRID_3D#0    
  13    13    23    
  0.0    0.0    0.0    
  2.9392826487199826    -1.6148991999999998e-10    3.0609249103448273e-10    
  -1.6148991999999998e-10    2.939282648549189    1.4749016275862068e-10    
  5.593454344827587e-10    2.695644689655173e-10    5.384822777609428    
  0.776435788542752    0.7065455056671438    0.5401083549502806    0.36187921690488556    0.23117843227997892    
  0.16010054593387785    0.13842446193855834    0.1601005671360505    0.23117846905255332    0.36187923736616273    
  0.5401082801751174    0.7065456359419797    0.776435788542752    0.7065454323835857    0.6461268057356302    
  0.5003527255723976    0.3418408873155256    0.224165406215094    0.15913911799711486    0.13897548980644042    
  0.15913909888797056    0.22416543686643373    0.34184090170286285    0.500352714982581    0.6461269199862701    
  0.7065454323835857    0.5401083098112275    0.500352734332191    0.40242681379272294    0.29194336878565924    
  0.20610591326473304    0.15607031768820256    0.13982803936953855    0.15607029976345727    0.20610590791960592    
  0.29194330456105105    0.40242675104883574    0.5003527187987896    0.5401083098112275    0.361879261758358    
  0.3418409874230478    0.2919433242223873    0.23257026059908156    0.18253523258592858    0.15106464594396052    
  0.14032737964916525    0.15106461900775822    0.18253524549165065    0.23257034614051528    0.29194329737099434    
  0.34184100149700514    0.361879261758358    0.23117844283658137    0.22416540448350072    0.20610592956462162    
  0.18253526999222489    0.16035648910498962    0.14535443798582728    0.14008089629956508    0.14535442097709406    
  0.16035648580132178    0.18253525874635482    0.2061059020012718    0.2241654635842515    0.23117844283658137    
  0.16010056504096182    0.159139145567511    0.1560703057034429    0.15106463203975634    0.14535444680036141    
  0.14082963149470712    0.13912178846922696    0.14082958456022304    0.14535441676162383    0.15106461063156484    
  0.15607031236485275    0.159139087003779    0.16010056504096182    0.1384244840691232    0.13897549243193377    
  0.13982802089220298    0.14032735497160745    0.14008090603955067    0.13912186819760303    0.1385775767460011    
  0.13912186328653514    0.1400809710178638    0.14032738570413814    0.1398280161180623    0.13897547465820362    
  0.1384244840691232    0.1601005198111194    0.1591390669041307    0.1560703068797517    0.15106458236077278    
  0.14535443742192725    0.14082961239175845    0.1391218411397562    0.14082954919571694    0.14535447789710276    
  0.15106457706660956    0.1560703387170761    0.1591391256221695    0.1601005198111194    0.2311784960349404    
  0.2241654328425196    0.2061059338937847    0.18253528319291423    0.16035649121756956    0.1453544449516011    
  0.14008092367954675    0.14535438823795693    0.16035646425605404    0.1825352195313919    0.20610588134052762    
  0.22416538033192054    0.2311784960349404    0.3618792627405599    0.3418410288081381    0.29194340074745284    
  0.23257030200061027    0.18253519676306884    0.1510646080609685    0.14032740050237666    0.15106463692102845    
  0.18253530258708398    0.23257028623154355    0.2919433242032067    0.3418409266934661    0.3618792627405599    
  0.540108225961585    0.5003527052201879    0.4024268330616768    0.29194331251471617    0.20610589219349706    
  0.15607033727552888    0.13982802518722048    0.15607031554581807    0.20610587999545382    0.29194328258798685    
  0.40242680547283494    0.5003526670634404    0.540108225961585    0.7065455024362264    0.6461268815333142    
  0.5003527039356406    0.3418409108188421    0.22416541882892568    0.1591391247271801    0.1389754287277754    
  0.15913909595514847    0.2241654243215075    0.3418409473000046    0.5003527399255379    0.6461268478061589    
  0.7065455024362264    0.776435788542752    0.7065455056671438    0.5401083549502806    0.36187921690488556    
  0.23117843227997892    0.16010054593387785    0.13842446193855834    0.1601005671360505    0.23117846905255332    
  0.36187923736616273    0.5401082801751174    0.7065456359419797    0.776435788542752    0.695156946788654    
  0.6527614568620287    0.5308359793053922    0.37317564379252943    0.24484408196300717    0.17217536707018596    
  0.14977057753837544    0.17217534855645902    0.24484415505634294    0.3731756569973406    0.5308359520766527    
  0.6527614265437408    0.695156946788654    0.6527613233060606    0.6121096521770456    0.4986556316540406    
  0.3552899605957095    0.23893219088866874    0.17222218573567946    0.1513648858729879    0.17222216104524077    
  0.2389322222402231    0.35528993649918716    0.4986556585127393    0.6121096934879545    0.6527613233060606    
  0.5308359509373242    0.4986556522454111    0.41350325923687714    0.30921726633794644    0.22321905936526681    
  0.17165964640062048    0.1548897965062263    0.1716596159477738    0.2232190264905776    0.30921723279976937    
  0.41350317334617226    0.49865568909770985    0.5308359509373242    0.3731756577020983    0.35529000630257207    
  0.30921726570576064    0.25208137927070023    0.20198342994167626    0.1696093181539614    0.15849983302005907    
  0.1696093031179243    0.2019834403150614    0.25208144507363206    0.30921724516606247    0.3552899837062253    
  0.3731756577020983    0.24484406574796272    0.2389321896858012    0.22321901637452987    0.20198345831928652    
  0.18109305843512039    0.16618350785020752    0.16078355690967108    0.1661834691408559    0.1810930621505206    
  0.20198346728452793    0.22321901975747263    0.23893221179907118    0.24484406574796272    0.1721753877616157    
  0.17222218836625636    0.171659601769151    0.16960934549831216    0.1661835237242967    0.16283800781803948    
  0.1614733953190045    0.16283795390223374    0.16618348824795948    0.16960933542865325    0.17165961535587188    
  0.17222216439971375    0.1721753877616157    0.14977058899324575    0.15136489984534413    0.15488980908641112    
  0.15849978793384156    0.16078355538417824    0.16147348583475438    0.16156435331733288    0.16147347085487954    
  0.16078356326730603    0.1584997747829485    0.15488978716962568    0.15136489906369457    0.14977058899324575    
  0.17217532203573313    0.1722221301633588    0.17165958783797922    0.16960929898470592    0.16618349756346287    
  0.16283801043349203    0.1614734709897494    0.16283796080385463    0.16618353466093905    0.16960928729713254    
  0.17165964251766014    0.1722221892171581    0.17217532203573313    0.24484409747824543    0.23893216867209655    
  0.2232190516851433    0.201983495344125    0.18109304913147808    0.16618352120248764    0.16078352759574652    
  0.16618345295839726    0.1810930786279268    0.20198343629989576    0.22321901139612116    0.2389321694023857    
  0.24484409747824543    0.3731756525984487    0.3552900104877919    0.3092173105967535    0.2520814045087004    
  0.2019834001802432    0.16960933542353845    0.15849983614423663    0.16960932423766945    0.2019834650677118    
  0.25208141356349645    0.3092172853722888    0.3552899448563259    0.3731756525984487    0.5308359407451708    
  0.4986556885957831    0.41350325481713984    0.3092172405953181    0.22321902155381676    0.1716596510896491    
  0.1548897847422958    0.17165961074393138    0.2232190387990815    0.30921727434193774    0.41350324659070253    
  0.49865560234187783    0.5308359407451708    0.6527613737357394    0.6121097124180643    0.49865565964092257    
  0.35528990438627284    0.2389322121906691    0.1722221745221272    0.15136485578584682    0.17222214415020035    
  0.23893218376429387    0.35528992345728305    0.49865571580610507    0.612109665671967    0.6527613737357394    
  0.695156946788654    0.6527614568620287    0.5308359793053922    0.37317564379252943    0.24484408196300717    
  0.17217536707018596    0.14977057753837544    0.17217534855645902    0.24484415505634294    0.3731756569973406    
  0.5308359520766527    0.6527614265437408    0.695156946788654    0.4158950133635813    0.4453728214232325    
  0.46650733793266586    0.39511992389863937    0.2843632381512339    0.2086543155239866    0.18408872041703397    
  0.20865429996667367    0.2843633160623373    0.3951199429458672    0.46650730592424294    0.4453728615614968    
  0.4158950133635813    0.4453728010629083    0.46398943619903665    0.464431240801078    0.38724352337069035    
  0.28270529856653015    0.21201128592807855    0.18894109800457456    0.21201125258141607    0.2827053422093476    
  0.38724350436208604    0.46443125361169896    0.4639894566630914    0.4453728010629083    0.4665073087085546    
  0.4644312024377038    0.4337203063350714    0.3590043220391437    0.27588887976370313    0.21992240852344241    
  0.20129083189486016    0.21992237116332933    0.27588885899467214    0.3590042151659254    0.43372027556017556    
  0.4644312391701154    0.4665073087085546    0.3951200083906886    0.387243634517713    0.3590042681911965    
  0.3121409277166403    0.26294973861899507    0.22810846027021153    0.21590413189512225    0.22810835998116832    
  0.2629497200954017    0.31214101528428145    0.35900425920792156    0.38724356403178706    0.3951200083906886    
  0.28436321735615644    0.28270528153117286    0.2758888497950926    0.2629497298171284    0.24685199418999418    
  0.2330433613735138    0.22754700703689001    0.2330433243675462    0.24685198174031014    0.2629497774948165    
  0.27588886627108145    0.2827052902984023    0.28436321735615644    0.20865429622322995    0.21201129375677472    
  0.21992240146269798    0.2281083955766884    0.2330433915784113    0.2342600697765818    0.23418578220728878    
  0.23426004703297967    0.23304331082679064    0.22810841236628646    0.21992241725139522    0.21201124082374634    
  0.20865429622322995    0.18408875688476356    0.1889411050662554    0.2012908329997235    0.21590404643542407    
  0.22754704381700674    0.23418583847527005    0.2363306958284612    0.23418581184314732    0.22754705470733394    
  0.2159040769697717    0.2012908037348926    0.18894111039641776    0.18408875688476356    0.20865425494241244    
  0.21201125914603294    0.2199223618836902    0.22810835829343817    0.2330433462036704    0.23426010710947467    
  0.23418583168452084    0.23426003314482508    0.23304337035840803    0.22810836717945004    0.2199224398219368    
  0.2120112865286057    0.20865425494241244    0.2843633112786418    0.2827053267314035    0.27588886691756015    
  0.2629497688652441    0.24685196851817717    0.2330433220330661    0.22754701811781342    0.23304329882249483    
  0.2468520067031509    0.26294974273570854    0.2758888353230038    0.2827052679356056    0.2843633112786418    
  0.3951199277597865    0.3872435911969115    0.3590043110654805    0.312140924016688    0.26294971314496585    
  0.22810837896013672    0.21590412337876322    0.22810841145195074    0.2629497666996969    0.31214094633536077    
  0.3590043332561866    0.3872435746566181    0.3951199277597865    0.46650729940838415    0.46443124570761984    
  0.43372030427082237    0.35900424228589056    0.27588884451491164    0.21992241542635266    0.20129086091313175    
  0.21992239730441246    0.27588885386668    0.3590042696076107    0.4337203082333449    0.4644312446086676    
  0.46650729940838415    0.44537281966664405    0.4639895093672199    0.4644312297510572    0.3872435078211514    
  0.28270533046590174    0.2120112797477575    0.18894104523338742    0.21201123542783024    0.2827052750340338    
  0.38724357906897905    0.4644311765646074    0.4639894088591082    0.44537281966664405    0.4158950133635813    
  0.4453728214232325    0.46650733793266586    0.39511992389863937    0.2843632381512339    0.2086543155239866    
  0.18408872041703397    0.20865429996667367    0.2843633160623373    0.3951199429458672    0.46650730592424294    
  0.4453728615614968    0.4158950133635813    0.13885153550940366    0.19886973620962173    0.34769910535366383    
  0.4132518601322084    0.3441906946338654    0.26674376342776407    0.23903554941296404    0.2667437695338997    
  0.3441907761157555    0.41325188302564014    0.347699040612575    0.19886970493742898    0.13885153550940366    
  0.19886970026692874    0.25844721046418473    0.3865278523796959    0.4242785065272583    0.3505788972557926    
  0.27612543007973384    0.24965730716557333    0.27612545013568357    0.35057895477986717    0.4242785021128306    
  0.38652790768479645    0.25844728358726254    0.19886970026692874    0.34769908064450633    0.3865278842379862    
  0.445906285065269    0.4326202794782906    0.3616055373008327    0.3002036654280081    0.27846837409603403    
  0.3002036305167955    0.3616055949230388    0.4326202012127142    0.44590619046693697    0.3865278447672548    
  0.34769908064450633    0.4132519273042811    0.42427858579088973    0.4326202889369822    0.4094721608928855    
  0.3657431205419762    0.3282164857059015    0.3142068790131744    0.32821643007616697    0.36574318752316687    
  0.4094722236849401    0.4326202250243259    0.42427857129025454    0.4132519273042811    0.34419073778719694    
  0.35057887560856854    0.3616055508353237    0.3657431642524338    0.3595401144409705    0.34737382648098725    
  0.3409484387912465    0.3473737919195138    0.359540129418209    0.3657432136896492    0.3616055680680141    
  0.350578911268674    0.34419073778719694    0.2667438042072977    0.2761254605184339    0.3002036688693026    
  0.32821644082718116    0.34737383589345455    0.3521370379413987    0.3510836357725477    0.3521370124118133    
  0.34737383323093907    0.3282164317004075    0.3002036589588243    0.2761254662875898    0.2667438042072977    
  0.23903553290389845    0.2496573254806861    0.2784683714472742    0.3142067820253106    0.3409484305040939    
  0.35108375488405436    0.35199192538897045    0.35108370369276015    0.34094847983847665    0.3142068372522175    
  0.27846832100025376    0.2496573653868044    0.23903553290389845    0.2667437442237496    0.27612540573763367    
  0.30020360444402433    0.32821637763001416    0.34737379277295516    0.35213705596295686    0.35108369216983965    
  0.352136979979445    0.34737381933350503    0.32821637662165976    0.30020369242147193    0.27612548156847644    
  0.2667437442237496    0.3441907762395289    0.35057888906084994    0.36160555205338385    0.3657432029798882    
  0.3595401339115728    0.3473738130133791    0.34094843926148    0.3473737538518903    0.3595401377488625    
  0.3657431463355797    0.36160551233379656    0.35057887762334694    0.3441907762395289    0.41325191108782294    
  0.4242786126045087    0.43262027582993917    0.40947215371153317    0.36574315580741135    0.3282164852178969    
  0.3142068741306486    0.3282164707690537    0.3657432156449216    0.40947223199364385    0.43262026372684637    
  0.4242785503298997    0.41325191108782294    0.3476990585762283    0.3865278999050563    0.44590626663611144    
  0.4326201773587279    0.36160553286139574    0.30020368705507244    0.2784684008490441    0.30020366554850114    
  0.3616055235864112    0.4326202409959449    0.4459062187528587    0.3865279015801151    0.3476990585762283    
  0.19886968117169937    0.2584472698646376    0.38652788464755083    0.4242785040648655    0.3505788868527083    
  0.2761254884006018    0.2496572908340644    0.27612541699935084    0.35057887224196527    0.4242785560099751    
  0.38652783181655687    0.25844722923728014    0.19886968117169937    0.13885153550940366    0.19886973620962173    
  0.34769910535366383    0.4132518601322084    0.3441906946338654    0.26674376342776407    0.23903554941296404    
  0.2667437695338997    0.3441907761157555    0.41325188302564014    0.347699040612575    0.19886970493742898    
  0.13885153550940366    0.05197229928954384    0.10142123744783593    0.28214553050068575    0.4401089545908651    
  0.4096790975305427    0.3313342752629355    0.3009519414314215    0.33133427261514814    0.4096791681845946    
  0.4401090859419363    0.2821454801975037    0.10142125784432134    0.05197229928954384    0.10142124532096475    
  0.16277586887011017    0.34366822201429453    0.4683798324642751    0.42561109705193156    0.3490243408444879    
  0.31970429099863357    0.34902433116776543    0.42561107471900755    0.46837971534983597    0.34366830164310896    
  0.16277592598890503    0.10142124532096475    0.2821455662203645    0.34366829495840984    0.4693774693681242    
  0.5152085853579468    0.460606282481437    0.3957500243977989    0.3711365954341594    0.39574996050372807    
  0.460606338890607    0.51520849638096    0.46937745250894264    0.34366824887322606    0.2821455662203645    
  0.44010902733175167    0.4683798130232651    0.5152085491730796    0.5228191489764874    0.48887380176017986    
  0.44728566527832536    0.42950811841175635    0.44728556392239877    0.48887386969365515    0.5228192650068461    
  0.5152084958450692    0.4683798099745156    0.44010902733175167    0.409679109455029    0.425611012941963    
  0.46060624738142836    0.48887388150266947    0.4896763061894456    0.46425153375742495    0.4476154162150163    
  0.46425140998029374    0.4896763507237253    0.4888737767051233    0.4606062652742175    0.4256110752724036    
  0.409679109455029    0.3313343050795498    0.34902438100914296    0.39574997011245816    0.44728560031786424    
  0.4642515480689671    0.4356659174882711    0.41336910787326314    0.43566582993814484    0.4642515110634604    
  0.44728558687853376    0.3957499929655867    0.34902435140309457    0.3313343050795498    0.3009519322624847    
  0.31970429199181366    0.371136531887766    0.4295080018434309    0.44761546973949545    0.41336923434552525    
  0.387750633541978    0.41336915669093316    0.4476155212875868    0.42950810744814233    0.37113646270998096    
  0.31970432238104246    0.3009519322624847    0.33133423181685306    0.34902430551017405    0.3957499062211147    
  0.44728556742568926    0.4642515154833553    0.4356659009665595    0.4133691839941591    0.4356657624815079    
  0.4642516198488114    0.4472856103060692    0.3957500618931087    0.34902443034595915    0.33133423181685306    
  0.40967917211699356    0.42561103590117005    0.46060627583676145    0.48887387282192263    0.48967647348918103    
  0.4642514588763684    0.4476154253767075    0.46425141993420566    0.4896763674412395    0.48887375942837014    
  0.46060623798433303    0.42561102029979325    0.40967917211699356    0.4401090514201306    0.46837978713027206    
  0.5152085712267084    0.5228191955068696    0.48887377828503925    0.44728567143802905    0.42950813921806563    
  0.4472856320603001    0.4888737574222525    0.5228193553922436    0.5152085699842293    0.4683798115291749    
  0.4401090514201306    0.2821455077392783    0.34366829961749423    0.46937741255869686    0.515208476011356    
  0.46060631264690344    0.3957500419652994    0.3711365580003034    0.39574998339894085    0.460606256876107    
  0.5152085069118196    0.4693774784252872    0.34366826652738497    0.2821455077392783    0.10142124431408286    
  0.16277591303216485    0.34366829715451064    0.4683797585173883    0.42561109767517025    0.34902435735864906    
  0.31970425409078096    0.34902430883949165    0.4256110631295705    0.4683798297224227    0.3436682582379917    
  0.16277587075467978    0.10142124431408286    0.05197229928954384    0.10142123744783593    0.28214553050068575    
  0.4401089545908651    0.4096790975305427    0.3313342752629355    0.3009519414314215    0.33133427261514814    
  0.4096791681845946    0.4401090859419363    0.2821454801975037    0.10142125784432134    0.05197229928954384    
  0.07635413010112314    0.13465234717468016    0.3274316635851669    0.4838847663406222    0.45272504947691844    
  0.37420197304861297    0.3435099659023214    0.37420193141061214    0.4527251244513686    0.4838847673900319    
  0.3274316092270593    0.13465235260053804    0.07635413010112314    0.13465232691029266    0.2031448838575603    
  0.39235613845800765    0.517149298327816    0.4759115675257762    0.39978463400356584    0.37019534739946197    
  0.39978461720346337    0.47591152232270373    0.5171492190795186    0.39235613295121086    0.20314492146895896    
  0.13465232691029266    0.32743169568456765    0.3923561163424251    0.5250828153524966    0.579774549685667    
  0.5314953891658389    0.4669086246647791    0.4411574930313997    0.4669085712047941    0.5314954608371627    
  0.579774468745997    0.5250827705163039    0.392356027669321    0.32743169568456765    0.4838848453830663    
  0.5171493780556217    0.5797745281376852    0.6061818349518847    0.576924628939058    0.5236774126285839    
  0.4975762696925726    0.5236771901808293    0.5769247636710698    0.6061819974706025    0.5797744485973436    
  0.5171492942024594    0.4838848453830663    0.4527249818137657    0.4759114835994765    0.5314953457581978    
  0.5769247051271625    0.5571894076505    0.47809719423912495    0.43355779989767446    0.47809705397627805    
  0.5571893056879957    0.5769246967852732    0.5314953508039579    0.4759115231307551    0.4527249818137657    
  0.3742019338150003    0.3997847235521725    0.4669085813491754    0.5236773090115583    0.4780971365449989    
  0.3505989808296513    0.2879810708443089    0.35059895405225866    0.47809715995531793    0.5236773387114287    
  0.4669086410585897    0.39978464378216394    0.3742019338150003    0.34350992359090776    0.370195360836264    
  0.44115751283164883    0.49757627361543405    0.43355786186917034    0.28798121583766445    0.2226754302910872    
  0.28798116529513185    0.4335578873742348    0.49757629726162117    0.4411573586108567    0.3701953648450353    
  0.34350992359090776    0.3742018832604581    0.3997846233968147    0.46690850406449785    0.5236772342171769    
  0.4780971268276872    0.35059901206279964    0.28798114126868496    0.3505989382615049    0.47809714545515786    
  0.5236772316721068    0.4669086510851293    0.39978471692632905    0.3742018832604581    0.45272510469481914    
  0.47591162227142814    0.5314954037436633    0.5769246334289926    0.5571894222549327    0.47809712572338503    
  0.4335578873903754    0.4780970248114158    0.5571892651106665    0.5769246761424377    0.5314953415964615    
  0.4759115415519102    0.45272510469481914    0.4838848979488423    0.5171493351518641    0.579774472743281    
  0.6061818381853278    0.5769245817297822    0.5236773429980072    0.4975762567892633    0.5236773287023607    
  0.5769246628351254    0.6061818939475722    0.5797745811206887    0.5171492956781586    0.4838848979488423    
  0.3274316086446904    0.3923561248603403    0.5250828178979802    0.5797744655384363    0.5314953018573232    
  0.4669086599757131    0.4411574945820152    0.46690857476620157    0.531495290166101    0.5797744739660066    
  0.525082716220845    0.3923560455690654    0.3274316086446904    0.13465236624698584    0.20314490611770267    
  0.39235608834050856    0.5171492242397835    0.4759116443038791    0.39978468169553133    0.37019533547080014    
  0.39978461756892103    0.4759115767965943    0.5171492420246827    0.3923560950745404    0.2031448910442601    
  0.13465236624698584    0.07635413010112314    0.13465234717468016    0.3274316635851669    0.4838847663406222    
  0.45272504947691844    0.37420197304861297    0.3435099659023214    0.37420193141061214    0.4527251244513686    
  0.4838847673900319    0.3274316092270593    0.13465235260053804    0.07635413010112314    0.2226771213515621    
  0.287979282634257    0.4335600018126568    0.49757396060814185    0.44115956868548106    0.370193377893076    
  0.34351193631049204    0.3701933255463905    0.44115965299772886    0.497573942088513    0.4335599753424316    
  0.28797930734173205    0.2226771213515621    0.28797928198916867    0.35060090452293485    0.47809491825690936    
  0.5236796027087073    0.46690648133455076    0.39978672927777265    0.37419987216670775    0.39978672064423026    
  0.4669064438096332    0.5236795365612446    0.4780949148222907    0.35060098696087616    0.28797928198916867    
  0.43356005290036137    0.4780948991521612    0.5571917543227278    0.5769223080538788    0.5314976514109839    
  0.4759092681453811    0.4527272680458053    0.47590923205219665    0.5314977864449368    0.5769222505224693    
  0.5571916805108383    0.4780948036403244    0.43356005290036137    0.49757405747430994    0.5236796513722537    
  0.5769223143659862    0.6061842626823933    0.5797720869373515    0.5171516919711305    0.4838825362719744    
  0.5171514924597532    0.5797721302031746    0.6061844243708854    0.5769221652343988    0.5236795752223421    
  0.49757405747430994    0.44115951936522546    0.46690639801856004    0.5314976774486102    0.5797721097276578    
  0.5250850366546531    0.39235406342545026    0.32743352783436813    0.3923540170669711    0.5250850436965442    
  0.5797721206120374    0.5314977181310342    0.46690642401952503    0.44115951936522546    0.37019336127109764    
  0.3997867978039348    0.47590923283089975    0.5171515961605676    0.39235409275683114    0.2031465275615641    
  0.13465092041699206    0.20314650863325    0.39235406389725536    0.5171516819082179    0.4759093118555301    
  0.3997867507261935    0.37019336127109764    0.3435119285011507    0.3741999047282986    0.45272738110212535    
  0.4838824910347146    0.3274335760258908    0.13465099885373688    0.07635525595403804    0.1346509700319844    
  0.32743359177329123    0.4838825413080025    0.4527272042941609    0.37419989446585766    0.3435119285011507    
  0.3701933078973618    0.3997867025541809    0.47590918690656736    0.5171515038558481    0.39235408194102134    
  0.20314654354319642    0.13465097043823074    0.20314650247521499    0.3923541011185516    0.5171515119376638    
  0.47590937377498516    0.3997868024549672    0.3701933078973618    0.4411596496877427    0.46690646065522856    
  0.5314976957436235    0.5797720738551622    0.5250850711967017    0.3923540695706273    0.3274335719410619    
  0.39235398985062236    0.5250849863493443    0.5797721221829986    0.5314976144300201    0.46690640884997964    
  0.4411596496877427    0.4975740018837213    0.5236796636400008    0.5769223052163938    0.606184232080148    
  0.5797720550369517    0.5171516300870832    0.4838825878328417    0.5171516120693297    0.5797720791316784    
  0.6061843268431565    0.5769223972324713    0.5236796139582568    0.4975740018837213    0.43355997973367016    
  0.4780949372573694    0.5571917377433425    0.5769222174113555    0.5314976299156374    0.4759093568846859    
  0.4527272272690554    0.47590935436345116    0.5314976360874601    0.576922310607409    0.5571916616317605    
  0.4780948222750623    0.43355997973367016    0.2879793543039583    0.35060094856719004    0.4780949252739918    
  0.5236794916400241    0.4669064741781451    0.3997867778864861    0.37419983907978865    0.3997867059436271    
  0.46690646299205263    0.5236795300892286    0.47809487141542667    0.3506008863153915    0.2879793543039583    
  0.2226771213515621    0.287979282634257    0.4335600018126568    0.49757396060814185    0.44115956868548106    
  0.370193377893076    0.34351193631049204    0.3701933255463905    0.44115965299772886    0.497573942088513    
  0.4335599753424316    0.28797930734173205    0.2226771213515621    0.3877485969292267    0.413371252521381    
  0.447613334194677    0.429510176764376    0.37113451221283966    0.3197061964591571    0.3009500673244684    
  0.3197061809775771    0.3711345575654512    0.4295102090597947    0.4476132453462077    0.41337136902845395    
  0.3877485969292267    0.41337129574780324    0.4356637141681417    0.46425363075781084    0.44728349072946577    
  0.395752058401286    0.34902236701619854    0.33133619515957885    0.34902236538486103    0.3957520476968463    
  0.4472834845395647    0.4642537353924186    0.43566377059329103    0.41337129574780324    0.4476133561421408    
  0.4642536877341336    0.48967413802835663    0.4888760457926841    0.4606040554764299    0.4256131959972984    
  0.40967708063377045    0.42561316917262587    0.4606041066082282    0.4888759221982615    0.4896741652007767    
  0.4642536253108617    0.4476133561421408    0.42951023374251357    0.44728350936274275    0.4888760359096367    
  0.5228168527931836    0.5152108258853698    0.46837763197350807    0.44011117567013947    0.46837755522154684    
  0.5152108458038844    0.5228170029249286    0.4888760179787555    0.44728348775215787    0.42951023374251357    
  0.37113451925007546    0.39575200728871757    0.4606040618916759    0.5152108945818985    0.46937524313571344    
  0.3436702595832763    0.28214364597605673    0.3436702081944436    0.4693752999292636    0.5152107847427231    
  0.4606041234428867    0.395752051432022    0.37113451925007546    0.31970622722159187    0.3490224114162872    
  0.4256131797152803    0.46837757575894645    0.34367028990345233    0.1627744315542971    0.10142247270435609    
  0.16277438138583772    0.34367027875813133    0.4683775701360236    0.42561319685377774    0.3490223782024517    