#     DFTpy    
  CRYSTAL 
    
  PRIMVEC    
  8.75451375150795    6.982772825572414e-07    1.1527945867586205e-06    
  6.982774484606897e-07    8.754516753623234    1.1654026022055173e-06    
  1.1527947341986207e-06    1.165402628964138e-06    8.754516146815075    
  PRIMCOORD    
  16    1    
  Si    1.2918183763263913    7.462696985493723    3.0854401340874595    
  Si    7.462695989342838    1.2918211557235564    5.669074757496917    
  Si    1.2918196923300007    1.291820015612043    1.2918204702490985    
  Si    3.0854446657543204    3.085445947074482    3.085445624710935    
  Si    7.462693866457881    3.08544034938816    1.2918190220891137    
  Si    1.2918180876306162    5.669079676801668    7.462696917218804    
  Si    3.085439194124506    1.2918214205761127    7.462697621694746    
  Si    5.6690744389604495    7.462699009452932    1.2918191272731887    
  Si    5.669073996643647    3.085446462289213    7.462701699217478    
  Si    3.085441476880499    5.669071987022513    1.291814879609484    
  Si    5.669071093160691    5.669076341774425    5.669074637591517    
  Si    7.462696237300407    7.462700361913483    7.462698728022014    
  Si    3.0854450089456282    7.462704324608034    5.669074946851127    
  Si    5.6690697975277535    1.2918144000083804    3.0854426535067363    
  Si    7.462699367121899    5.669075541270181    3.0854458322305622    
  Si    1.291814777619323    3.0854437139311415    5.66907191373279    
  BEGIN_BLOCK_DATAGRID_3D    
  3d_datagrid_density    
  BEGIN_DATAGRID_3D#0    
  41    41    41    
  0.0    0.0    0.0    
  8.75451375150795    6.982772825572414e-07    1.1527945867586205e-06    
  6.982774484606897e-07    8.754516753623234    1.1654026022055173e-06    
  1.1527947341986207e-06    1.165402628964138e-06    8.754516146815075    
  0.01824396349327298    0.018836799564245603    0.02051045858872456    0.02293139599766877    0.02554849321444678    
  0.027705089711455865    0.028895587944178177    0.029034744751309117    0.02850317377831249    0.02787341370740007    
  0.027607305359783098    0.027873419069963375    0.028503213676493357    0.02903479860180034    0.028895642409272965    
  0.027705165461725283    0.025548574923132963    0.02293147324461756    0.020510525290895563    0.018836871336451632    
  0.01824405423514121    0.018836900657659007    0.02051061344872806    0.02293160393091375    0.025548708471481003    
  0.027705332248717494    0.028895800021928975    0.02903493484382126    0.028503336841117347    0.027873522046878162    
  0.027607401080684223    0.027873489359948652    0.02850326200144299    0.02903484168827011    0.02889567920345492    
  0.02770520568776456    0.0255485797879842    0.02293148545227141    0.02051050379635029    0.018836817293374605    
  0.01824396349327298    0.01883678592593829    0.021402717936205184    0.025343576397918992    0.03025404656980195    
  0.035262591112964085    0.03923171611431145    0.041306789972200636    0.04140376820004955    0.040263662780004275    
  0.038951603917570674    0.03839176577362453    0.03895164159889245    0.04026372141436733    0.04140386780797596    
  0.04130688721187333    0.039231838871322804    0.0352627160785693    0.030254138995966236    0.025343650665719888    
  0.021402797278562067    0.018836856722002127    0.017641029422144752    0.01758593709313752    0.018331668325127216    
  0.01945793900704294    0.02051540502376304    0.021172121221931593    0.021325555658849832    0.021127610931379326    
  0.020866015349424387    0.02075541957759508    0.02086600576124965    0.02112758709532035    0.021325473159175493    
  0.021172064628703594    0.020515303680868378    0.01945786449923693    0.018331592069873247    0.017585862448296463    
  0.01764097033211771    0.01883678592593829    0.02051045122669892    0.02534255531107984    0.032222892010944595    
  0.040652023694506975    0.049210677736880065    0.055951308566995366    0.05938035799260681    0.05937833478645595    
  0.05723063661703511    0.054851077542832194    0.053844109360291194    0.05485114026935697    0.05723075757602177    
  0.05937849335182788    0.059380545404699295    0.05595147996196698    0.04921085726309276    0.04065217719878258    
  0.03222300599830782    0.02534265164447279    0.020510522516805664    0.017589846308648894    0.016160288180874116    
  0.015767318076008216    0.015976676314033694    0.016395957099922982    0.016747796181047766    0.016906896149634542    
  0.016880093125547325    0.01679224822691567    0.016753199953403256    0.016792238044730953    0.016880077170876702    
  0.016906859517821362    0.016747742770808746    0.016395900098833474    0.015976627874001934    0.01576727585644473    
  0.016160227260153637    0.01758979173464177    0.02051045122669892    0.022931415713984306    0.03023627873912559    
  0.04062978893627886    0.05346006569030462    0.06661162284113939    0.07700857487018244    0.08227983278321209    
  0.08214450694340338    0.07862861870123869    0.07484907521002518    0.07329474432442971    0.07484916900598991    
  0.07862877629255494    0.08214473593954608    0.08228009577995048    0.07700880170825218    0.06661190102740795    
  0.05346026208952294    0.040629923795573064    0.03023640135553015    0.022931495990763807    0.018362239394916283    
  0.015818620473525762    0.014634913060764787    0.014288222028512999    0.014354624254370493    0.01454499880117616    
  0.014700911224212257    0.014758892227292774    0.014758232338163804    0.014752746861777608    0.014758217411898878    
  0.014758882865563544    0.014700885762667003    0.01454497864746977    0.014354599280520117    0.014288186513314921    
  0.01463487545000303    0.015818564958357453    0.01836219018031664    0.022931415713984306    0.025548488796332664    
  0.03516371080200292    0.049047404384244486    0.0664413965186048    0.08444421661150826    0.09878321902302513    
  0.10608039309811104    0.10586296817040858    0.10094376925462178    0.09572543292582379    0.09360293275064102    
  0.09572552467179593    0.1009439793665334    0.10586323756351157    0.10608070815042793    0.09878360400556231    
  0.08444457587629992    0.06644165590794159    0.04904760418656605    0.03516383147265844    0.02554857599574086    
  0.019581912807836235    0.016209535763503417    0.014527090565370552    0.013884389132584139    0.013795163495937469    
  0.0139202888859119    0.014079137831981671    0.014179307369380823    0.014222584691197804    0.01423541106278113    
  0.014222577651817215    0.014179304393964453    0.0140791266813296    0.013920279128290447    0.013795149719274577    
  0.013884367479169563    0.01452706434304618    0.016209487754038583    0.019581860927174108    0.025548488796332664    
  0.027705105621845093    0.038867291232975    0.055217116030670664    0.07597283743221629    0.0977155460027396    
  0.11517842961414042    0.12411832336986968    0.12391387178197724    0.11803274074345674    0.11175395971689228    
  0.1091829611671889    0.1117540339039548    0.1180329868054478    0.12391418939973838    0.12411872042985461    
  0.11517886149036866    0.0977159341013507    0.07597315486942013    0.055217320524983786    0.03886743326967177    
  0.027705193903490497    0.020883127319349375    0.01709812951585142    0.015244689056791091    0.014555851581715224    
  0.014480620363690636    0.014641880434443307    0.014827675270381634    0.014937481318607138    0.01497658188511196    
  0.01498634313040248    0.014976587229754016    0.014937495039806466    0.014827680091237886    0.014641897504037606    
  0.014480625998665    0.014555854153924182    0.015244679789613233    0.017098106142287288    0.02088306331362415    
  0.027705105621845093    0.028895583012101184    0.04029016046709805    0.05718346025472918    0.07886580832283512    
  0.10177875191377665    0.12035790979154712    0.12997636925747444    0.12991629922835035    0.12387158837514999    
  0.11732280017378198    0.11459735023160539    0.11732289394311267    0.12387180363966742    0.12991663605242967    
  0.12997679683103056    0.12035832137830477    0.1017791817316135    0.07886612260411452    0.05718366472550714    
  0.04029031694897025    0.02889567757452812    0.022069433764796097    0.01843339568329151    0.01681214523731229    
  0.016378200540410368    0.016530480104704138    0.016843228254574544    0.017084110062259024    0.01717187409170794    
  0.017166071844952543    0.017155849184014593    0.017166083347398466    0.01717191837583872    0.017084143298252353    
  0.016843263805178713    0.016530487986010565    0.016378209800400043    0.016812140495101605    0.01843336324327794    
  0.02206938489021715    0.028895583012101184    0.029034746064664312    0.03918116594304238    0.05446448258257863    
  0.07422604650871888    0.09522422641288972    0.11239422954264196    0.12147392326385795    0.12166370241116976    
  0.11630219112462588    0.11039866618433124    0.10793508629848445    0.110398752573983    0.11630246315318817    
  0.12166396023333023    0.12147430330533678    0.11239462821580429    0.09522460538471023    0.07422632236368672    
  0.05446467984406739    0.039181307230204576    0.029034826914746837    0.023176302592671633    0.020354958052832293    
  0.01947874378291527    0.019724654439032884    0.02042280549073144    0.021055626834154382    0.02137586493405484    
  0.021380260726760143    0.021261175375711813    0.021201129418159877    0.021261193709332136    0.021380314361678157    
  0.02137592901247297    0.021055691276910548    0.020422849709238047    0.0197246812623534    0.01947876626914863    
  0.020354926289611698    0.023176253346228394    0.029034746064664312    0.02850316834255866    0.03621108696667357    
  0.048183893506452656    0.06384338023619522    0.08061477539448875    0.09448189012696587    0.10201961738602737    
  0.10245614920575437    0.09832954649649615    0.09370683057890802    0.09178209409022026    0.09370688241102083    
  0.09832970780725182    0.10245640892383147    0.10201992785094671    0.09448217736727808    0.08061505736308099    
  0.06384358097639667    0.0481840680352275    0.03621122556604945    0.02850326907706678    0.02447889258834194    
  0.023190089197952016    0.023729990213618848    0.025283287031002733    0.027014271436542163    0.028231131337482944    
  0.028664301305504656    0.028460463914555627    0.028065012808082875    0.027889070317230598    0.028065061820911657    
  0.028460557979439225    0.028664412017294087    0.028231230378604085    0.02701435352667959    0.02528332394054007    
  0.023730014823199908    0.023190057392391036    0.024478830619435232    0.02850316834255866    0.027873403170757215    
  0.032499576109087214    0.040450623736848844    0.05120368853086108    0.06294395668311845    0.07279613356841716    
  0.07832462933207755    0.07892197757929709    0.0762200920341631    0.07306450012076243    0.0717475820144385    
  0.07306455324290399    0.07622022914424735    0.07892216652760668    0.07832481075999782    0.07279632211428869    
  0.06294417073321533    0.05120388543216675    0.040450755445289414    0.03249970101666414    0.027873496267247264    
  0.02634594397520303    0.02736612333437344    0.030228102462667904    0.03400371696634475    0.03748756141748132    
  0.039673912361840154    0.04024092599509792    0.03959098428349855    0.038644861431220055    0.03822979557383376    
  0.03864490483800152    0.03959112416792359    0.04024103566310915    0.039674049180024894    0.03748762799750181    
  0.034003749241558696    0.030228084497984597    0.02736606877444998    0.026345854903257845    0.027873403170757215    
  0.027607306348858485    0.029036460443738154    0.03317544417410286    0.039466807064435755    0.04665617528273645    
  0.05285506091808214    0.05648681248436943    0.05713159519111706    0.055664173099075336    0.053796565007710406    
  0.05300144671768913    0.053796572340477716    0.05566426989750331    0.05713171674417142    0.056486945656976    
  0.05285522130137803    0.0466563255613046    0.03946694182802381    0.03317557931866057    0.029036586755974887    
  0.02760743513508343    0.029036610202744936    0.03317562961400583    0.039467018764073915    0.04665634248763026    
  0.052855171864544595    0.056486835595640696    0.057131541548012775    0.05566408661045039    0.05379641230477072    
  0.053001318655837314    0.053796474630103765    0.055664231935386686    0.05713170847305677    0.0564869494413893    
  0.0528552327671588    0.04665631640403834    0.03946692853819154    0.03317552078200291    0.029036493982645507    
  0.027607306348858485    0.027873440747894607    0.026345867495596084    0.027366051255794308    0.03022804066209673    
  0.03400367801066369    0.03748755078820974    0.03967398500364759    0.04024103463554321    0.039591123992781606    
  0.03864501139136293    0.03822993834484112    0.03864500615357977    0.03959114169453887    0.040241097481753765    
  0.03967407664334224    0.03748765551232589    0.034003777047257905    0.030228156677504142    0.02736616048681661    
  0.02634600749649772    0.027873585358250682    0.03249985198495234    0.040450967205329834    0.05120412898845986    
  0.06294441060938256    0.07279652362180768    0.07832487995538417    0.07892213716670793    0.07622009945520188    
  0.07306447188440099    0.0717475226889539    0.07306453830691582    0.07622022934021895    0.07892223590918855    
  0.07832492396283351    0.07279643521609432    0.06294421751514918    0.051203934203893346    0.0404507522571    
  0.03249966246440719    0.027873440747894607    0.028503241214807407    0.02447885672495188    0.02319006842515216    
  0.02372998894570791    0.025283280309745502    0.027014313617496438    0.028231204566844675    0.02866442063512917    
  0.02846059502099958    0.02806513139993437    0.02788918684869319    0.02806512222397682    0.02846062149400294    
  0.02866445196332183    0.02823124438734378    0.027014374921204856    0.02528336441205452    0.023730080431766776    
  0.02319017403403902    0.024479020649313333    0.028503459303419975    0.036211505878277844    0.048184487347756225    
  0.06384410710443437    0.08061565015250875    0.09448276398721614    0.1020203410255543    0.10245664904190725    
  0.09832982959221656    0.09370696340111871    0.09178220062985114    0.09370700904974902    0.09832986041144418    
  0.10245659313831325    0.10202011365061407    0.09448240740949959    0.08061521882700243    0.06384371338923611    
  0.04818410140418154    0.03621121956083327    0.028503241214807407    0.02903483734990618    0.023176296859913025    
  0.02035496188949916    0.01947876468756962    0.019724673502671486    0.020422838393992695    0.021055685444667942    
  0.021375950975757545    0.02138035170144832    0.021261252942449578    0.021201200979294187    0.02126125845554902    
  0.02138036078381708    0.02137598340091943    0.02105573583122602    0.020422877539901404    0.019724744501171565    
  0.019478850963015108    0.020355067643038748    0.023176482626875043    0.02903511688471872    0.03918173506911147    
  0.054465328346221385    0.07422717555055235    0.09522558332563079    0.11239567617279672    0.12147518118296431    
  0.12166467974711184    0.11630290439526068    0.11039914622435422    0.10793546041565645    0.11039908414701456    
  0.11630278386559699    0.1216644110108107    0.12147467470500649    0.11239499019847211    0.0952248406462063    
  0.07422649120762857    0.054464775799495546    0.03918133829320418    0.02903483734990618    0.028895696147575457    
  0.02206943967249436    0.01843340195537085    0.01681216639203093    0.016378203438397465    0.0165304986333184    
  0.016843276979418717    0.017084167989333467    0.017171933100506534    0.017166130092454636    0.017155904689162303    
  0.01716613482541875    0.01717194220141438    0.017084184412278963    0.01684330350417695    0.01653053710462616    
  0.016378284081238353    0.016812239145435913    0.018433526920234193    0.022069634304162485    0.02889602418481494    
  0.040290880009131995    0.057184527344856524    0.07886725666237743    0.10178060841637339    0.12035987254484971    
  0.1299782090305056    0.12991784109087592    0.12387273008776045    0.11732363306240565    0.11459799405806731    
  0.117323469489201    0.12387239364641621    0.12991718644617023    0.12997731442209426    0.1203588040362384    
  0.10177949980943293    0.07886634727519372    0.05718381189825335    0.04029037240444279    0.028895696147575457    
  0.0277052171090764    0.020883134480368413    0.017098146826228258    0.015244690733302672    0.01455585534290009    
  0.014480630174347305    0.014641905639273957    0.014827700064205817    0.014937499636852779    0.0149766184543459    
  0.014986359340163489    0.014976618175558079    0.014937525345233849    0.014827727968040941    0.014641944944283222    
  0.014480688629720987    0.01455592810344433    0.01524479046413165    0.017098272101813573    0.020883349618784824    
  0.02770558020495585    0.03886806250367589    0.05521829889457779    0.07597448581919591    0.09771759853121133    
  0.11518069164642347    0.12412045296554623    0.1239156893129242    0.11803418056613614    0.11175500217741083    
  0.10918381689123847    0.11175472803515195    0.11803364648167879    0.12391487338676327    0.12411932312320112    
  0.11517937047472156    0.09771632249162227    0.07597341878929062    0.05521749157337729    0.03886751095582748    
  0.0277052171090764    0.025548610815014687    0.01958192387254581    0.016209529970754727    0.014527078626575478    
  0.01388437431456936    0.013795149466973631    0.013920289198660573    0.01407913897372108    0.014179315046897723    
  0.014222594498892988    0.014235435409052324    0.014222619727154048    0.014179349007505214    0.014079190262022723    
  0.013920353440855033    0.013795208637179585    0.013884470779872291    0.014527198103139329    0.016209673699395036    
  0.019582136064056177    0.02554895163245547    0.03516445264968345    0.04904853348501398    0.06644296796144557    
  0.08444621495952505    0.09878542727472002    0.10608251999964591    0.10586478530704044    0.10094523467895926    
  0.09572654809231267    0.09360380822003622    0.09572627241315203    0.10094465140071585    0.10586387166394061    
  0.10608132571503512    0.09878407492216955    0.08444493751325714    0.06644190771787743    0.04904775092272647    
  0.03516391491017717    0.025548610815014687    0.02293151500846174    0.01836224753864137    0.015818599478047157    
  0.014634886227594323    0.014288189559103645    0.014354578636100866    0.014544976119245982    0.01470088077630642    
  0.0147588822683061    0.014758241545724004    0.014752774304892103    0.014758279068284271    0.014758955819003288    
  0.014700978706672533    0.014545076122063948    0.014354709102736667    0.014288312861855447    0.01463503165609517    
  0.015818760772322582    0.018362474539909922    0.022931836365317183    0.03023692678307166    0.04063073959390557    
  0.0534613555398102    0.06661326238340018    0.07701039924375687    0.08228161078859321    0.08214607920496475    
  0.07862988812854134    0.07485008607778089    0.07329550220762523    0.07484983285403857    0.07862937035446717    
  0.08214526199352856    0.08228057031604984    0.07700924792992055    0.06661219517319977    0.053460482327412476    
  0.04063004881255174    0.030236449290880985    0.02293151500846174    0.020510524195296396    0.017589837923308448    
  0.016160263386516098    0.01576726704680553    0.01597661171544888    0.016395882015205577    0.01674772297662532    
  0.01690683913959186    0.016880064310757403    0.016792258282016685    0.01675323130457124    0.01679231653153562    
  0.016880188639133063    0.016907014859275593    0.01674792002441664    0.01639607557019544    0.015976811170840245    
  0.015767472116607426    0.016160455280484723    0.017590069189915673    0.020510829702963567    0.025343086322634135    
  0.03222362854051576    0.040652976041410875    0.04921187906203797    0.05595263321547262    0.05938169506559349    
  0.059379488112708094    0.05723160129542142    0.05485182525975358    0.0538447038358168    0.05485162220373254    
  0.057231168527051485    0.05937887502243982    0.05938089596201548    0.055951786812573026    0.04921107344567226    
  0.04065232563102907    0.032223095623803724    0.025342688918067718    0.020510524195296396    0.018836846206999092    
  0.017640998995339927    0.01758588132449636    0.018331590766420363    0.019457834569175325    0.020515292660191465    
  0.021172010177891703    0.021325455989627047    0.02112756907091645    0.020866016197735145    0.02075546760035682    
  0.02086612172143476    0.021127761486684226    0.021325740033502284    0.021172339740019697    0.020515620056366365    
  0.019458164404852814    0.018331878705895942    0.017586143200661722    0.017641256017462623    0.018837122983197428    
  0.021403138225225656    0.02534410489661911    0.030254713087967115    0.035263384753887655    0.03923261128764622    
  0.04130765435610052    0.04140456567839089    0.040264305489535634    0.03895214478468538    0.03839216832949021    
  0.03895197707286    0.040264022234217586    0.041404111056019044    0.041307117681199074    0.039232019176928506    
  0.0352628424485484    0.030254239999079998    0.025343703685659302    0.021402812549780388    0.018836846206999092    
  0.018244013276618468    0.018836843716234914    0.02051051403262101    0.022931465000947487    0.025548536183125636    
  0.027705130788963753    0.028895610180888407    0.02903476594795037    0.028503214331410454    0.02787350955221812    
  0.02760747463502261    0.02787367756310478    0.02850358117839399    0.02903526332748637    0.028896167683248753    
  0.027705709350844168    0.025549078879730187    0.02293191117275516    0.020510872160336945    0.018837148505400133    
  0.018244287610070103    0.018837129376538565    0.020510841526692955    0.022931854391658128    0.025548992555635214    
  0.02770563976011048    0.02889610854927493    0.029035219506163255    0.02850357642030211    0.027873741425766877    
  0.027607566319227023    0.027873637111216192    0.02850338717235165    0.029034945125824246    0.02889577958957679    
  0.02770527506687509    0.02554863885571036    0.02293152693841121    0.020510547387806194    0.018836860763152465    
  0.018244013276618468    0.018836854651128384    0.02140280402440241    0.02534366426931397    0.03025413652933659    
  0.03526267441829348    0.03923177845640898    0.0413068305747261    0.04140382094294338    0.04026372716411147    
  0.03895173948695668    0.03839201541412854    0.03895205217590878    0.04026430411957074    0.041404623835104286    
  0.041307766040725204    0.03923272911080589    0.03526352819530142    0.030254818225644808    0.02534416329410695    
  0.021403168620458754    0.018837135109674292    0.017641262532890563    0.017586132797933165    0.018331857886001744    
  0.0194581326038708    0.02051558933598976    0.021172305160631066    0.021325725836125943    0.021127766239358418    
  0.02086615170740775    0.02075553031810084    0.020866090722871114    0.02112766180022364    0.021325547483011218    
  0.021172112074693737    0.020515362733685413    0.01945789098211353    0.018331633395474275    0.017585909989196468    
  0.01764102032994189    0.018836854651128384    0.020510538480559823    0.025342668182023895    0.03222302788203764    
  0.04065217940746739    0.04921081771274774    0.05595138577516504    0.059380399813258135    0.0593783631173622    
  0.057230713664525666    0.054851245806183016    0.05384446292059813    0.054851715135073455    0.05723163310707005    
  0.05937962504025437    0.05938188797168504    0.055952848243061404    0.049212090738761816    0.04065316085833579    
  0.03222373491795254    0.02534315355944783    0.02051085857256747    0.01759008160921759    0.016160461399184974    
  0.015767457132494177    0.01597680673129323    0.016396079596527512    0.016747904389356024    0.016907008747894064    
  0.0168801767197117    0.01679232723246747    0.016753259303427245    0.016792286739571085    0.016880126490109088    
  0.016906906581670048    0.01674777959893316    0.016395927448221537    0.01597665344168833    0.015767296153461983    
  0.016160282096071874    0.017589853721128514    0.020510538480559823    0.022931534871907272    0.030236445113330585    
  0.04062999099667506    0.05346028854927391    0.06661181999705745    0.07700870782724789    0.08227988693432153    
  0.08214450647071796    0.07862868613603444    0.0748492710330629    0.07329515563797985    0.0748499355477388    
  0.07862995431380691    0.08214630365545902    0.0822819714407569    0.07701070594451474    0.06661360123008661    
  0.053461611492487605    0.04063088808919595    0.03023702962345957    0.022931886813815625    0.018362494728422676    
  0.01581877741717652    0.014635024801517457    0.014288317581549527    0.014354706650573246    0.014545073115963428    
  0.0147009751535588    0.014758956510409788    0.01475827959145622    0.01475279249175263    0.014758255573619693    
  0.014758912589915879    0.014700914752195177    0.014545003544794625    0.014354612192354534    0.014288215822670173    
  0.014634913449511153    0.015818623431644453    0.018362271180002842    0.022931534871907272    0.025548633653977377    
  0.03516390910167193    0.0490476848067667    0.06644171466782621    0.08444451170445925    0.09878344150409024    
  0.10608045530526417    0.10586294314569031    0.10094376033751602    0.09572555432444184    0.09360335711493789    
  0.0957263713878466    0.10094531589051446    0.10586510864466546    0.106082954902314    0.09878588702606719    
  0.08444668432280585    0.0664432928927887    0.049048744946208776    0.035164571851583885    0.025549022192155577    
  0.019582183696972667    0.01620969506542479    0.014527195876627487    0.013884469666572781    0.013795242916603957    
  0.013920357845303885    0.014079191585354252    0.014179350186682559    0.014222627847814438    0.014235443693364965    
  0.014222606764781685    0.01417932528022962    0.0140791374943302    0.013920293109245006    0.013795163967205603    
  0.013884395795453934    0.014527103016265547    0.016209556143873167    0.01958195779004891    0.025548633653977377    
  0.027705268928862697    0.038867526807247525    0.055217444344310924    0.07597321966432628    0.09771588074708945    
  0.11517864587446444    0.12411840113790917    0.12391378880870915    0.1180325956158634    0.11175395280257133    
  0.10918330181744132    0.11175480339722135    0.11803429523263512    0.12391607476891955    0.12412102711789728    
  0.11518126564317101    0.09771816310187724    0.07597490653372292    0.055218538004542926    0.03886819517225322    
  0.02770565189713195    0.020883393290194414    0.01709829156939946    0.01524480167886094    0.0145559391508587    
  0.014480686642307438    0.014641941697617978    0.014827715083929263    0.014937526700599446    0.014976620232908158    
  0.01498636467438605    0.014976597312570354    0.014937501847236492    0.014827694872459638    0.014641902002225678    
  0.014480629732103532    0.014555861795021573    0.015244710161632476    0.017098166391915394    0.020883167780779116    
  0.027705268928862697    0.02889574822116105    0.04029041404105297    0.057183788596982275    0.078866216731265    
  0.1017791024138254    0.12035813813994065    0.12997637749053317    0.1299161437309063    0.12387140157657173    
  0.11732264923845563    0.11459745535707262    0.11732340156554928    0.12387290797709734    0.1299182372730046    
  0.12997878047065478    0.12036046396109466    0.1017811791162822    0.07886768436088826    0.05718477649900083    
  0.04029102091245263    0.028896106586098026    0.022069692812368754    0.018433542894308166    0.01681224933375744    
  0.016378286189364655    0.016530549916317538    0.016843308223247144    0.01708418362140045    0.017171927479145813    
  0.017166116418430313    0.01715589246078804    0.017166100210457225    0.017171926382608196    0.017084139649020134    
  0.016843262562289723    0.01653048433049896    0.01637820936999637    0.01681216768720957    0.018433423881374894    
  0.02206948376618736    0.02889574822116105    0.029034894148244103    0.03918138627205621    0.0544647985525538    
  0.07422640645975892    0.09522451770375921    0.11239440947946942    0.12147391559207518    0.12166349628426833    
  0.1163018942561458    0.11039837383381183    0.10793501719059889    0.11039899815060897    0.11630304451877078    
  0.12166508103710731    0.1214757162885752    0.11239621630903228    0.09522612222714463    0.0742275435428985    
  0.05446555744539958    0.03918188799255353    0.029035177875303464    0.02317652802982184    0.020355101229044752    
  0.01947885938348874    0.01972475579589435    0.02042289933814219    0.021055715986269787    0.021375965807267087    
  0.021380351490774357    0.02126123328946851    0.02120117036663233    0.021261211462739456    0.021380324725426662    
  0.021375929221360307    0.02105566708057868    0.02042282156436571    0.019724673225035676    0.01947875837963645    
  0.02035497617687769    0.02317634797335203    0.029034894148244103    0.028503305091227078    0.03621126771496089    
  0.04818415518052239    0.06384366941016124    0.08061502064657791    0.09448202756946612    0.1020195666123163    
  0.10245591352141566    0.09832922878698518    0.093706466403004    0.09178184943100896    0.09370685094079215    
  0.09832993568966887    0.10245695291040183    0.1020207310620081    0.09448313052351369    0.08061602794226518    
  0.06384441309654867    0.048184677785550564    0.03621163894674398    0.02850353417096944    0.024479069541856403    
  0.023190216436376893    0.02373009653789244    0.025283393290866343    0.027014403665027647    0.02823125732474145    