#     DFTpy    
  CRYSTAL 
    
  PRIMVEC    
  5.370036785718795    4.2832472486758625e-07    7.071265764137931e-07    
  4.283248266331035e-07    5.3700386272225    7.148603590848277e-07    
  7.071266668537932e-07    7.148603754986207e-07    5.370038255005124    
  PRIMCOORD    
  16    1    
  Si    0.7924040555816524    4.577633717905946    1.8926153399814831    
  Si    4.577633106864937    0.7924057604696042    3.477422145062542    
  Si    0.79240486282098    0.7924050611228515    0.7924053399981584    
  Si    1.8926181197152794    1.8926189056797087    1.892618707941244    
  Si    4.577631804682928    1.892615472047377    0.7924044516938379    
  Si    0.7924038784950688    3.47742516257422    4.577633676025968    
  Si    1.892614763406269    0.7924059229307084    4.577634108152963    
  Si    3.4774219496716166    4.577634959406697    0.7924045162139663    
  Si    3.477421678353578    1.8926192217134865    4.577636609313814    
  Si    1.8926161636535022    3.477420445647831    0.7924019106882917    
  Si    3.477419897351146    3.4774231168616327    3.477422071512322    
  Si    4.577633258962622    4.577635789008787    4.5776347867763905    
  Si    1.8926183302295352    4.577638219733796    3.4774222612128045    
  Si    3.477419102607231    0.7924016164999861    1.8926168853984624    
  Si    4.577635178801578    3.4774226258306795    1.892618835234211    
  Si    0.7924018481273167    1.892617535864979    3.4774204006917633    
  BEGIN_BLOCK_DATAGRID_3D    
  3d_datagrid_density    
  BEGIN_DATAGRID_3D#0    
  23    23    23    
  0.0    0.0    0.0    
  5.370036785718795    4.2832472486758625e-07    7.071265764137931e-07    
  4.283248266331035e-07    5.3700386272225    7.148603590848277e-07    
  7.071266668537932e-07    7.148603754986207e-07    5.370038255005124    
  0.2786507801988023    0.2840362324939978    0.3011480687027738    0.3307055471753214    0.3664889144763456    
  0.391844261371279    0.39184411995915236    0.366489218319394    0.33070601945411515    0.30114877540088164    
  0.28403700614470573    0.2786517298577677    0.28403730863591    0.30114936410906645    0.3307066018269535    
  0.3664901254965662    0.3918450717319506    0.3918451208969136    0.36648964729439887    0.33070613319927183    
  0.3011483881838187    0.2840364911572594    0.2786507801988023    0.28403624780467207    0.3174566977965577    
  0.36531121579570985    0.43399309560832317    0.5187244746127629    0.5843146770269816    0.584314837149504    
  0.5187246726490491    0.4339936321785553    0.3653118782885265    0.317457514731824    0.2840370271983259    
  0.26239484854981965    0.252272510942638    0.2524364859100339    0.2592895236358136    0.2653297360744111    
  0.2653297007768018    0.2592893760681749    0.2524362009759769    0.2522720160685972    0.26239415386962817    
  0.28403624780467207    0.3011481603992074    0.3526271435215578    0.419342155613829    0.5186469317450845    
  0.6579522296546908    0.7791264775807615    0.7791263961406829    0.6579524550275233    0.518647351816063    
  0.4193426779408977    0.35262792617791283    0.30114873533785014    0.26138155308101835    0.23430148704643364    
  0.21897341708349605    0.21327504847592021    0.21237112591060203    0.21237122823716667    0.213275064172209    
  0.21897339705688823    0.2343010986803172    0.26138111996003077    0.3011481603992074    0.3307055026996652    
  0.38513715994110936    0.4509116969177358    0.5563293742768785    0.7233398008156757    0.8799756236198184    
  0.8799754631889232    0.72334006545788    0.5563296712015424    0.45091207576206127    0.38513780954849314    
  0.3307059962003776    0.28451031469745547    0.2515543831147153    0.2327788407863956    0.2254849595600166    
  0.22415710033093006    0.22415710159228674    0.22548501499644055    0.23277880733642012    0.25155417992289586    
  0.2845100493409038    0.3307055026996652    0.3664891158474143    0.409596935118472    0.46159636720157415    
  0.5508946035553716    0.6974692230334428    0.8344405336905498    0.8344402063717512    0.6974691585968236    
  0.550894582050267    0.4615969121943917    0.40959734562800687    0.366489699568531    0.328639752906479    
  0.30319086998768385    0.2939829763747431    0.2975444922448972    0.30389227034650246    0.303892305653677    
  0.2975443133913353    0.29398290973811175    0.30319061399002983    0.32863938697670286    0.3664891158474143    
  0.3918441515426964    0.41039597385089155    0.4389442805402676    0.4951061043255356    0.5852637539212269    
  0.6647772688547734    0.6647772380167087    0.5852640160667728    0.495106610159805    0.43894492531771934    
  0.4103967339881016    0.39184492829937123    0.37865630673119877    0.3765886474009974    0.39393445593211535    
  0.4289386175035242    0.4595235659995748    0.4595232856706253    0.42893836820056114    0.393933949302381    
  0.37658810829954326    0.3786556143773525    0.3918441515426964    0.391844664156849    0.3786554904443258    
  0.37658873537702897    0.39393403772773455    0.4289390677423586    0.4595239667198503    0.4595240366050952    
  0.428939400236388    0.3939347267203715    0.3765896105422731    0.37865664087835776    0.39184575227434615    
  0.41039654406082055    0.43894543067196223    0.49510645090260313    0.5852644069702416    0.664777187423812    
  0.6647768805704571    0.5852633507735356    0.4951052822804712    0.43894424306472496    0.41039546111457553    
  0.391844664156849    0.36648908047754764    0.3286401450746646    0.30319061966463734    0.2939835210656686    
  0.29754468665362227    0.3038929061309231    0.3038930661275888    0.29754515184179353    0.2939842918855128    
  0.3031917548534745    0.32864146296241303    0.3664907245786129    0.4095989076443493    0.46159729954700884    
  0.5508956063608622    0.6974703077941179    0.8344420190237896    0.8344409931090075    0.6974686458607096    
  0.5508942045695724    0.4615959439294556    0.40959738185753836    0.36648908047754764    0.33070621888383284    
  0.28451002159373256    0.25155466121173947    0.23277879439919566    0.2254854394772279    0.22415744436601798    
  0.22415755902393183    0.2254859730598132    0.23277980119109706    0.2515560358879547    0.28451180659202036    
  0.3307083021029491    0.38513915079861716    0.4509137314183871    0.5563305107585926    0.7233422778158104    
  0.8799785591973432    0.8799775957447759    0.7233407405407636    0.5563291231358515    0.45091224477197794    
  0.385137237061319    0.33070621888383284    0.30114833753742565    0.26138173110546803    0.23430100090972442    
  0.21897364890760057    0.21327499762066163    0.21237158477970586    0.21237171226420978    0.21327585284209616    
  0.21897502780099942    0.2343028114145801    0.2613839920770671    0.3011508640014983    0.3526306210764516    
  0.41934448457056095    0.5186495457876521    0.6579551427360835    0.7791304145432846    0.7791297633899681    
  0.6579536740267103    0.5186481075607202    0.41934244639126955    0.3526282299360102    0.30114833753742565    
  0.2840371846032492    0.26239420679212694    0.2522724399041362    0.2524360748264741    0.2592895523694398    
  0.26532996118202856    0.2653303396977124    0.25929073697300087    0.2524379121053865    0.2522746172522642    
  0.2623969535357581    0.28404010033132415    0.3174599656295411    0.3653149298085507    0.43399612409443905    
  0.5187281731824503    0.5843183806174792    0.5843177886119925    0.5187267710572036    0.4339941597326494    
  0.3653125784337161    0.3174572561842622    0.2840371846032492    0.27865103777227757    0.2840371306760943    
  0.3011483606763738    0.3307064684335981    0.3664896691520967    0.391845631280228    0.3918460113854215    
  0.36649122440519505    0.33070864581949944    0.30115118267809127    0.28404017702169204    0.27865412732093275    
  0.2840399341008267    0.3011512851849105    0.3307088496973208    0.3664917841740988    0.39184680278431683    
  0.3918464740488103    0.3664904954296633    0.3307071389095544    0.30114872508401364    0.28403741016200146    
  0.27865103777227757    0.2840371318267795    0.31745709413090895    0.3653122635222719    0.43399362819127735    
  0.5187258442361616    0.5843164140733529    0.5843167658895846    0.5187268732399523    0.43399558026538543    
  0.3653147527053106    0.3174600469611142    0.2840401673690919    0.262396884495468    0.2522747655440458    
  0.2524378660022391    0.25929094052626456    0.2653306357653375    0.26533045155788004    0.2592901017299486    
  0.2524364759265694    0.25227277263805925    0.26239450640462525    0.2840371318267795    0.30114842230454825    
  0.3526281348051894    0.41934231388941734    0.5186478701022686    0.6579530898731968    0.7791282322278024    
  0.7791279575207806    0.6579530091905297    0.5186485304822867    0.419343971665248    0.3526307498936513    
  0.3011510610003106    0.2613841074359973    0.2343028921176412    0.21897491247643322    0.2132758349555106    
  0.2123719336662304    0.21237173855019464    0.21327532279261885    0.21897383187981376    0.23430125166928426    
  0.26138200067432604    0.30114842230454825    0.33070638028594357    0.385137213387283    0.45091219259473275    
  0.5563292278697571    0.7233405437292861    0.8799763059118448    0.8799756734272449    0.723339700096678    
  0.5563289869321282    0.45091316568351636    0.3851393433169448    0.3307087061269855    0.2845120786247424    
  0.25155622751514567    0.23277973944940739    0.22548593917502732    0.2241574823611223    0.22415737812673067    
  0.2254853657007636    0.23277885398983406    0.2515548094163046    0.2845102981803442    0.33070638028594357    
  0.36648931135320306    0.40959745944530845    0.4615959695586179    0.5508944538632873    0.6974684913192514    
  0.8344400666732364    0.8344397931586477    0.6974681972132927    0.5508944591937276    0.46159702133130803    
  0.4095992631736847    0.3664912483585686    0.328641855382842    0.3031919489757071    0.2939841937341658    
  0.2975449053121762    0.30389267893921124    0.3038924480649583    0.29754442817217064    0.2939833816470798    
  0.3031907652533352    0.3286402229443041    0.36648931135320306    0.3918448985098577    0.41039585886883234    
  0.4389444351161948    0.49510526613459377    0.5852631991956442    0.6647760063243467    0.66477600931362    
  0.5852634210245123    0.4951058780851946    0.43894546771117776    0.410397288505873    0.39184657518911364    
  0.3786573218795106    0.37659002468916325    0.39393469927137004    0.4289391904216159    0.459523683887063    
  0.4595233743249183    0.4289385956563148    0.39393391249102905    0.3765887815984919    0.3786558002135594    
  0.3918448985098577    0.39184465406329194    0.37865608768974524    0.3765883125827432    0.3939338447708604    
  0.42893813913974393    0.45952292783301313    0.45952302325126937    0.42893836365683397    0.3939344798653385    
  0.37658902302963365    0.3786572517486045    0.3918458732627765    0.410397495711838    0.4389454217522753    
  0.49510671377081317    0.5852638246612438    0.6647769120802248    0.6647765558255997    0.5852632669697256    
  0.4951058443828457    0.43894438247203993    0.4103962570496732    0.39184465406329194    0.36648958314504726    
  0.3286399488184227    0.3031908958961909    0.29398301948739824    0.29754438647250286    0.3038920788442159    
  0.3038920011483287    0.2975443882418072    0.29398315744669334    0.30319137738281393    0.32864047485354947    
  0.3664906353108807    0.40959819736790753    0.4615974969673979    0.5508947807863376    0.6974693849825528    
  0.8344404492948754    0.8344400449026719    0.6974686060009135    0.5508941201615672    0.4615965048960212    
  0.40959713208806603    0.36648958314504726    0.3307058960245408    0.2845103162634503    0.25155442344763934    
  0.23277889206788946    0.22548496408813337    0.22415697146071492    0.22415678749713838    0.22548492584586916    
  0.23277895331820522    0.25155463098396486    0.28451090571275156    0.3307067178588307    0.3851385189430396    
  0.4509126739991164    0.5563299688898581    0.7233404406717062    0.8799764795036754    0.8799757652343208    
  0.7233397533786176    0.5563291966587092    0.4509118504751857    0.38513754986360194    0.3307058960245408    
  0.30114846720383637    0.261381294864086    0.2343011926804404    0.21897322515663936    0.21327486078052937    
  0.2123709350611759    0.2123708190982995    0.21327486566268336    0.2189733658065473    0.23430140577235742    
  0.2613818077967726    0.3011493447571942    0.3526284604842437    0.41934337663900056    0.5186478875804074    
  0.6579534227187159    0.7791276701233147    0.7791277077244133    0.6579526128153913    0.5186470532024717    
  0.41934220440611464    0.35262757714182963    0.30114846720383637    0.28403637570569495    0.2623941855645506    
  0.252271855893928    0.25243589206011335    0.25928889173914216    0.26532910709462215    0.2653290839221258    
  0.2592888888257176    0.2524361794278148    0.2522721743328366    0.2623948728075204    0.28403728443501025    
  0.31745800272315994    0.36531259212886663    0.43399434950079    0.5187259023197435    0.5843161756432353    
  0.5843159099084694    0.5187252912574339    0.4339934270782295    0.3653116020328927    0.3174569946305465    
  0.28403637570569495    0.2786507801988023    0.2840362324939978    0.3011480687027738    0.3307055471753214    
  0.3664889144763456    0.391844261371279    0.39184411995915236    0.366489218319394    0.33070601945411515    
  0.30114877540088164    0.28403700614470573    0.2786517298577677    0.28403730863591    0.30114936410906645    
  0.3307066018269535    0.3664901254965662    0.3918450717319506    0.3918451208969136    0.36648964729439887    
  0.33070613319927183    0.3011483881838187    0.2840364911572594    0.2786507801988023    0.2840363718156968    
  0.317456564523519    0.35262738395801535    0.385136978081759    0.4095970462128456    0.4103956484402121    
  0.3786557766620711    0.32863964140027313    0.28451068523095047    0.2613816144397138    0.2623951251623104    
  0.28403718754865864    0.3174581191280809    0.35262837714454487    0.38513828031548586    0.40959749674849777    
  0.41039643449975716    0.3786560461431765    0.3286401946035788    0.2845101955889376    0.2613814770383702    
  0.26239412693514036    0.2840363718156968    0.3174565658412522    0.36694246799982644    0.4046507026944851    
  0.4459176344025745    0.5109778914480213    0.5657608045637729    0.5477384042140349    0.4634342856888041    
  0.3700271162313445    0.3036738907253    0.27023437984797494    0.26239518084982805    0.2702345389165093    
  0.28443445724079014    0.2970212550073837    0.300240971868372    0.289212393725825    0.2674568823067684    
  0.24466188334793412    0.23290433750378717    0.2407121380497459    0.27023395951326856    0.3174565658412522    
  0.36531123977770025    0.4046506018049621    0.404704505962143    0.4237248838636533    0.5280833554613911    
  0.6773175112627182    0.717051661637856    0.6087731144268148    0.46191697988911    0.3504072782925586    
  0.28443434254916555    0.2522722327213087    0.24071287560175694    0.23955405874196384    0.24155769669350524    
  0.24068776506597242    0.233785115068451    0.22371248012346867    0.21770618808188982    0.225203355701846    
  0.2534344778124259    0.3036728077771494    0.36531123977770025    0.43399275498139045    0.4459172922935966    
  0.39597708561970746    0.38387914907105375    0.5001347631126605    0.7116974373712892    0.80749989330237    
  0.6953354521921068    0.5184036517953806    0.381168990689864    0.2970210674324625    0.2524365889736941    
  0.23290408073733598    0.22839257717290906    0.23276821268294884    0.23949256643829614    0.24277132221734302    
  0.24278046605722778    0.24689670157267962    0.26580513217001717    0.307057170826526    0.37002662703753325    
  0.43399275498139045    0.5187244832258212    0.5109780242710695    0.43992199196995285    0.41163515669945155    
  0.5112007667757665    0.6976977231747097    0.7783098059474832    0.6732683584999852    0.5084943636428232    
  0.3794940126438136    0.3002409102156475    0.2592891573031393    0.24466229828762365    0.24931406103071185    
  0.26900745293653333    0.29561307056537206    0.3176524587641633    0.3283383475305527    0.33438110365434753    
  0.353631909732903    0.3984789734398995    0.46343347244059585    0.5187244832258212    0.584314811214976    
  0.5657605816422304    0.5030952087328175    0.4710492389420381    0.5250363828087721    0.6203371203408559    
  0.6408501891303029    0.5562232127996328    0.4384421106388    0.3450847811496693    0.28921236850517845    
  0.265330003019023    0.2674565737262286    0.29420375618461764    0.3449333472856371    0.40919603941130034    
  0.46104862540311686    0.47342113477680814    0.45448879681089843    0.4505381276275933    0.4887614288787843    
  0.5477382270614773    0.584314811214976    0.584314886936609    0.5477386396517131    0.48876174473718653    
  0.45053835926360686    0.45448931437312073    0.4734211387857235    0.4610489240330838    0.4091955310268542    
  0.34493371854514404    0.2942031644254141    0.267457338891733    0.26532969745934787    0.2892133442239266    
  0.34508498717350633    0.43844350264802073    0.5562236246145376    0.6408513260617229    0.6203366872287248    
  0.5250356636107851    0.4710484156492994    0.5030946909940502    0.5657604383585294    0.584314886936609    
  0.5187247900191297    0.46343395172288    0.3984793185816133    0.35363229893216774    0.3343813220057243    
  0.3283389224386344    0.31765244667687237    0.29561370767759326    0.26900740787884925    0.24931504465051557    
  0.24466245014365115    0.2592905568583638    0.3002414014631476    0.37949600978374204    0.5084955011712782    
  0.6732710826400177    0.7783111243720745    0.6976977910462879    0.5111991933362547    0.41163377663507283    
  0.4399213683287087    0.5109777331937372    0.5187247900191297    0.43399313226275726    0.37002715885628096    
  0.307057424955683    0.2658054056639816    0.2468971133656667    0.24278054610187785    0.24277197860917096    
  0.23949281830936983    0.23276955093820542    0.22839290352672093    0.23290577067656193    0.2524372970084197    
  0.2970231922280109    0.3811704087489137    0.5184067249159217    0.6953379893422454    0.8075033663065261    
  0.7116974791097527    0.5001337099411929    0.38387772017353355    0.3959763319416841    0.44591744038159004    
  0.43399313226275726    0.36531195297844277    0.3036731861529258    0.2534347839550887    0.22520357572314767    
  0.21770632014326516    0.22371309918550947    0.23378545859089947    0.2406891082106712    0.2415585618642035    
  0.23955588738959321    0.24071394313000774    0.2522746541020019    0.2844357648852261    0.35041030597502126    
  0.4619191712096584    0.6087771766446615    0.7170546047786189    0.677319400885993    0.5280827364865744    
  0.42372418860423133    0.4047040984058666    0.4046508982481669    0.36531195297844277    0.3174571191522215    
  0.27023439676848376    0.24071243129195727    0.23290455009290612    0.24466231281454942    0.2674572987636762    
  0.2892136270645745    0.300241884820141    0.29702342473286697    0.2844358330018158    0.27023722389604665    
  0.2623968745200722    0.27023727495353367    0.30367576893517745    0.3700302951017723    0.46343694458731954    
  0.5477418766008555    0.5657625787146654    0.510978890569206    0.4459178748370553    0.4046511980429845    
  0.3669432705609385    0.3174571191522215    0.2840370029273357    0.2623943945041674    0.2613818370692547    
  0.28451054904513934    0.32864038344926705    0.3786569583471396    0.41039716227193335    0.40959920612510947    
  0.38513931695220066    0.3526309657689508    0.3174600230007104    0.2840402282851892    0.2623968058718989    
  0.26138446499973206    0.2845123580569244    0.3286422754285959    0.37865758581383413    0.41039749311895124    
  0.40959807080812277    0.3851379130970961    0.3526280667553362    0.31745720319691645    0.2840370029273357    
  0.26239430236347827    0.2702344788144935    0.30367338437404506    0.370027481184268    0.4634346628119056    
  0.5477395090766218    0.5657614408800599    0.5109775873678848    0.4459180077602776    0.40465202710891235    
  0.36694607585973993    0.3174600434493312    0.270237262287417    0.24071426068188523    0.23290615406251572    
  0.24466304025827995    0.26745768426263483    0.2892130945772507    0.300240917823665    0.29702135286006337    
  0.28443373924334203    0.2702344157541412    0.26239430236347827    0.2522722796646328    0.28443361002508927    
  0.3504073996583881    0.4619164369901304    0.6087734633637824    0.7170518145319736    0.6773161892656313    
  0.5280800474007931    0.42372114425257973    0.4047032122781944    0.40465216124231634    0.3653150131789151    
  0.30367552758779287    0.25343683262270783    0.22520442552392847    0.21770702730264138    0.22371291258602083    
  0.2337852892578383    0.24068799474825542    0.24155728175471897    0.2395539611216708    0.24071219891775503    
  0.2522722796646328    0.2524360075359228    0.29702109943074095    0.3811683062720261    0.5184033883607311    
  0.6953345072589263    0.8074992455899741    0.7116950153679815    0.500130591735549    0.3838750644492999    
  0.39597407524228634    0.44591842405558635    0.43399543213813574    0.3700298399042668    0.30705896276623845    
  0.26580646648034284    0.24689727223661748    0.24278068081867385    0.24277140245088497    0.23949225284374015    
  0.23276826586844518    0.22839203587009727    0.23290433315690245    0.2524360075359228    0.25928929853606747    
  0.3002404747954155    0.3794939939749859    0.5084934043804601    0.6732675593894057    0.7783087981024102    
  0.6976960261210092    0.5111986206664847    0.4116322377640508    0.439920834082549    0.510978613015113    
  0.5187277617410355    0.46343602811871837    0.39848139197462434    0.3536328277356349    0.33438184337631477    
  0.3283384014308811    0.3176521681492475    0.2956128057304633    0.2690068580676786    0.24931408758767137    
  0.2446617765959358    0.25928929853606747    0.2653293889665134    0.28921249377964864    0.34508412087892404    
  0.4384415832830913    0.5562218845226671    0.6408492305046489    0.6203362560922866    0.5250354888806767    
  0.4710490255680766    0.5030949807828407    0.5657625343454936    0.584316988786105    0.547741352609752    
  0.4887630682775607    0.45053950684718197    0.45448911983352996    0.47342117936833245    0.46104797706761436    
  0.40919510303003837    0.34493278686635304    0.2942028682753658    0.2674564977787555    0.2653293889665134    
  0.26532956329149054    0.2674566153224483    0.29420291927018083    0.34493283242303746    0.4091948373176547    
  0.4610477981752077    0.4734202353611779    0.45448909345000693    0.4505382988419021    0.4887626081736813    
  0.5477397192340583    0.5843173885353532    0.5657618156352503    0.5030962601895912    0.4710488982458729    
  0.525036621309463    0.6203363956511777    0.6408499486600805    0.5562220168472869    0.43844163972869377    
  0.34508406462659674    0.2892123102226999    0.26532956329149054    0.2592892982709224    0.2446619508515041    
  0.2493141548842893    0.26900690134395006    0.29561287916124596    0.31765163533562457    0.3283381076461686    
  0.3343805889983699    0.3536323534165626    0.39847932737317043    0.46343511310208557    0.5187255965882012    
  0.5109789052624776    0.43992125527817505    0.4116344298467008    0.511199671945419    0.6976977882209574    
  0.778308854700727    0.6732680049422336    0.5084932500020719    0.379493884473404    0.3002403314191062    
  0.2592892982709224    0.2524359252872744    0.23290414083229136    0.22839208065112404    0.23276840178960953    
  0.23949198140370884    0.24277127634800558    0.2427797199103388    0.24689676401642832    0.2658048353716118    
  0.307057829029388    0.3700271532301694    0.43399431758470897    0.44591726614330784    0.3959764382725621    
  0.38387727158943463    0.5001341379216396    0.7116967833499371    0.807500229033253    0.6953343665850897    
  0.5184032903772007    0.38116816961246913    0.29702101032429634    0.2524359252872744    0.2522720493872441    
  0.24071204315196512    0.23955386087495614    0.24155703390127092    0.24068771314400572    0.23378456551545768    
  0.22371233380428057    0.21770567510689534    0.22520357685595557    0.25343444352268685    0.30367391750741546    
  0.3653120591897967    0.40465157612141306    0.40470356683875    0.42372411479942385    0.5280821732003866    
  0.6773180472862107    0.7170516587964603    0.6087732427497472    0.46191602995270475    0.35040702787592787    
  0.2844335075695103    0.2522720493872441    0.26239401100834137    0.2702338845980918    0.284433293383701    
  0.29702080032871203    0.3002400569274858    0.28921219126593256    0.2674560925644028    0.24466189535498045    
  0.23290408378980632    0.240712699980374    0.27023442928495117    0.3174581412608964    0.366943321032698    
  0.4046517717893611    0.4459173851541066    0.5109786372470865    0.5657608847781102    0.5477392492862202    
  0.46343398406093456    0.37002709440970316    0.3036731183522416    0.2702340855831271    0.26239401100834137    
  0.2840363718156968    0.317456564523519    0.35262738395801535    0.385136978081759    0.4095970462128456    
  0.4103956484402121    0.3786557766620711    0.32863964140027313    0.28451068523095047    0.2613816144397138    
  0.2623951251623104    0.28403718754865864    0.3174581191280809    0.35262837714454487    0.38513828031548586    
  0.40959749674849777    0.41039643449975716    0.3786560461431765    0.3286401946035788    0.2845101955889376    
  0.2613814770383702    0.26239412693514036    0.2840363718156968    0.3011479153144992    0.36531153570467756    
  0.4193417307452911    0.45091200074097015    0.4615958774963089    0.4389447072301962    0.376588105449473    
  0.3031912429166697    0.25155449989717965    0.23430195526902567    0.25227242708208636    0.3011497664378308    
  0.36531226397985805    0.41934352373400036    0.4509118744169768    0.46159681264246855    0.4389439544298685    
  0.37658886463785374    0.3031905542807014    0.25155470246583117    0.23430091557455035    0.2522721449228151    
  0.3011479153144992    0.3526275573304806    0.40465054227427744    0.40470449388270835    0.3959769934111776    
  0.43992220329508663    0.5030947259684522    0.4887621601077205    0.39847912869385027    0.30705831988162785    
  0.25343475763073137    0.24071318766273042    0.26138195452232516    0.3036744082955347    0.3504075381041976    
  0.3811692710711819    0.3794938971667871    0.34508455197461396    0.29420285191022166    0.24931435408241484    
  0.22839200086981098    0.23955402730547481    0.28443324119706576    0.3526275573304806    0.41934165447438987    
  0.4047042737909085    0.29622953950688846    0.23183073167370047    0.294527563755529    0.4701213696289914    
  0.5781480428209621    0.5054454646502695    0.37549859086712567    0.28283205219238194    0.239554095123663    
  0.23430204352319203    0.25343473490632373    0.2828321135501402    0.30721398196267524    0.31181503480849676    
  0.2943910103104448    0.2666924669025529    0.2460562008278207    0.24819804737831525    0.28283091260170196    
  0.35040700088951765    0.41934165447438987    0.5186469490110226    0.42372445743835613    0.2318306327257566    
  0.14345735619815797    0.20082146689096003    0.42046173216392524    0.6237413022933536    0.5809865298139921    
  0.42780710325472215    0.3072140019134998    0.24155800497447788    0.2189734193694163    0.22520396984342897    
  0.24819785445746786    0.27703467041220164    0.29854037319246834    0.30448024862168965    0.2987397157655086    
  0.29732806632935743    0.3190011855333202    0.37549832345181916    0.4619155759795647    0.5186469490110226    
  0.6579515558946668    0.5280830357323728    0.29452751725533194    0.1825696929580989    0.23641006848235346    
  0.45097888370422656    0.6381922565991891    0.590234193822767    0.43643600327730997    0.31181514257842485    
  0.24068757207701824    0.21327549099580984    0.21770588311967298    0.24605697789841735    0.2912810547217507    
  0.3400607423773481    0.37585849900726165    0.38984835820407054    0.39661355336402204    0.4286605917060474    
  0.5054441283572966    0.6087726673190895    0.6579515558946668    0.779126251294671    0.6773171643839994    
  0.470121120624304    0.34476940949419654    0.3781298685172208    0.5198374224398142    0.5998280216549111    
  0.5285145423173228    0.3993039041234385    0.2943907583393541    0.23378523290568753    0.2123709038034268    
  0.22371307248283095    0.2666922281567642    0.3398317106276051    0.4276410422330121    0.49345202576233566    
  0.4979357771828856    0.46414714937329843    0.47655244066688507    0.5781483484767348    0.7170507651239174    
  0.779126251294671    0.7791262223590386    0.7170512347653254    0.5781481139489296    0.476552728663968    
  0.4641466923140685    0.49793607446876337    0.49345058288314864    0.4276409759675696    0.3398302040181141    
  0.26669253088163974    0.22371221057186946    0.21237177405204727    0.23378490812458605    0.2943926108215417    
  0.3993043427673393    0.5285168992171608    0.5998284384418767    0.5198383111294848    0.37812904902026556    
  0.3447693779095837    0.4701207153037203    0.6773176182334795    0.7791262223590386    0.6579522017436347    
  0.6087730738842037    0.5054446670657743    0.42866035275516995    0.396614181834108    0.38984780194681834    
  0.37585902136858    0.3400597660627216    0.2912817409387464    0.24605626860348898    0.21770687447962248    