#     DFTpy    
  CRYSTAL 
    
  PRIMVEC    
  1.4819621436049357    -2.566833727617434    0.0    
  1.4819621436049357    2.566833727617434    0.0    
  0.0    0.0    2.789531861793103    
  PRIMCOORD    
  1    1    
  Si    0.0    0.0    0.0    
  BEGIN_BLOCK_DATAGRID_3D    
  3d_datagrid_density    
  BEGIN_DATAGRID_3D#0    
  13    13    13    
  0.0    0.0    0.0    
  1.4819621436049357    -2.566833727617434    0.0    
  1.4819621436049357    2.566833727617434    0.0    
  0.0    0.0    2.789531861793103    
  0.06252914241886473    0.11661084217157495    0.28942021962979425    0.38932019882709173    0.3081077952036569    
  0.2183429872179641    0.18749436544707815    0.21834298329935994    0.3081078232686897    0.38932018218457226    
  0.289420218506096    0.11661084650116205    0.06252914241886473    0.11661083670939798    0.11647339921634488    
  0.23699224209119354    0.3786759739077547    0.3491282113100154    0.24645072766022694    0.18808620769756562    
  0.18804460906415202    0.2465011675441125    0.3490836886151212    0.37859908980304985    0.23700714469871034    
  0.11661083670939798    0.28942018875633263    0.2369922405325784    0.289711621652929    0.37856707997319056    
  0.36123941444706065    0.26336439171733084    0.18907360502884327    0.16469614480310799    0.1890734091936947    
  0.26334602508467014    0.36136601832553056    0.37859908783270885    0.28942018875633263    0.3893201709530263    
  0.37867597329605235    0.37856707408301843    0.38913290989596055    0.3490654254234512    0.2634794467610691    
  0.18950263666305087    0.15243833374039856    0.15241189665675234    0.18954603803673256    0.2633460107179353    
  0.3490837014170055    0.3893201709530263    0.30810782623412236    0.34912821984947734    0.36123942066823167    
  0.3490654362959836    0.3083191886280265    0.24648001612760512    0.18899158502521884    0.15242287669220256    
  0.14026840126012852    0.15241190784996378    0.18907339189117112    0.24650117914641664    0.30810782623412236    
  0.21834296907858405    0.24645073480860874    0.26336438333127205    0.263479438896838    0.24648000427316077    
  0.21816794949366367    0.18805979838476367    0.16477779906591372    0.15242287570255247    0.15243833359363576    
  0.1646961400425797    0.18804460974268208    0.21834296907858405    0.18749436293837934    0.18808618210241798    
  0.18907361253161412    0.1895026331650655    0.18899157901479532    0.18805980001869718    0.1876631291482527    
  0.1880597977725649    0.18899159291298342    0.18950263123561362    0.18907361611098006    0.1880861954962825    
  0.18749436293837934    0.2183429783624569    0.18804462096637717    0.16469616285041197    0.15243832732682394    
  0.1524228732340948    0.1647777843556303    0.18805980213598986    0.21816794625014221    0.24648001197022185    
  0.2634794240384011    0.2633643805323945    0.24645073427159336    0.2183429783624569    0.3081077949203697    
  0.2465011678721344    0.18907340465278125    0.15241189786141918    0.1402683870490317    0.1524228809425243    
  0.18899158405071234    0.2464800235477499    0.3083191869726057    0.3490654155072588    0.3612394017107108    
  0.3491281999289339    0.3081077949203697    0.3893201678919547    0.3490837087091575    0.26334601513701017    
  0.18954604209479078    0.15241188747311596    0.15243833004316612    0.1895026398037866    0.2634794431133867    
  0.34906543885222024    0.38913289807841206    0.37856705837746774    0.3786759875914985    0.3893201678919547    
  0.28942019822620507    0.3785990742267657    0.3613660075550597    0.26334602056564865    0.18907339862873135    
  0.1646961598375063    0.18907360205877133    0.26336440753515167    0.3612394299063665    0.37856707138460555    
  0.28971161611641344    0.2369922282819204    0.28942019822620507    0.11661082350145094    0.2370071599882362    
  0.37859908305802403    0.3490837094959329    0.24650115859399732    0.18804460550333993    0.18808619453357492    
  0.2464507252969897    0.3491282091966292    0.3786760110049414    0.2369922165494636    0.11647337390064388    
  0.11661082350145094    0.06252914241886473    0.11661084217157495    0.28942021962979425    0.38932019882709173    
  0.3081077952036569    0.2183429872179641    0.18749436544707815    0.21834298329935994    0.3081078232686897    
  0.38932018218457226    0.289420218506096    0.11661084650116205    0.06252914241886473    0.1104496952405047    
  0.17128057583661352    0.32656673902125377    0.3826440692921893    0.29123690464361307    0.2057095414507563    
  0.17695319130448367    0.20570952644118018    0.2912369383187396    0.3826440274725056    0.32656676380946775    
  0.1712805800948485    0.1104496952405047    0.17128057211563083    0.17110504196626167    0.2841363937950046    
  0.3852724589624469    0.3328224963647856    0.23230856554674534    0.1776350453499314    0.17759816904829948    
  0.23235286767663849    0.3327771376820526    0.38523806577001357    0.2841136301225055    0.17128057211563083    
  0.3265667325839508    0.2841363867418502    0.32683691565057044    0.38518492684676003    0.34621267141959056    
  0.24860345605499945    0.17877062284929557    0.15611131723389376    0.17876848338629664    0.24859780180501295    
  0.346286829018498    0.3852380840055141    0.3265667325839508    0.3826440357002199    0.38527248600159136    
  0.38518491501437174    0.382482765546696    0.3327810742494106    0.24868287980114498    0.17926766851516762    
  0.14472285803079896    0.14470794061625    0.17929238528475816    0.24859779244985705    0.3327771618123944    
  0.3826440357002199    0.29123692346125657    0.33282252282238256    0.34621269194132376    0.33278109739702655    
  0.2914043820932559    0.23232836942560534    0.17871492995017352    0.14471369088279262    0.13334831661317073    
  0.144707948189723    0.17876848814750138    0.23235286661247329    0.29123692346125657    0.20570953521391336    
  0.232308584837447    0.24860345907670997    0.2486828893309628    0.23232835775920882    0.20557376581535608    
  0.17761393309959164    0.1561660183885935    0.14471368711209892    0.14472287380893997    0.15611132407244363    
  0.1775981611244808    0.20570953521391336    0.1769531957226643    0.17763502280331414    0.1787706233482171    
  0.1792676741208046    0.17871493116743573    0.17761394217086363    0.1770832151489862    0.17761392675314944    
  0.17871493353222978    0.17926766197649302    0.17877062307394742    0.1776350363080803    0.1769531957226643    
  0.20570953128573058    0.1775981713829899    0.15611133183776302    0.14472286036946996    0.1447136732016527    
  0.1561660235162615    0.17761394367893849    0.2055737897726399    0.23232838455050572    0.24868288407475894    
  0.24860343539882931    0.2323085793493897    0.20570953128573058    0.2912369040283636    0.23235286960837104    
  0.17876849008515666    0.14470794821925945    0.13334830039140821    0.14471369350312568    0.17871493694764498    
  0.23232837511531243    0.29140440807905227    0.33278109770957837    0.3462126709156506    0.3328224851351612    
  0.2912369040283636    0.3826440104902972    0.3327771717528381    0.248597812376044    0.1792923888427628    
  0.14470793572524993    0.1447228687259827    0.17926766371927624    0.24868288578488262    0.33278111307879393    
  0.3824827510057229    0.38518491317793635    0.3852724934549024    0.3826440104902972    0.32656675932023194    
  0.3852380861565119    0.3462868172699016    0.2485978149692704    0.17876846922252784    0.15611132135710645    
  0.17877063163398033    0.24860345542667445    0.34621270981620067    0.3851849100500979    0.3268369089543849    
  0.28413639633365406    0.32656675932023194    0.1712805597191048    0.2841136579339158    0.3852380931029271    
  0.33277715895874155    0.23235285594716865    0.1775981733318347    0.17763502538089662    0.23230857224834214    
  0.3328225035566961    0.3852724868099688    0.2841363865935633    0.17110500987588978    0.1712805597191048    
  0.1104496952405047    0.17128057583661352    0.32656673902125377    0.3826440692921893    0.29123690464361307    
  0.2057095414507563    0.17695319130448367    0.20570952644118018    0.2912369383187396    0.3826440274725056    
  0.32656676380946775    0.1712805800948485    0.1104496952405047    0.27344683877384457    0.31927856264371157    
  0.38479060114424335    0.34731239253418694    0.24629682174528386    0.17405557575704073    0.15079116100068019    
  0.17405557258851012    0.24629683224092533    0.3473123794573188    0.3847906229468124    0.31927856651057274    
  0.27344683877384457    0.3192785647976407    0.3191604603931795    0.3739547572884214    0.3734923006405462    
  0.28533071524620135    0.19614442915113076    0.1514199532421498    0.15140912569269055    0.19615931716062843    
  0.28531211970833903    0.37348955830153563    0.37392671943271144    0.3192785647976407    0.38479061145661114    
  0.3739547720188923    0.3849162597558588    0.37345638479237364    0.2995792915095992    0.21005373866092575    
  0.15260198452561802    0.1343029453514813    0.1525978670591949    0.2100581909313267    0.29959301699375707    
  0.3734895145584196    0.38479061145661114    0.3473123768681864    0.3734922847111579    0.3734563682498834    
  0.3472500288789222    0.2853202204458584    0.2100809190236007    0.15316413719520783    0.1251761070348087    
  0.12517513369567151    0.15316864607140435    0.2100581878849265    0.28531210758615516    0.3473123768681864    
  0.24629682785152093    0.2853307316613958    0.2995792897788173    0.2853202493844715    0.24635632178325295    
  0.19614704389644683    0.15258322558430495    0.1251761953192554    0.11592993990552844    0.1251751407426432    
  0.15259785022093295    0.19615930624351344    0.24629682785152093    0.1740555570328342    0.1961444528874931    
  0.2100537106518121    0.21008091942223664    0.1961470351796105    0.17400961949014312    0.15141598140429371    
  0.13431751897494873    0.1251761977179902    0.12517610601192264    0.13430295833379685    0.1514091151872434    
  0.1740555570328342    0.15079117794535088    0.15141994210377394    0.15260199095346014    0.1531641451036122    
  0.1525832007909734    0.1514159758660035    0.15083259795758827    0.15141596000299365    0.1525832083944389    
  0.15316414338679507    0.15260199743458208    0.1514199500491016    0.15079117794535088    0.17405557676685582    
  0.15140913904220166    0.13430296472518458    0.1251761098102524    0.1251761919085532    0.13431750719790275    
  0.15141597750485425    0.17400964112718528    0.19614704827815457    0.21008091254088035    0.2100537064047505    
  0.19614443894800337    0.17405557676685582    0.24629680372673038    0.19615931950653925    0.15259787147547726    
  0.1251751307392079    0.11592992980323069    0.12517620441464278    0.15258320464536834    0.19614705454629455    
  0.24635633449591066    0.2853202389550989    0.2995792599931538    0.2853307134908844    0.24629680372673038    
  0.3473123741834347    0.285312137767517    0.210058187316501    0.15316863865771776    0.12517512481250723    
  0.12517611142239782    0.15316414438516393    0.2100809144171215    0.2853202551581555    0.347250013412679    
  0.37345638915459306    0.3734923367254569    0.3473123741834347    0.38479060408067833    0.37348954113395977    
  0.29959303022074196    0.21005819330222436    0.15259785498127315    0.13430295386490537    0.15260198996189833    
  0.2100537167918294    0.29957930014743966    0.37345635724426407    0.384916271995328    0.3739547755551455    
  0.38479060408067833    0.3192785497376569    0.3739267426615843    0.37348953178546557    0.28531211239564525    
  0.1961593027188844    0.1514091298961215    0.15141994266705402    0.19614443992075362    0.2853307188336711    
  0.37349230874399186    0.37395476461664146    0.31916039558140885    0.3192785497376569    0.27344683877384457    
  0.31927856264371157    0.38479060114424335    0.34731239253418694    0.24629682174528386    0.17405557575704073    
  0.15079116100068019    0.17405557258851012    0.24629683224092533    0.3473123794573188    0.3847906229468124    
  0.31927856651057274    0.27344683877384457    0.4086008397495922    0.4049365947719038    0.36526715098248663    
  0.2779626340745614    0.19042134362673008    0.1368283245907243    0.11992986785508729    0.13682831805086557    
  0.1904213560837701    0.2779626120922274    0.3652671438324378    0.40493660279224264    0.4086008397495922    
  0.40493658813167493    0.40491777261401657    0.3815057839621661    0.31169386801615834    0.22120307857304344    
  0.15301709036323952    0.12037186608563595    0.12037187722387452    0.15301942434214005    0.22120015493882875    
  0.31169496808971586    0.3814964500578269    0.40493658813167493    0.365267107305994    0.38150581384053556    
  0.3652822619291349    0.31168600913949934    0.2331654923391394    0.16335475597634008    0.12137982418270978    
  0.10802709547885633    0.12137683438702256    0.16335664046141943    0.23316396520070376    0.31169495417880894    
  0.365267107305994    0.2779625972467646    0.31169387217471395    0.3116859970804054    0.27796289574259603    
  0.22120147723242345    0.16335906262649139    0.12193513706555698    0.10157041346149011    0.10157088055368495    
  0.12193715204717955    0.16335663044058188    0.22120015067109064    0.2779625972467646    0.19042135619013983    
  0.22120309603990504    0.23316547288010028    0.22120148851670565    0.1904236320587947    0.15301726172803914    
  0.12137690230259361    0.10157104206830209    0.09487549359905345    0.10157088776361393    0.12137682594119699    
  0.15301943960776662    0.19042135619013983    0.13682830218846428    0.15301710857106227    0.16335474902989303    
  0.16335905867311756    0.15301723899945657    0.13682677083012787    0.12037163900727305    0.1080284152332724    
  0.10157104138720245    0.1015704183528132    0.10802708515164329    0.12037188295901934    0.13682830218846428    
  0.11992986664691796    0.12037185473774764    0.12137982092567176    0.12193513659802784    0.12137689793074574    
  0.12037164902097978    0.11993217084389467    0.12037162915157226    0.12137689593876809    0.12193513775203861    
  0.12137981824324069    0.12037186387694385    0.11992986664691796    0.13682831202952586    0.1203718886672844    
  0.10802710727337898    0.10157041309135575    0.10157103979749559    0.10802841053562784    0.12037163957483132    
  0.1368267780717034    0.15301725872792227    0.16335905485796828    0.16335475138242822    0.1530170986159205    
  0.13682831202952586    0.1904213392703737    0.15301943476413968    0.12137683170537693    0.10157088025350135    
  0.0948754878354844    0.10157104823376614    0.12137689518337108    0.1530172526393623    0.19042362004900534    
  0.2212014804813356    0.2331654675008707    0.22120307110222237    0.1904213392703737    0.2779625906460487    
  0.22120016065965586    0.16335663651154164    0.12193715364091642    0.10157087238883689    0.10157041554032588    
  0.12193513435318196    0.16335907089943533    0.22120148880207297    0.2779628853446788    0.31168599228631116    
  0.31169388804453196    0.2779625906460487    0.36526713580478026    0.3116949600181685    0.23316396463362493    
  0.16335663793749056    0.12137682843641695    0.10802709700901622    0.12137981693171195    0.16335477151930458    
  0.2331654897226215    0.311686021107526    0.3652822584652711    0.38150579813020297    0.36526713580478026    
  0.4049365867754007    0.38149648739593905    0.31169497004635516    0.22120014330933258    0.15301942882990446    
  0.1203718735646948    0.12037186919523397    0.1530170887081785    0.22120307351297894    0.31169389291771604    
  0.3815057964536019    0.40491771787052633    0.4049365867754007    0.4086008397495922    0.4049365947719038    
  0.36526715098248663    0.2779626340745614    0.19042134362673008    0.1368283245907243    0.11992986785508729    
  0.13682831805086557    0.1904213560837701    0.2779626120922274    0.3652671438324378    0.40493660279224264    
  0.4086008397495922    0.3691958645660947    0.34591463669435263    0.2829593996150838    0.20553567692112812    
  0.1425376100902596    0.10556537135123528    0.0937886599618684    0.10556536432712604    0.1425376186957954    
  0.20553565483079653    0.28295941420305476    0.3459146189459622    0.3691958645660947    0.3459146128541168    
  0.3459175725342605    0.30260364042635207    0.23241740754546875    0.16403082473673936    0.11677143343997701    
  0.094140558589826    0.0941407727267923    0.11677293210181258    0.16403039745341666    0.232415734774118    
  0.3026050732357801    0.3459146128541168    0.2829593775252743    0.3026036452755267    0.2829580897874719    
  0.23241717931004233    0.17250984697095012    0.12390844007913802    0.0949550907447186    0.08559925575579742    
  0.09495387243568669    0.12390643955734207    0.17251251866610065    0.2324157286986286    0.2829593775252743    
  0.20553565808618543    0.23241741171614833    0.23241717329851966    0.20553738411615893    0.1640304199691805    
  0.12390757641371922    0.09541405595770196    0.08123297959553231    0.08123184990735104    0.09541727437768144    
  0.12390641934463939    0.16403041354653827    0.20553565808618543    0.14253762287882074    0.1640308392034612    
  0.1725098561696122    0.16403044412578222    0.14253596730155796    0.11677328416824825    0.09495513660679968    
  0.08123212858079024    0.07660221641305708    0.08123185283246592    0.09495387879206817    0.11677293184075081    
  0.14253762287882074    0.10556535981996869    0.11677143592182601    0.12390843808296301    0.12390759432781942    
  0.11677326569371049    0.10556539657333484    0.09413898266752545    0.08560026096464837    0.08123212005338591    
  0.08123297983358382    0.08559925569821084    0.09414076039675436    0.10556535981996869    0.09378866161640032    
  0.094140543025363    0.09495509282547311    0.09541406656325217    0.09495513546328091    0.09413898227314196    
  0.09379146322782009    0.0941389809814768    0.09495513823876432    0.0954140593246251    0.09495509997880061    
  0.09414055550687088    0.09378866161640032    0.10556536420617209    0.09414078060660046    0.08559926712527276    
  0.08123297639960193    0.08123211597920638    0.08560025864671246    0.0941389865994335    0.10556540781088264    
  0.11677328806369193    0.12390758406911108    0.12390842007355042    0.11677144085299367    0.10556536420617209    
  0.14253759729479235    0.11677292934790177    0.09495387536792711    0.08123185308517279    0.07660220260298328    
  0.08123212959779595    0.09495514123932185    0.11677329012028988    0.14253597815609836    0.1640304432577331    
  0.17250984577563974    0.16403082747034378    0.14253759729479235    0.20553564493805512    0.1640304120238328    
  0.1239064408762763    0.09541727819764866    0.08123184667980798    0.08123297793113843    0.0954140492706221    
  0.12390758974905569    0.16403044859608745    0.20553738467487856    0.23241718464491035    0.23241742610104407    
  0.20553564493805512    0.28295939813684373    0.23241574111245475    0.17251252232568082    0.12390643721946722    
  0.09495386625045034    0.08559926134009331    0.09495510556489883    0.12390844360039918    0.172509859863549    
  0.23241718246253315    0.2829581012944676    0.30260364986575955    0.28295939813684373    0.3459145958235787    
  0.30260511378981586    0.23241574093725176    0.164030406442664    0.11677292632904257    0.09414077255576456    
  0.09414054917698782    0.1167714355958372    0.16403082749435288    0.2324174174510507    0.30260364993579464    
  0.3459175257298718    0.3459145958235787    0.3691958645660947    0.34591463669435263    0.2829593996150838    
  0.20553567692112812    0.1425376100902596    0.10556537135123528    0.0937886599618684    0.10556536432712604    
  0.1425376186957954    0.20553565483079653    0.28295941420305476    0.3459146189459622    0.3691958645660947    
  0.28684594507715244    0.2663567069938147    0.215745190596206    0.15817797608103465    0.11270401640587759    
  0.0860258140612016    0.07744638955894086    0.08602580851943176    0.11270402378475822    0.15817797628219174    
  0.21574520935945446    0.2663567073763748    0.28684594507715244    0.26635670798279343    0.26635699279420305    
  0.23099403319706957    0.1778466819571519    0.12816835422039577    0.09414779823872133    0.07774174490265978    
  0.07774346530329296    0.09414671473659622    0.12816976794986487    0.17784453846334625    0.23099590778389076    
  0.26635670798279343    0.2157451857487682    0.23099405761164332    0.21574714711176735    0.17784467120192426    
  0.1342711759016158    0.09922707225432116    0.07829983151447785    0.07150847169745236    0.07829910328854597    
  0.09922664133616868    0.13427192857731637    0.17784450925009995    0.2157451857487682    0.158177958869018    
  0.17784666539989766    0.17784467120447664    0.1581780546253873    0.12816845827000597    0.0992284512863666    
  0.07856223637846237    0.06828766624723034    0.06828694203763733    0.07856421967711417    0.09922663187437471    
  0.12816977201062893    0.158177958869018    0.11270403047683433    0.1281683542544321    0.1342711904046052    
  0.12816846524144546    0.11270538097370289    0.0941468403007347    0.07829924643187702    0.06828738886747544    
  0.06493800791608847    0.06828694798202418    0.07829910057422343    0.09414672156005162    0.11270403047683433    
  0.08602580483956165    0.09414780913107246    0.09922706089435779    0.09922845377641047    0.09414683735897303    
  0.08602518425569942    0.07774251280791263    0.07150886937718198    0.06828738599267821    0.06828766687389609    
  0.07150847605150301    0.07774345812660688    0.08602580483956165    0.07744639811022842    0.07774173990008754    
  0.07829983794320057    0.07856224237504565    0.07829923661027124    0.07774251408618997    0.07744736726288172    
  0.07774250325141838    0.07829923718427918    0.0785622457694328    0.07829983769319508    0.07774174316193311    
  0.07744639811022842    0.08602581061253603    0.07774346889900723    0.07150849123451852    0.06828766779410995    
  0.06828738724322794    0.07150886313579616    0.07774251821205265    0.08602518842063016    0.09414684054415426    
  0.0992284474891638    0.09922705012690529    0.09414780511301743    0.08602581061253603    0.1127040220246292    
  0.09414672423753533    0.07829910683001284    0.06828694146670498    0.06493800098291912    0.0682873932596964    
  0.07829923660558137    0.09414683880280356    0.11270539790853032    0.1281684699198431    0.1342711731791075    
  0.1281683463855054    0.1127040220246292    0.15817796370048062    0.12816977329347654    0.0992266432367679    
  0.07856422112164407    0.06828693955672308    0.0682876682615293    0.07856224540635322    0.09922845467473512    
  0.12816846327861076    0.158178045274814    0.1778446720645305    0.17784670008562517    0.15817796370048062    
  0.21574519067557701    0.1778445343958804    0.1342719313405758    0.09922664157871748    0.07829909592812598    
  0.07150847498328274    0.07829983388288486    0.09922706676479479    0.13427118862333118    0.1778446646352288    
  0.21574716175310382    0.23099405514122814    0.21574519067557701    0.2663566833194495    0.2309959234093939    
  0.17784452570462014    0.12816976105010483    0.09414670930009333    0.07774346492600423    0.07774173542106828    
  0.09414779175859424    0.12816835418822958    0.17784667902111034    0.23099405704017925    0.26635694702132406    
  0.2663566833194495    0.28684594507715244    0.2663567069938147    0.215745190596206    0.15817797608103465    
  0.11270401640587759    0.0860258140612016    0.07744638955894086    0.08602580851943176    0.11270402378475822    
  0.15817797628219174    0.21574520935945446    0.2663567073763748    0.28684594507715244    0.25504356015933416    
  0.23696953945409643    0.19280046647995638    0.14266474966183    0.10288578161034942    0.07953931526064315    
  0.07203732370962976    0.07953931186516097    0.10288579234141922    0.14266474190955622    0.19280046579900115    
  0.23696953339001461    0.25504356015933416    0.23696951959930404    0.23696893750854073    0.20607022787727783    
  0.15982428594011736    0.1164238856768453    0.08663613648096143    0.07229950516165837    0.07230078516009583    
  0.08663539793491713    0.1164238648758741    0.15982485538538374    0.20606992451703068    0.23696951959930404    
  0.19280043567100175    0.206070219991942    0.19280097154214168    0.15982521430098043    0.12176039813539603    
  0.0910201054253511    0.07271496193078442    0.06680591277238085    0.07271442239349704    0.09102073511055572    
  0.12175977091177424    0.15982484793795185    0.19280043567100175    0.1426647365451317    0.159824284119301    
  0.15982521475708342    0.1426627581193263    0.11642490401000086    0.0910199217243597    0.07287217535542412    
  0.06392617520396952    0.06392585864573908    0.07287214672417888    0.09102072715616688    0.11642387525654256    
  0.1426647365451317    0.10288579479973992    0.1164238851561197    0.12176039848177793    0.11642491512389519    
  0.10288613414300753    0.08663510782881563    0.07271574113364843    0.06392496596742137    0.06101253494266581    
  0.06392586688551574    0.07271441411243819    0.08663540279974082    0.10288579479973992    0.07953929916922767    
  0.08663614505971097    0.09102009845633514    0.09101991500106796    0.08663510145140253    0.0795403371521162    
  0.07229851074123006    0.06680756708969238    0.06392496241971782    0.06392617612170286    0.06680590826943261    
  0.07230077936899033    0.07953929916922767    0.07203731817066716    0.07229949163937645    0.0727149678608922    
  0.07287217592159688    0.07271574167675818    0.0722985135356404    0.07203953419375154    0.07229851039024639    
  0.07271574335942191    0.07287217460314573    0.07271497113173749    0.07229950073372239    0.07203731817066716    
  0.07953930545873349    0.07230079025138868    0.06680592404668038    0.06392617192409651    0.06392496582570835    
  0.06680755782879837    0.07229851266122662    0.07954033808838314    0.0866351035066551    0.09101990941500578    
  0.09102009570850904    0.08663614436003851    0.07953930545873349    0.10288577670257848    0.08663539911873314    
  0.07271442155168995    0.06392585583462965    0.06101252938072804    0.06392496604431479    0.07271573700132689    
  0.08663511178765987    0.10288612902265233    0.11642490708674963    0.12176039092672272    0.1164238765562658    
  0.10288577670257848    0.1426647359856867    0.11642387967097088    0.09102073039046683    0.07287214797790069    
  0.06392585415747004    0.06392617249698063    0.07287217839978993    0.0910199216332857    0.11642491000373645    
  0.14266275093880448    0.15982520857545465    0.15982430273447534    0.1426647359856867    0.19280045074620394    
  0.15982484470443137    0.12175976577466621    0.09102073186586153    0.07271442148963264    0.06680592124302233    
  0.07271496216393729    0.09102011158357812    0.12176040308897944    0.15982521808075437    0.19280098296825546    
  0.20607021906447992    0.19280045074620394    0.23696950460287286    0.20606994501413098    0.15982484769468594    
  0.1164238741314662    0.08663539071976092    0.07230077892990994    0.07229949710315861    0.08663613581175152    
  0.11642387797030428    0.159824312361381    0.20607020625411113    0.23696888627010332    0.23696950460287286    
  0.25504356015933416    0.23696953945409643    0.19280046647995638    0.14266474966183    0.10288578161034942    
  0.07953931526064315    0.07203732370962976    0.07953931186516097    0.10288579234141922    0.14266474190955622    
  0.19280046579900115    0.23696953339001461    0.25504356015933416    0.28684592295756944    0.2663567077413844    
  0.21574518888228753    0.1581779852180767    0.11270402154738629    0.08602581381832    0.07744639495063302    
  0.08602580660296451    0.11270403435121307    0.15817796610617565    0.21574521421005355    0.2663567095026567    
  0.28684592295756944    0.2663566984528209    0.26635698423120235    0.2309940435017018    0.17784667235363882    
  0.12816834980037814    0.09414779721940152    0.07774174785516295    0.07774346832435146    0.09414672225186473    
  0.1281697618250102    0.17784451428570133    0.23099591232427522    0.2663566984528209    0.21574517649297473    
  0.23099404960388703    0.2157471502339078    0.17784466899874216    0.13427116816011156    0.09922706854473022    
  0.07829983276817148    0.07150847993669751    0.07829910033050086    0.09922663675376639    0.1342719377420494    
  0.1778445218945399    0.21574517649297473    0.15817797118520205    0.17784668154039884    0.1778446630796881    
  0.15817804980457909    0.12816844133676622    0.09922844478659175    0.07856224019150815    0.06828766315550096    
  0.0682869414658936    0.07856421931405713    0.09922662818872546    0.12816977514830513    0.15817797118520205    
  0.11270402692147169    0.128168364563577    0.13427118094771665    0.1281684613065278    0.11270538601678864    
  0.09414684071507248    0.07829923732126827    0.0682873921224664    0.06493800979090514    0.0682869490469271    
  0.07829910880156478    0.09414672231459281    0.11270402692147169    0.08602580639000593    0.09414780947356227    
  0.09922706986289274    0.099228447542473    0.09414682937967203    0.08602517381235085    0.07774251190866027    
  0.07150886468660292    0.06828738356069941    0.06828767537275095    0.07150847996801887    0.07774345711143307    
  0.08602580639000593    0.07744639787907216    0.07774173528461208    0.0782998332705476    0.07856224416520892    