#     DFTpy    
  CRYSTAL 
    
  PRIMVEC    
  12.68137754101859    2.3591324413793104e-09    -7.660017103448274e-10    
  2.3591324413793104e-09    12.681377543874396    -2.2098597793103447e-09    
  -7.660017103448274e-10    -2.2098597793103447e-09    12.68137754466946    
  PRIMCOORD    
  63    1    
  Si    3.170344444983554    2.77792100309436e-08    3.1703443210440883    
  Si    9.511033215492848    2.895877625163325e-08    3.170344320661087    
  Si    3.17034444616312    6.340688799716408    3.1703443199391583    
  Si    9.511033216672413    6.340688800895972    3.170344319556157    
  Si    3.1703444446005538    2.6674280141288425e-08    9.511033093378817    
  Si    9.511033215109846    2.7853846361978074e-08    9.511033092995817    
  Si    3.17034444578012    6.3406887986114775    9.51103309227389    
  Si    9.511033216289412    6.340688799791043    9.511033091890889    
  Si    1.5851721918442263    1.5851721108136345    1.5851721316421141    
  Si    7.9258609623535206    1.5851721119932005    1.5851721312591136    
  Si    1.5851721930237925    7.925860882750832    1.5851721305371846    
  Si    7.925860963533087    7.9258608839303974    1.585172130154184    
  Si    1.5851721914612258    1.5851721097087046    7.9258609039768455    
  Si    7.925860961970519    1.5851721108882704    7.925860903593844    
  Si    1.5851721926407918    7.925860881645901    7.925860902871915    
  Si    7.925860963150086    7.925860882825466    7.925860902488915    
  Si    3.170344462256725    3.170344363001172    4.0104812422307057e-08    
  Si    9.511033232766017    3.1703443641807385    3.972181156713464e-08    
  Si    3.170344463436291    9.51103313493837    3.899988253265188e-08    
  Si    9.511033233945582    9.511033136117938    3.861688167747946e-08    
  Si    3.170344461873724    3.170344361896242    6.340688812439542    
  Si    9.511033232383015    3.170344363075808    6.340688812056541    
  Si    3.1703444630532904    9.51103313383344    6.340688811334612    
  Si    9.511033233562582    9.511033135013006    6.340688810951612    
  Si    1.585172196092548    4.755516637161716    4.755516644375453    
  Si    7.925860966601841    4.755516638341283    4.755516643992452    
  Si    1.5851721972721144    11.09620540909891    4.755516643270523    
  Si    7.925860967781408    11.09620541027848    4.755516642887522    
  Si    1.5851721957095473    4.755516636056786    11.096205416710182    
  Si    7.925860966218841    4.755516637236353    11.096205416327182    
  Si    1.5851721968891137    11.096205407993981    11.096205415605253    
  Si    7.925860967398407    11.096205409173548    11.096205415222252    
  Si    6.34068871409054    3.187218252774668e-08    6.080191295905625e-08    
  Si    12.681377485779402    6.340688804988948    5.9313982214228666e-08    
  Si    6.340688715270106    6.34068880380938    5.969698306940109e-08    
  Si    12.681377484216833    3.194681885878117e-08    6.340688832753641    
  Si    6.340688713707539    3.076725263809151e-08    6.340688833136642    
  Si    12.681377485396402    6.340688803884017    6.340688831648713    
  Si    6.340688714887105    6.34068880270445    6.340688832031713    
  Si    4.75551658161915    1.585172153833438    4.755516637073678    
  Si    11.096205352128443    1.585172155013004    4.755516636690679    
  Si    4.755516582798717    7.925860925770635    4.75551663596875    
  Si    11.096205353308008    7.925860926950201    4.7555166355857486    
  Si    4.755516581236149    1.5851721527285083    11.09620540940841    
  Si    11.096205351745441    1.585172153908074    11.09620540902541    
  Si    4.755516582415716    7.925860924665706    11.096205408303481    
  Si    11.096205352925008    7.925860925845271    11.09620540792048    
  Si    12.681377462992174    3.170344352216699    3.170344347136587    
  Si    6.34068869248288    3.1703443510371323    3.1703443475195874    
  Si    12.681377464171739    9.511033124153895    3.1703443460316567    
  Si    6.340688693662445    9.51103312297433    3.170344346414658    
  Si    12.681377462609168    3.170344351111769    9.511033119471318    
  Si    6.340688692099877    3.1703443499322024    9.511033119854316    
  Si    12.681377463788737    9.511033123048966    9.511033118366388    
  Si    6.340688693279445    9.511033121869401    9.511033118749388    
  Si    4.75551657156654    4.75551664289615    1.5851721292127507    
  Si    11.096205342075834    4.7555166440757155    1.58517212882975    
  Si    4.755516572746107    11.096205414833344    1.585172128107821    
  Si    11.096205343255402    11.09620541601291    1.58517212772482    
  Si    4.75551657118354    4.755516641791219    7.925860901547481    
  Si    11.096205341692832    4.755516642970784    7.925860901164481    
  Si    4.755516572363106    11.096205413728416    7.92586090044255    
  Si    11.096205342872398    11.096205414907983    7.925860900059551    
  BEGIN_BLOCK_DATAGRID_3D    
  3d_datagrid_density    
  BEGIN_DATAGRID_3D#0    
  55    55    55    
  0.0    0.0    0.0    
  12.68137754101859    2.3591324413793104e-09    -7.660017103448274e-10    
  2.3591324413793104e-09    12.681377543874396    -2.2098597793103447e-09    
  -7.660017103448274e-10    -2.2098597793103447e-09    12.68137754466946    
  0.014196090201066713    0.014480438901965289    0.015293394657822404    0.01651648634350138    0.01796670471307555    
  0.01938582109229733    0.020507874129144895    0.021110281477611858    0.02115790628979103    0.02080209728845064    
  0.020278991057154628    0.01979949041924481    0.019519108954605662    0.01953543152251161    0.019888548274280854    
  0.02064176859714537    0.022005467097427844    0.024501388425016698    0.029307429394174668    0.038936534319557514    
  0.05899559980650563    0.10092876231600381    0.1845387336374934    0.3209333919499624    0.4221939344007469    
  0.3124138052838086    0.13295999388422594    0.0764843021151626    0.13296004798595576    0.31241390327562985    
  0.4221940394023634    0.32093333315577677    0.1845386350934085    0.100928736267745    0.05899556575361186    
  0.03893654323128457    0.02930744082664027    0.024501354415020594    0.0220054728213312    0.02064176417123407    
  0.019888555423648906    0.019535419400508996    0.01951909039116324    0.019799498594485997    0.0202790054924425    
  0.020802072319412758    0.02115789814035728    0.021110284389380438    0.02050786716507369    0.019385837197250413    
  0.01796667537196315    0.016516465012566376    0.015293397684971186    0.014480432566865506    0.014196090201066713    
  0.014480448438774753    0.014800632155253773    0.01572365617514871    0.017117858395539084    0.01877011367209129    
  0.020381877475318354    0.02163686841859872    0.02226614737378984    0.022226718716086717    0.021694554200755122    
  0.020957452293164168    0.02027653931748001    0.019840174362189274    0.019767145502313187    0.02011553762680186    
  0.02094201086229754    0.022437975358613797    0.02508344640156326    0.03000291993395159    0.03955514139029142    
  0.058983656894931014    0.0988128433449146    0.177176928510744    0.30655902106813954    0.42062507472649785    
  0.358708767530322    0.19623744546205746    0.13304509317832885    0.19623754993235745    0.35870880111727416    
  0.4206250957649017    0.3065590668295795    0.17717687495333395    0.09881275452781021    0.05898362140415324    
  0.0395551588444123    0.030002941245163974    0.02508341145291075    0.022437969993045634    0.02094202186347946    
  0.020115556051362983    0.019767150761718234    0.019840174890727477    0.02027654207960211    0.02095747886752292    
  0.021694538740594443    0.022226698654619206    0.02226614698685547    0.02163687719629531    0.020381889704947257    
  0.018770115811278375    0.017117860496994035    0.01572366177942067    0.014800626014766137    0.014480448438774753    
  0.01529340591544271    0.015723657451509516    0.016964741702909267    0.01886333484292472    0.02114809766452186    
  0.023375751119119888    0.025042140764599995    0.02575763342765133    0.02545239694254427    0.02439706816363564    
  0.02302771222136366    0.021764675435525037    0.02089331309260377    0.020582519604776035    0.020915687485293166    
  0.02194343351771784    0.02380037350774824    0.026880357441715724    0.03211445276153595    0.04144743333884509    
  0.05911477672859872    0.09332244566563175    0.1577233373317118    0.26483525239500577    0.38812755972358665    
  0.42797359948805475    0.35917280398285845    0.31299541772421735    0.3591729429140953    0.4279736958709721    
  0.38812749521150236    0.26483529230561725    0.15772329635149607    0.09332240128921213    0.05911475135088277    
  0.04144745477685966    0.032114447209421866    0.02688035816807722    0.0238003747935276    0.021943429246308304    
  0.02091570502727839    0.020582524483810857    0.020893318514554858    0.02176466197033165    0.02302773511641502    
  0.024397069354069288    0.02545236666605378    0.025757644380834024    0.025042124761633974    0.023375771646525476    
  0.021148071158461082    0.01886332679448001    0.016964721220710546    0.015723652878193717    0.01529340591544271    
  0.016516493423744165    0.017117884119589418    0.018863333983441744    0.021592727087177854    0.02494448563441577    
  0.028232361739919193    0.030643003101134957    0.031547861828570896    0.030834897253180327    0.02894121055731448    
  0.02658129765563061    0.024433094939689596    0.02293079088364086    0.02229145963622373    0.02260794218314758    
  0.023911846300252688    0.026293738285634097    0.030013711860374815    0.03570877582263195    0.0446970495976874    
  0.059813349644296084    0.08638230849268039    0.13261125793183598    0.2068742023393407    0.3043361658833555    
  0.3886502479252338    0.4216819191098851    0.4234522995871769    0.42168193431361833    0.38865021518866877    
  0.3043359787383406    0.20687425867227383    0.13261118041023118    0.08638231468835388    0.059813324864874194    
  0.044697079887993416    0.035708805888785035    0.03001369093114143    0.026293722167240602    0.023911847488263197    
  0.022607917370791302    0.022291466170375418    0.02293080048252885    0.024433090034821865    0.026581295842155753    
  0.02894118776709266    0.030834869833331363    0.03154785078598982    0.030643009135290385    0.02823237923715835    
  0.02494446970733182    0.021592721891773484    0.01886333403921639    0.017117861018607024    0.016516493423744165    
  0.017966698146005662    0.018770104596995206    0.02114805223270943    0.024944459364254445    0.029677693772172505    
  0.03440943237217628    0.037907525681307966    0.039206400398426586    0.038117843556778296    0.03531046285764233    
  0.031872127431074426    0.028789632776133434    0.02664596887103602    0.02569082693363522    0.025996617808965942    
  0.02757008514987731    0.030470030426563342    0.03481390507433322    0.040872785422860755    0.049261876228630305    
  0.06132499903917665    0.07977930277615988    0.10849729076483855    0.15112549934835023    0.20709613626320786    
  0.2654679511047871    0.3076217449397584    0.3221754899412283    0.3076217737591718    0.2654679978891868    
  0.20709602627371368    0.15112549883878845    0.10849724440105311    0.07977929382857171    0.0613250034747709    
  0.04926190071426332    0.040872831084402456    0.03481389202649637    0.030470045299512413    0.027570092170955324    
  0.025996607690637462    0.02569080478267279    0.0266459718576628    0.028789635636639756    0.03187216555895484    
  0.035310429873518526    0.03811784797316369    0.039206418653496375    0.03790752221939085    0.03440944838885253    
  0.02967765982161251    0.024944468278782453    0.021148056128121675    0.018770095844953    0.017966698146005662    
  0.01938584619990657    0.02038189140356826    0.023375743787569188    0.028232373739625196    0.034409433101749994    
  0.04074540603385871    0.04559435277453755    0.047644022981693165    0.04666511379656248    0.04348190598680712    
  0.039491002411979656    0.035938705594901414    0.03351069736894791    0.03243875694331945    0.03275083245719571    
  0.03442011078467755    0.03749286956037263    0.041971002031554704    0.04778444010631542    0.054880305958210855    
  0.06343087054301477    0.07432996760924314    0.088967858786128    0.10853571131242107    0.13280221632609074    
  0.1581586115539704    0.17785072771645036    0.1853123899646489    0.1778507806835046    0.1581586007983865    
  0.13280219206033964    0.10853572076699983    0.08896783864349046    0.07432992145084684    0.0634308807747273    
  0.054880320955088824    0.04778442731284635    0.041970973316262684    0.03749285762410845    0.03442008616242685    
  0.03275085263908599    0.03243874161555456    0.03351069637874258    0.035938690076491954    0.039491000486858004    
  0.043481893886044974    0.04666508803846022    0.04764400564987692    0.04559435613351982    0.04074541350771274    
  0.03440941896067977    0.028232369048335714    0.023375746874970512    0.020381879204102837    0.01938584619990657    
  0.02050788293609579    0.021636893415123985    0.02504212981870117    0.03064299975601003    0.03790752275522661    
  0.04559436652539035    0.051886345059890655    0.055345370799392134    0.05564784362430455    0.05362072526130713    
  0.05074743202533386    0.0482725304454777    0.046770869331328735    0.04627047717421181    0.046610102232230825    
  0.04774538479110868    0.049808461517408274    0.052898483240179976    0.05684442471629987    0.061216018817448696    
  0.06553842305569015    0.06975986213012593    0.0742920999484771    0.07976660138054942    0.08646198394350825    
  0.09353261928178694    0.09914131802033828    0.10130433464980104    0.09914135680729941    0.09353263361725538    
  0.08646198298833901    0.07976663184778209    0.07429208542544188    0.06975983627937327    0.06553844233985201    
  0.06121602571738925    0.056844440631312075    0.05289846847249996    0.04980845893285989    0.04774540565727682    
  0.046610105494607    0.04627049237589269    0.04677086493137587    0.04827256289378458    0.05074744020452182    
  0.0536207429558414    0.05564785171880464    0.05534534930842331    0.0518863722713188    0.045594373206552394    
  0.037907548154823875    0.030643016429241148    0.025042135272385142    0.02163686111560097    0.02050788293609579    
  0.021110270533478363    0.022266137338955105    0.02575762830222141    0.03154786755523043    0.039206433111924975    
  0.04764403644232338    0.05534536079780535    0.061084181658962504    0.06460153566124184    0.06666413183452234    
  0.06849511384756968    0.07076013162111322    0.07325576615644122    0.07511970014533709    0.0755200115015281    
  0.07440183208392163    0.07244065778281804    0.07051854840554538    0.06916887307380246    0.06821953629835384    
  0.0671108048599468    0.06545464323074691    0.06331163705273461    0.06122543382566541    0.059773886707925515    
  0.0591499469424945    0.059077580638507744    0.059113034272579176    0.059077626384985114    0.059149962115212194    
  0.05977384289228998    0.061225415742740555    0.06331159507509646    0.06545461644336938    0.06711077801986277    
  0.06821955993121451    0.06916887003363732    0.07051849920265613    0.07244066139082163    0.07440180523739291    
  0.07552002123571436    0.07511968934916421    0.07325578633703458    0.07076013775834368    0.06849514148030027    
  0.06666413529797717    0.0646015277294855    0.061084201449940895    0.05534535341424142    0.04764407185652711    
  0.03920640559079637    0.031547859492397655    0.02575761909099626    0.02226614843062936    0.021110270533478363    
  0.021157920002474618    0.02222670836340848    0.025452377714414234    0.030834887942983787    0.03811788192062385    
  0.04666510919323148    0.05564784745868379    0.06460152643779717    0.07393590541554938    0.08466372722004933    
  0.09760990398675382    0.11221652577235675    0.1258024917820867    0.1343876210611573    0.13489595223107761    
  0.12723843123734527    0.11419791612569523    0.099729258544028    0.0868274708325038    0.07642963567755005    
  0.06809393630716122    0.06102645042608747    0.054681779001856945    0.04910073239557577    0.04459636457739997    
  0.041405315483736486    0.03955563448396114    0.03895178179305089    0.03955565839805371    0.04140530998967785    
  0.044596320916824916    0.049100730184699536    0.054681764102450875    0.06102645032869238    0.06809394778046914    
  0.07642967351223627    0.08682744995236175    0.09972921267613999    0.11419786021844185    0.12723838600917312    
  0.13489599121334564    0.13438759010740958    0.12580250896828007    0.11221653773477745    0.09761000235337419    
  0.08466376874975388    0.07393587834665029    0.06460153203872109    0.055647851838295466    0.04666512761761555    
  0.038117865642345816    0.030834878767573348    0.025452388415843387    0.02222669745309916    0.021157920002474618    
  0.020802081784347778    0.021694528891983807    0.02439704300268466    0.028941170149552806    0.035310428670734785    
  0.04348187955933733    0.05362069503455805    0.06666411098898324    0.08466373970655587    0.11010468624410498    
  0.14441675827834446    0.1848727081727036    0.22214138463081137    0.24454001454861435    0.2452278167551188    
  0.22392579217816125    0.18719648730281574    0.1467545377040734    0.11219806740114628    0.08665159087964856    
  0.06892849110298377    0.05660241575649177    0.04758221002678675    0.04073419340570883    0.03563558650625936    
  0.03209577162015985    0.030017722790612104    0.029334046929690806    0.030017721755141124    0.03209576030669654    
  0.03563558724825544    0.04073420792751721    0.047582165541147456    0.05660244036646925    0.0689285027817937    
  0.08665160584245413    0.11219803147397193    0.14675439061743117    0.18719651435825507    0.22392575121131178    
  0.24522782338368432    0.24454005124545564    0.22214136269993157    0.18487270383446391    0.1444168855270182    
  0.11010474404744353    0.08466373330937375    0.06666411840044534    0.05362071707364333    0.04348191567312118    
  0.035310429390335026    0.02894118595302884    0.02439705693444759    0.02169453613639621    0.020802081784347778    
  0.02027900863568531    0.020957478882388015    0.023027727847980815    0.026581309486063548    0.03187216245097461    
  0.039491004546375406    0.05074742016815255    0.06849509959388438    0.09760990715979151    0.1444168294966601    
  0.21260865108405136    0.29253237391989556    0.3566714314568347    0.3859941078244704    0.3867845831210601    
  0.3586294758941436    0.294965906728513    0.21500346444302834    0.14648308605960692    0.09940811566036921    
  0.0702460808420176    0.05270163090489872    0.04186138051614848    0.03478844135541506    0.030061068478218305    
  0.026980110455943753    0.025215194383602327    0.02464312505622975    0.02521522054119002    0.026980124374749823    
  0.030061054913000998    0.03478845596456484    0.04186133994491047    0.052701622416367784    0.07024604354413967    
  0.09940814777934329    0.14648299342456067    0.215003313817656    0.29496590606205064    0.3586294530123583    
  0.38678471460140557    0.3859939980385652    0.3566715360108272    0.29253245275341655    0.2126087650153005    
  0.14441687948668414    0.09760992319941791    0.06849514388990277    0.050747411363762866    0.03949101176670762    
  0.031872151270482416    0.026581307072652667    0.02302773779254472    0.02095747132219667    0.02027900863568531    
  0.01979950991510654    0.02027654583230468    0.021764685625335574    0.024433078122588898    0.02878969406427587    
  0.035938689939677054    0.04827255649351612    0.07076013361596692    0.11221655730969171    0.18487272189900392    
  0.2925323526475807    0.3970697712294905    0.42837304631149364    0.4026427990916031    0.40313760566262175    
  0.42980485643456745    0.39903419815178237    0.2944885420725947    0.18666662490324537    0.11383655086724588    
  0.07225892379651794    0.04977677131621045    0.03757963287552484    0.03065174462203101    0.026546574377499722    
  0.02410391794758079    0.022770482857722946    0.02234772717064249    0.022770472149264614    0.024103923178278645    
  0.02654653724429909    0.030651770116976295    0.03757960588258714    0.049776770330393044    0.07225891322844777    
  0.11383652570614015    0.1866664057880495    0.2944883214781918    0.3990342359809255    0.42980484793416607    
  0.40313773560415905    0.40264251697449055    0.42837295609106596    0.3970698912617712    0.2925324960445713    
  0.18487274766127215    0.11221656785467099    0.07076013460823384    0.048272541375611745    0.035938708630822644    
  0.02878965977596285    0.024433095785712323    0.021764699650113642    0.02027654401975839    0.01979950991510654    
  0.019519097834886662    0.01984016293325583    0.020893299718929777    0.022930799126934916    0.026645977338099848    
  0.03351068884405703    0.046770862450594926    0.073255772870439    0.1258025093400762    0.22214136631127282    
  0.3566714247085606    0.42837298942963553    0.3384420363778605    0.22768441389360133    0.22776896493958243    
  0.3388170509324763    0.4291424484163001    0.3576928993805959    0.2233253378713033    0.12704540839144454    
  0.074480940666062    0.04798910164179419    0.03477388297803723    0.028008179873392873    0.02441895373665701    
  0.022503799288897    0.021536293792241916    0.021247181115344075    0.02153629142655493    0.02250375931911932    
  0.024418944096045406    0.028008176474692524    0.034773849676095696    0.047989118216487804    0.07448089701288169    
  0.1270454079320476    0.2233253237428709    0.35769273043101873    0.4291424587397704    0.3388172144980043    
  0.2277690556729033    0.2276843097697065    0.3384418974718554    0.42837301969427755    0.3566715357413479    
  0.22214147031016554    0.12580249827072673    0.07325578656920094    0.04677085818866014    0.03351072352623815    
  0.026645983158423446    0.022930801853701825    0.0208933139257543    0.019840164109006946    0.019519097834886662    
  0.01953542181542666    0.019767123841225528    0.02058250744732066    0.022291442481502444    0.025690821722844013    
  0.03243874739461918    0.04627046064658688    0.07511965638516638    0.1343875998743269    0.2445399980323431    
  0.3859939062739145    0.4026427012629176    0.22768440347496147    0.10362162176634895    0.1035673449679973    
  0.22739405340959348    0.40210548177997213    0.3858481552667158    0.2449645921223839    0.1351148863127901    
  0.0759744454566204    0.04718238275804304    0.03340353069409755    0.02672452922527565    0.023407565445117417    
  0.021777486128424735    0.021018152407664126    0.02080649362464364    0.021018169490451155    0.021777493192671762    
  0.02340756061102931    0.02672452698968264    0.033403505898597606    0.0471823755314369    0.0759744171288755    
  0.13511489290186848    0.24496448357876108    0.385848053126684    0.40210562077183615    0.22739421839701018    
  0.1035673705501216    0.10362158732402274    0.22768433266306082    0.40264250223570824    0.38599408070999475    
  0.24454014085401402    0.13438770493979177    0.07511966841660217    0.046270479160484934    0.032438762046397264    
  0.025690822373761687    0.022291455667161453    0.020582513879343622    0.01976712666375923    0.01953542181542666    
  0.019888563141919523    0.020115527166446306    0.020915673218500613    0.022607926129878886    0.025996598560184384    
  0.03275082320965894    0.04661007508588242    0.07551998061802004    0.134895948196905    0.245227751010694    
  0.38678456228108105    0.4031376182442482    0.22776901633661265    0.1035674079514503    0.10343651269782986    
  0.22709950241733662    0.4017598463442429    0.38566923435037537    0.24491180921717404    0.13512513039250906    
  0.0760005917499559    0.047205348967233184    0.03341877757859936    0.026731606974686056    0.02340885046008932    
  0.02177408260165135    0.02101226743449398    0.02079954714347414    0.021012278401640848    0.021774082231288062    
  0.02340884985770726    0.0267316153198808    0.03341876372891995    0.04720532223181226    0.07600054042091434    
  0.1351250925042524    0.2449116889121666    0.3856688934353976    0.40176005438978357    0.2270995677826432    
  0.10343660313763217    0.103567319400031    0.2277688948976029    0.4031375810925674    0.38678463214356756    
  0.24522789810137707    0.134895993101    0.07551999858702517    0.04661006756792535    0.032750841238877455    
  0.0259966164349476    0.022607928033333433    0.02091569057275183    0.02011552724854461    0.019888563141919523    
  0.02064178069393248    0.02094200356909254    0.02194341251809884    0.023911845386311494    0.02757008014157237    
  0.03442007050179    0.04774538141535444    0.07440178267669183    0.12723836746575917    0.22392579740428972    
  0.35862940331520515    0.42980469085773204    0.33881719236456787    0.22739422404654222    0.22709954870520568    
  0.33774950497944156    0.4281106598158874    0.35718202794425513    0.22319296123993868    0.1270739041572191    
  0.07455419591618052    0.04805519713134306    0.03481811409016513    0.02803013020130052    0.02442276945016841    
  0.022494231795519723    0.02151879431901547    0.02122743127296998    0.021518805391078408    0.022494248774340034    
  0.024422762378958747    0.02803014027977989    0.034818083272962305    0.048055212299960896    0.07455420059076531    
  0.12707389270817543    0.22319286809465066    0.3571818992104807    0.42811070021696895    0.3377496206443098    
  0.22709963212907786    0.22739417860368158    0.33881707484525864    0.4298048526715423    0.3586295662412451    
  0.22392591058260744    0.12723845686866023    0.07440179153865888    0.04774538569041212    0.03442009389978283    
  0.027570106677752608    0.023911861079490677    0.021943418807617333    0.020941986030468297    0.02064178069393248    
  0.02200548838099233    0.022437956499827705    0.02380037972096647    0.026293714886695064    0.030470070959779435    
  0.03749287944864013    0.049808439688973624    0.07244065198534683    0.11419790410618827    0.1871965356365405    
  0.29496584058744774    0.39903420519039406    0.4291424591060887    0.4021057490318093    0.40175992638984703    
  0.42811076603409104    0.3976437743540572    0.29380277854282444    0.18649643563761253    0.11387851655043371    
  0.0723631107627205    0.04987602533528081    0.037649512738426025    0.030687713328507702    0.026553580274791353    
  0.024089330462972975    0.02274374928348594    0.02231715403341111    0.022743761916447464    0.02408935313823134    
  0.026553559530606168    0.030687719149020062    0.03764948884020539    0.049876000191260886    0.0723630554906284    
  0.11387855499966133    0.186496373651672    0.2938025895685558    0.39764380876417976    0.428110834665322    
  0.40176009911039917    0.40210551003592676    0.4291425225947123    0.3990342910471811    0.2949659704964181    
  0.18719656264291015    0.11419793400624058    0.07244067372326386    0.049808433902710926    0.03749288944833896    
  0.030470058386933247    0.026293731357477455    0.023800389071918702    0.022437993821470173    0.02200548838099233    
  0.024501376879838076    0.02508342573323267    0.02688035323212749    0.03001370355574906    0.03481388487583327    
  0.041970990786778586    0.052898500969435415    0.07051851472407536    0.09972923106968794    0.14675447326614247    
  0.21500328427462775    0.29448844567913435    0.3576928770879567    0.3858481490288986    0.38566904492407245    
  0.35718208201474433    0.29380272138022123    0.21437565062603614    0.1463059737661825    0.09945013555653326    
  0.07036004307728251    0.052819838781461396    0.04194989578276709    0.03483667082647589    0.030070956978020348    
  0.026962360140603003    0.025180595889289493    0.02460361615678867    0.025180607714996348    0.026962347157109854    
  0.030070939728159538    0.03483663648790515    0.04194985306658133    0.05281984541845823    0.0703600066149411    
  0.09945020285034971    0.1463059224907024    0.21437550329993146    0.2938026043314109    0.35718201686887635    
  0.385669211942681    0.3858481210484159    0.3576929239607967    0.2944884817025538    0.2150034286360502    
  0.14675449625333495    0.0997292495794845    0.07051850437088374    0.05289846956503272    0.04197099451143523    
  0.03481390827640259    0.030013709983625663    0.026880358441298022    0.02508339614081755    0.024501376879838076    
  0.02930743233965468    0.030002897046590482    0.03211445881168551    0.03570877802821999    0.04087279847606751    
  0.04778440132005191    0.056844425287338074    0.06916884608708582    0.08682744866559193    0.11219805951544977    
  0.14648296053548854    0.1866664591322699    0.22332532659935772    0.24496460806167766    0.2449117619413723    
  0.22319286506996774    0.18649637213132036    0.14630599849050466    0.1120302784912134    0.08667567232179058    
  0.06903169743078945    0.05672249484660734    0.047680602614129305    0.040790848970219375    0.03564934480361893    
  0.03207519511303172    0.029976445393821667    0.02928536084829405    0.029976455136187612    0.03207517878031398    
  0.035649361463143465    0.040790846790821934    0.04768058305712401    0.056722521522284255    0.06903169165102045    
  0.0866756533937988    0.11203024274827396    0.1463058875452115    0.1864963331633276    0.2231928694580611    
  0.24491177800806294    0.24496452662391652    0.22332534065741888    0.1866664708859223    0.14648310749565674    
  0.11219808140528915    0.08682745343912193    0.06916886516062005    0.0568443836770476    0.047784436168944226    