#     DFTpy    
  CRYSTAL 
    
  PRIMVEC    
  3.498931034482758    0.0    0.0    
  0.0    3.498931034482758    0.0    
  0.0    0.0    3.498931034482758    
  PRIMCOORD    
  4    1    
  Si    0.0    0.0    0.0    
  Si    0.0    1.749465517241379    1.749465517241379    
  Si    1.749465517241379    0.0    1.749465517241379    
  Si    1.749465517241379    1.749465517241379    0.0    
  BEGIN_BLOCK_DATAGRID_3D    
  3d_datagrid_density    
  BEGIN_DATAGRID_3D#0    
  15    15    15    
  0.0    0.0    0.0    
  3.498931034482758    0.0    0.0    
  0.0    3.498931034482758    0.0    
  0.0    0.0    3.498931034482758    
  0.053616278062151516    0.10594033438621009    0.2901677867516139    0.42690573976211077    0.3744013621253471    
  0.286547395005037    0.23539563273166297    0.21961939993841745    0.23539560744921245    0.28654740386604755    
  0.3744013694855082    0.42690569416113777    0.2901678166625663    0.1059403461463945    0.053616278062151516    
  0.10594033955180553    0.16869897645098475    0.3427959068567835    0.4378999428109098    0.37661221601490097    
  0.2957391483529173    0.24959585124303524    0.23539562396567712    0.24959590581128546    0.29573912924057055    
  0.3766122515488366    0.4378999684118097    0.34279589321321285    0.16869899585357748    0.10594033955180553    
  0.2901677960180159    0.34279586367533044    0.4361290164591459    0.445322231327083    0.3830687604672093    
  0.32613739403749675    0.29573912508051187    0.28654739707598187    0.29573911438331707    0.32613739120860546    
  0.3830687588107893    0.4453222343202266    0.43612908067543427    0.342795897794344    0.2901677960180159    
  0.4269057207618146    0.4378999239355959    0.44532222725586695    0.42594892020335556    0.3989513012975351    
  0.3830687710977171    0.37661227306443734    0.3744013303922215    0.3766122554460185    0.3830687594635587    
  0.39895130587039807    0.4259489356454833    0.4453222127846852    0.43789992191109645    0.4269057207618146    
  0.37440137032267967    0.37661222573456044    0.3830687543025107    0.39895134140583194    0.42594891947233154    
  0.44532221582793946    0.4378999691095724    0.42690571518853115    0.4378998722596917    0.44532225454403934    
  0.4259489037483204    0.39895134427831863    0.38306873908521805    0.3766122729141064    0.37440137032267967    
  0.28654741232394426    0.29573912395233065    0.32613739914065126    0.383068751320716    0.4453222110014107    
  0.43612907879229335    0.34279591708916846    0.2901677775055826    0.342795907118073    0.43612906374234006    
  0.445322222797397    0.38306875579544597    0.3261374017951641    0.2957391315133239    0.28654741232394426    
  0.2353956331653808    0.24959586960879754    0.29573914803356666    0.37661225604676757    0.4378999152899978    
  0.3427958799615364    0.16869897419992586    0.10594033704569716    0.16869897751649496    0.34279590256836895    
  0.4378999705432501    0.3766122412286011    0.2957391244655569    0.24959587298569028    0.2353956331653808    
  0.2196193842405316    0.2353956252652742    0.2865474181931747    0.37440138660699307    0.42690570814100265    
  0.29016780505742257    0.10594034979720775    0.053616266986864246    0.10594031955406888    0.29016777473584066    
  0.4269057158319744    0.37440135877552294    0.2865474142625908    0.23539563774286282    0.2196193842405316    
  0.23539563439296307    0.2495958588006016    0.295739118982855    0.3766122762829902    0.4378999226571028    
  0.34279587809250833    0.1686989738244965    0.10594033880218201    0.16869899710129194    0.3427959271000015    
  0.4378999104073443    0.37661225734348014    0.29573912239794603    0.2495958992608457    0.23539563439296307    
  0.28654740191524486    0.29573910837654377    0.3261373861817416    0.3830687641830685    0.4453222041706384    
  0.4361290154446048    0.34279591539314624    0.2901677768715242    0.3427958733596799    0.4361290451089644    
  0.4453222118778171    0.38306877338506956    0.3261374369050685    0.29573912448832446    0.28654740191524486    
  0.37440140081370704    0.3766122350297368    0.38306876404752555    0.3989513167208927    0.4259488996923538    
  0.44532221244237546    0.4378999587726163    0.4269056893389494    0.4378999320884873    0.44532222733957166    
  0.42594889848467327    0.39895129674467156    0.3830687572235674    0.37661224637841473    0.37440140081370704    
  0.4269057265037282    0.4378999012527886    0.44532221556973994    0.42594894328678307    0.39895129667731694    
  0.3830687552245522    0.37661227271641207    0.3744013654852727    0.3766122844054634    0.3830687693162565    
  0.39895128653627193    0.4259489686561426    0.4453222349993961    0.4378999539784328    0.4269057265037282    
  0.29016779050703756    0.3427958787778763    0.43612898800993816    0.44532224056173897    0.383068735711144    
  0.32613740269149144    0.2957391088958886    0.2865474136975765    0.2957391157788755    0.32613738762614014    
  0.38306873773911465    0.4453222600382967    0.43612905995635026    0.342795894510303    0.29016779050703756    
  0.10594034725839467    0.16869896712914495    0.3427958832969565    0.437899951033171    0.3766122332986091    
  0.29573915415443547    0.2495958948125681    0.2353956098484069    0.24959588988631504    0.29573914351135555    
  0.37661225295073575    0.4378999303832643    0.3427958967662425    0.1686989757896305    0.10594034725839467    
  0.053616278062151516    0.10594033438621009    0.2901677867516139    0.42690573976211077    0.3744013621253471    
  0.286547395005037    0.23539563273166297    0.21961939993841745    0.23539560744921245    0.28654740386604755    
  0.3744013694855082    0.42690569416113777    0.2901678166625663    0.1059403461463945    0.053616278062151516    
  0.10594033151414864    0.1686989834840835    0.3427958951604699    0.4378999689276604    0.37661225206638926    
  0.2957391182604281    0.24959590039496699    0.2353956126479392    0.24959586892810404    0.29573911186307755    
  0.3766122580400683    0.43789993239369335    0.3427958947981668    0.16869898707793354    0.10594033151414864    
  0.1686989970263046    0.2337373791174827    0.3843746003171221    0.4425419747989321    0.37681539463483077    
  0.30335503068192193    0.2622150272985066    0.24959590720805894    0.26221503401689966    0.3033550471348533    
  0.37681543744643675    0.4425419963416979    0.38437457391857593    0.23373741926114017    0.1686989970263046    
  0.3427959037367772    0.38437457685426335    0.44829077514067833    0.43886384979439325    0.37888957507384335    
  0.3290775690380644    0.30335503083282034    0.29573912794733265    0.3033549952901522    0.3290775610800678    
  0.37888959154445445    0.4388637973496178    0.44829082456180586    0.3843745943839691    0.3427959037367772    
  0.4378999444645357    0.44254194568429867    0.4388638411216391    0.414797351787462    0.39002046105581606    
  0.3788896151431281    0.37681545472867506    0.37661225016295313    0.37681545977603514    0.3788896036271596    
  0.3900204831564442    0.41479736169688836    0.4388638078916768    0.4425419593768058    0.4378999444645357    
  0.37661225804041    0.3768154352992294    0.3788896112794152    0.39002051911616625    0.41479733829670956    
  0.43886380727979374    0.4425420113729719    0.43789994301810337    0.4425419256200953    0.4388638272825435    
  0.41479734061312357    0.3900205121446669    0.3788895980954356    0.37681544590902893    0.37661225804041    
  0.29573913703362575    0.30335497678205053    0.3290775710223852    0.3788896223358325    0.43886383576857046    
  0.44829083030086375    0.3843746171621771    0.34279589170901165    0.38437458291865495    0.44829078099031644    
  0.4388638068766433    0.37888959975458975    0.3290775501331031    0.3033550192064716    0.29573913703362575    
  0.24959590841795987    0.2622150160411529    0.30335502772055567    0.3768154421341002    0.4425419584191358    
  0.38437456910973816    0.23373738498433314    0.16869898986096812    0.2337373880319755    0.3843745756255155    
  0.4425419838766667    0.37681543919647703    0.3033550006875149    0.2622150394847244    0.24959590841795987    
  0.23539562622709687    0.24959590900578613    0.2957391212441981    0.37661229343299557    0.43789995996737313    
  0.3427958981429089    0.16869898231728583    0.10594033079358978    0.16869897535138104    0.34279587839755365    
  0.43789993105872693    0.3766122540860725    0.29573914059391093    0.24959590039657942    0.23539562622709687    
  0.24959588711536007    0.26221502114975825    0.3033550131360571    0.37681548810058546    0.442541952040721    
  0.3843745689102597    0.2337374019156509    0.16869898306240064    0.23373741499149012    0.3843745943821852    
  0.4425419523212557    0.3768154718770842    0.3033550165518375    0.2622150519631823    0.24959588711536007    
  0.2957391220228074    0.30335501166003725    0.3290775583334755    0.37888960400782207    0.43886380193189267    
  0.4482907817592983    0.3843746044356692    0.34279589332203864    0.3843745389249365    0.4482907992826159    
  0.43886379260317326    0.378889632875084    0.3290775695608079    0.3033550160268032    0.2957391220228074    
  0.37661226245902785    0.3768154246725207    0.37888962236666285    0.3900204836914306    0.41479734759553255    
  0.4388638407981473    0.4425419561791453    0.4378999182027849    0.4425419876973972    0.4388638244350467    
  0.4147973132446813    0.3900204997660947    0.37888960247459313    0.37681544336890643    0.37661226245902785    
  0.43789995505142154    0.44254193258876023    0.43886382099889826    0.41479737493535546    0.390020482378195    
  0.37888962806907744    0.37681548655515595    0.3766122573893395    0.37681545364058006    0.3788896244326205    
  0.3900204675284724    0.41479737434846736    0.43886382490414877    0.44254198205685885    0.43789995505142154    
  0.34279589189346577    0.38437452969728286    0.44829076307390253    0.43886382177241956    0.3788896114821449    
  0.32907756944480754    0.30335498672744804    0.29573910963597266    0.3033549969861127    0.32907756898407325    
  0.3788895989424239    0.4388638210424084    0.4482907973946422    0.38437458477800246    0.34279589189346577    
  0.16869900196906448    0.23373740702534157    0.384374623208068    0.4425419723991685    0.3768154406322745    
  0.3033550210384814    0.26221503901919935    0.24959589292465748    0.26221503987878053    0.30335502740467984    
  0.3768154302017468    0.44254197317418703    0.38437458448277784    0.23373740536229248    0.16869900196906448    
  0.10594033151414864    0.1686989834840835    0.3427958951604699    0.4378999689276604    0.37661225206638926    
  0.2957391182604281    0.24959590039496699    0.2353956126479392    0.24959586892810404    0.29573911186307755    
  0.3766122580400683    0.43789993239369335    0.3427958947981668    0.16869898707793354    0.10594033151414864    
  0.290167800611495    0.3427958993513936    0.43612904095089544    0.445322246023797    0.38306873281093345    
  0.326137383876196    0.29573914463083206    0.2865474062237635    0.2957391162186308    0.3261373924972066    
  0.38306874171751176    0.4453221969611087    0.43612906821389974    0.342795921099734    0.290167800611495    
  0.3427958976873862    0.3843745422791831    0.4482908024569548    0.4388638250300656    0.37888958073916756    
  0.32907756958331713    0.30335497503933995    0.29573914565897785    0.30335501741765    0.3290775764265158    
  0.37888961526701426    0.4388638355821167    0.44829080264152266    0.38437459429608406    0.3427958976873862    
  0.43612902385306923    0.448290796209982    0.4528726438996358    0.4183001676135725    0.3716202403165823    
  0.34155811244889855    0.3290775791023289    0.3261373741853592    0.3290775606039092    0.34155809131041276    
  0.3716202508766781    0.4183001408028284    0.45287272222944075    0.44829082357031674    0.43612902385306923    
  0.44532223378237007    0.4388637942140256    0.41830016604214293    0.3903556793283415    0.37255904008545354    
  0.3716202806430066    0.37888962065865156    0.3830687241396605    0.37888960183068254    0.3716202763574129    
  0.372559034884267    0.3903556897589031    0.41830012640969055    0.43886379920965846    0.44532223378237007    
  0.383068770524657    0.3788895921050086    0.37162025281550143    0.3725590517501512    0.3903556847549478    
  0.4183001440347064    0.4388638401309756    0.44532219809458007    0.4388637890559792    0.41830016196993364    
  0.39035567448385133    0.3725590790480458    0.3716202503742355    0.378889611939211    0.383068770524657    
  0.3261373917497459    0.32907753266124334    0.3415581017881297    0.3716202673269572    0.4183001443061556    
  0.45287268898803895    0.4482907922872692    0.43612903531350694    0.44829081378503116    0.4528726521745138    
  0.41830016036452866    0.37162024615135647    0.34155812347265657    0.329077557529602    0.3261373917497459    
  0.2957391453267869    0.30335499250174175    0.329077565756743    0.37888960838304014    0.43886379468005676    
  0.44829078207613027    0.38437457671443415    0.3427958793856245    0.38437458068122876    0.4482907989605311    
  0.43886381444323286    0.3788895734174221    0.3290775664276587    0.3033550089654214    0.2957391453267869    
  0.28654739291234527    0.29573913851325484    0.32613739355925037    0.3830687625258335    0.445322201323631    
  0.4361290534235278    0.3427958888250049    0.29016778231653245    0.3427958833816102    0.43612904241500505    
  0.4453222051937404    0.3830687474846793    0.3261373800942044    0.29573914441728844    0.28654739291234527    
  0.2957391402308726    0.3033550082221586    0.3290775573657086    0.37888961831633433    0.4388637698255878    
  0.44829077261932104    0.3843745554048382    0.3427958912112087    0.38437457700979316    0.44829080472086125    
  0.43886381657243695    0.37888961015134515    0.32907757944466154    0.3033550055182987    0.2957391402308726    
  0.32613739585430884    0.329077531563809    0.3415580901134069    0.3716202720071637    0.41830013148967976    
  0.452872647585305    0.4482908014679002    0.4361290476150813    0.4482907416095568    0.4528726802787765    
  0.4183001516591426    0.37162027382236246    0.3415581173847736    0.32907755614402284    0.32613739585430884    
  0.3830687548636129    0.3788895967432959    0.3716202548528871    0.3725590248940559    0.3903556798395355    
  0.41830012956042006    0.43886381930238205    0.44532218509402355    0.4388638321453177    0.4183001702440162    
  0.3903556616832985    0.37255907119225934    0.3716202632882498    0.37888959938444167    0.3830687548636129    
  0.44532222237375013    0.43886380631605343    0.4183001618230569    0.3903556991365407    0.37255906559780555    
  0.3716202908111837    0.3788896244269355    0.38306875082912833    0.3788895795685119    0.3716202864145825    
  0.37255903138512164    0.3903557255427777    0.4183001268812934    0.4388638221364466    0.44532222237375013    
  0.43612906573396837    0.4482907557272702    0.4528726485224768    0.4183001687245274    0.3716202356622998    
  0.34155810605875686    0.32907754789062865    0.32613739875243225    0.3290775364981639    0.34155809535564063    
  0.37162024574350555    0.41830015899169176    0.4528726636175028    0.4482907986100498    0.43612906573396837    
  0.34279588556509955    0.3843745710673902    0.4482907832208678    0.4388638255442888    0.3788895986118982    
  0.3290775580550588    0.30335501253290603    0.2957391441140117    0.30335501019245364    0.32907755359390917    
  0.37888960360590934    0.4388637877159379    0.448290785761991    0.38437457016531495    0.34279588556509955    
  0.290167800611495    0.3427958993513936    0.43612904095089544    0.445322246023797    0.38306873281093345    
  0.326137383876196    0.29573914463083206    0.2865474062237635    0.2957391162186308    0.3261373924972066    
  0.38306874171751176    0.4453221969611087    0.43612906821389974    0.342795921099734    0.290167800611495    
  0.4269057405259297    0.43789996018595745    0.4453222325565187    0.42594893770426867    0.398951317644186    
  0.3830687303292785    0.37661229693731996    0.37440135283628245    0.3766122160287071    0.38306873473865183    
  0.39895134258566123    0.4259488816277795    0.44532222585253645    0.4378999378023651    0.4269057405259297    
  0.4378999294933573    0.4425419442701547    0.4388638491634874    0.4147973575444313    0.3900204644084735    
  0.3788896348192462    0.3768154159125033    0.37661227722057006    0.3768154601830513    0.37888961348799993    
  0.3900204843752458    0.41479736035092724    0.4388638285733396    0.4425420097211755    0.4378999294933573    
  0.44532223900763845    0.43886383398741846    0.4183001095473236    0.39035572841379096    0.372559070261643    
  0.3716202761243552    0.3788896180253046    0.38306872543845644    0.37888960546496847    0.37162026307316604    
  0.37255905683971174    0.3903557194754153    0.4183001719919768    0.4388638274844069    0.44532223900763845    
  0.4259489336332076    0.4147973132455635    0.390355724309868    0.3682091736949832    0.3617199796172485    
  0.3725590760818086    0.3900205267178824    0.39895131439071463    0.3900205052514699    0.3725590772780096    
  0.36171998342229766    0.3682091798756688    0.39035565906556485    0.4147973699179892    0.4259489336332076    
  0.39895133959588636    0.39002049101848885    0.37255905101216813    0.36172002723246605    0.3682091551322331    
  0.39035568862905773    0.4147973724735118    0.4259489233270775    0.4147973216191651    0.39035572058286894    
  0.3682091555109668    0.36172003981986295    0.3725590540076175    0.3900205039573587    0.39895133959588636    
  0.38306874304764    0.3788895823867165    0.37162026161424355    0.37255906467649236    0.39035569996706715    
  0.41830017098831584    0.4388638370210565    0.44532222616081024    0.43886384868606554    0.4183001311104002    
  0.3903557113866657    0.3725590333452179    0.37162026170293605    0.37888963078570004    0.38306874304764    
  0.3766122825413517    0.3768154138865813    0.3788896083985594    0.3900204867408867    0.41479732625094834    
  0.4388638048981303    0.4425419763847822    0.43789992677043243    0.44254197388686434    0.4388638305134544    
  0.41479734285005854    0.3900204996370654    0.37888961888015155    0.3768154492542042    0.3766122825413517    
  0.37440135404179203    0.37661230283245156    0.3830687618107241    0.3989513405844798    0.4259489182224259    
  0.4453222298467242    0.4378999757919539    0.42690573060719    0.4378999226864017    0.4453222227511826    
  0.42594891524613215    0.3989513224066791    0.3830687468793905    0.37661227078068105    0.37440135404179203    
  0.376612273690522    0.37681545141211303    0.3788895891886452    0.3900205014837306    0.41479735215181884    
  0.43886379751531385    0.4425419325675381    0.4378999596082617    0.4425419927402928    0.438863802267166    
  0.4147973364783037    0.3900205110059433    0.3788896155040246    0.3768154619394869    0.376612273690522    
  0.3830687620738182    0.37888958106139925    0.37162024540413013    0.3725591129154953    0.3903556617374629    
  0.4183001590669664    0.4388638156360472    0.4453222385677669    0.43886379075808046    0.4183001518360397    
  0.39035569187978336    0.37255907047921843    0.3716202758147513    0.378889611220619    0.3830687620738182    
  0.398951320569938    0.39002050009494876    0.3725590826298074    0.36171998900349206    0.3682091724849822    
  0.3903557017138305    0.4147974066229212    0.4259488865209337    0.414797342014776    0.3903556978430174    
  0.3682091570429961    0.3617199954554105    0.37255908244391966    0.3900204910869346    0.398951320569938    
  0.42594892527580797    0.41479731704738104    0.39035569955147686    0.3682091620393787    0.36172002030113054    
  0.3725590928214783    0.390020493194481    0.3989513406112561    0.39002050590129617    0.37255908140799787    
  0.36171995831431314    0.3682092034675375    0.39035566575842023    0.41479734323607864    0.42594892527580797    
  0.4453222207131812    0.43886378476189375    0.41830014492177253    0.3903557174978276    0.37255906666685484    
  0.371620251659793    0.3788896158152637    0.3830687452468366    0.3788895947087012    0.37162026023321393    
  0.3725590723605444    0.3903557055327814    0.4183001548497464    0.4388638401732702    0.4453222207131812    
  0.4378999560082879    0.4425419664761111    0.43886381962378795    0.41479737567793284    0.3900204819120802    
  0.378889619852373    0.37681545543061606    0.37661226882740584    0.3768154646456546    0.37888961919338604    
  0.390020510617603    0.4147973365862242    0.43886382800857826    0.4425419448920073    0.4378999560082879    
  0.4269057405259297    0.43789996018595745    0.4453222325565187    0.42594893770426867    0.398951317644186    
  0.3830687303292785    0.37661229693731996    0.37440135283628245    0.3766122160287071    0.38306873473865183    
  0.39895134258566123    0.4259488816277795    0.44532222585253645    0.4378999378023651    0.4269057405259297    
  0.37440140110566156    0.37661228108012895    0.38306875564870124    0.3989513197330249    0.4259489131530698    
  0.4453222173802805    0.43789999069172025    0.4269057189583676    0.4378998979408446    0.44532221117057963    
  0.4259489306324491    0.3989512971868742    0.38306874630531473    0.37661226093848843    0.37440140110566156    
  0.3766122755375077    0.3768154361664063    0.3788896334396428    0.39002050898786134    0.4147973078604821    
  0.4388638364960626    0.44254193404618314    0.4378999604147659    0.4425419712094449    0.43886383212662805    
  0.41479734524071726    0.3900205127753362    0.37888960521291204    0.37681547479643135    0.3766122755375077    
  0.38306873418012344    0.37888960341280437    0.3716202194560656    0.3725590892394976    0.3903556773545136    
  0.4183001641794415    0.43886381357671095    0.44532220458155347    0.4388638025438343    0.41830016192944347    
  0.3903556816833289    0.3725590801582742    0.3716202763750374    0.37888962128671744    0.38306873418012344    
  0.3989513288633372    0.39002046978932026    0.37255909560981726    0.36171999725548193    0.3682091389736957    
  0.390355725549626    0.4147973734778474    0.4259489143120575    0.41479735823689073    0.39035569617085836    
  0.3682091531616268    0.3617199988931607    0.37255904264697565    0.39002049266757055    0.3989513288633372    
  0.42594892229506387    0.4147973436700841    0.39035567977448676    0.36820919532055    0.3617199851193839    
  0.37255907728431226    0.39002054035073314    0.39895132475534506    0.3900204711957389    0.37255908625777756    
  0.36171999489222373    0.368209213644099    0.39035567792443693    0.41479735567712667    0.42594892229506387    
  0.4453222303776558    0.43886378662400816    0.41830015503426465    0.3903557053644651    0.3725590506263082    
  0.37162028402366737    0.37888961760661033    0.3830687402878583    0.37888963899898237    0.371620245065205    
  0.37255908199502147    0.39035567104541524    0.4183001585288637    0.43886384242460613    0.4453222303776558    
  0.4378999814070005    0.44254194396704416    0.4388638404050818    0.414797335405988    0.3900204833538385    
  0.37888959746548495    0.3768154579154775    0.37661224920842673    0.37681543517253013    0.3788896380765309    
  0.3900204946519588    0.4147973277052526    0.43886383084526365    0.4425419662348554    0.4378999814070005    
  0.4269056883825541    0.43789998857804263    0.44532224265242876    0.42594892230549747    0.3989513312346682    
  0.3830687581665882    0.37661228410943215    0.37440136734634005    0.3766122537656844    0.3830687453203809    
  0.39895131469497735    0.4259489162511236    0.4453222342536405    0.43789997743302556    0.4269056883825541    
  0.4378999413190575    0.4425419552019767    0.43886382338662344    0.41479734505267946    0.3900204901323789    
  0.37888959519827553    0.3768154285113725    0.3766122738851469    0.37681546227891394    0.3788896037573852    
  0.39002051686822936    0.41479735237204013    0.4388638258543619    0.44254197131842804    0.4378999413190575    
  0.4453222375340252    0.43886378721423125    0.418300139880415    0.3903557339854571    0.3725590168465666    
  0.3716202649024532    0.3788896118821712    0.38306877293686536    0.37888958767760317    0.37162027468639297    
  0.37255907233302565    0.39035568008545574    0.41830017105402434    0.43886382895742265    0.4453222375340252    
  0.4259489140882143    0.4147973356681008    0.3903557198754243    0.36820915838417295    0.3617200058758891    
  0.37255908091085194    0.3900205461947689    0.39895128159404114    0.3900204904820352    0.37255908381015446    
  0.36171999480514955    0.3682091778761469    0.3903557292818255    0.4147973164406794    0.4259489140882143    
  0.3989513151229632    0.39002048708998693    0.3725590726998788    0.3617200178857749    0.368209170584533    
  0.3903557137324699    0.4147973652721865    0.425948919082605    0.41479735136055323    0.3903557101364402    
  0.36820912503226555    0.3617200264340832    0.37255904360518893    0.3900204954808812    0.3989513151229632    
  0.3830687429238822    0.37888957750017394    0.3716202531613669    0.37255908073611954    0.39035569583655216    
  0.41830014309169555    0.43886382000141455    0.44532222435803687    0.4388637906806779    0.41830014809244315    
  0.39035569905497286    0.3725590785057269    0.3716202512672428    0.3788896386190791    0.3830687429238822    
  0.3766122810171777    0.3768154353786869    0.37888960467522353    0.39002051699549667    0.4147973318729141    
  0.4388638145928387    0.4425419561042055    0.4378999427281347    0.442541984835427    0.4388638233417782    
  0.41479732662500235    0.3900204936574059    0.37888961362095847    0.37681543604299234    0.3766122810171777    
  0.37440140110566156    0.37661228108012895    0.38306875564870124    0.3989513197330249    0.4259489131530698    
  0.4453222173802805    0.43789999069172025    0.4269057189583676    0.4378998979408446    0.44532221117057963    
  0.4259489306324491    0.3989512971868742    0.38306874630531473    0.37661226093848843    0.37440140110566156    
  0.286547416559741    0.2957391368476779    0.32613739333940067    0.38306875535041524    0.4453222114522692    
  0.4361290299481438    0.3427959101824142    0.2901677778400432    0.3427958698375155    0.43612903458101315    
  0.445322219027674    0.383068727548446    0.3261374062131184    0.2957391499480403    0.286547416559741    
  0.29573912477826575    0.30335498150461904    0.32907757259120596    0.3788896198254242    0.4388637610989091    
  0.4482908274673335    0.38437453956012657    0.34279590702102336    0.3843745843370756    0.448290804829637    
  0.43886381539502894    0.3788896216599246    0.32907757626657397    0.30335503007527015    0.29573912477826575    
  0.326137389126523    0.32907756652260284    0.3415580840644238    0.37162027379850204    0.4183001449348715    
  0.4528726691620226    0.44829081588098596    0.43612902155499234    0.4482908077339826    0.45287266186201636    
  0.41830014352425243    0.3716202560992583    0.34155812921067474    0.32907758871719855    0.326137389126523    
  0.3830687631236392    0.3788895826210938    0.3716202591152819    0.3725590503794104    0.39035566729494564    
  0.4183001685436392    0.43886383315994726    0.44532220170429854    0.43886380945322345    0.4183001827135888    
  0.3903556462603983    0.3725590576251621    0.37162024146952366    0.37888957068862994    0.3830687631236392    
  0.44532226976384315    0.43886378546305826    0.4183001565569538    0.3903556896912137    0.3725590719517348    
  0.3716202522321156    0.3788896135338008    0.3830687349820622    0.37888958744110374    0.3716202784438356    
  0.37255905266682926    0.3903557081666687    0.4183001543562724    0.4388638048434244    0.44532226976384315    
  0.43612902790523234    0.4482907616336658    0.4528726930240516    0.4183001707272409    0.37162026483959654    
  0.3415581200154272    0.32907756866669013    0.3261373807383964    0.3290775720448914    0.3415580859508557    
  0.3716202570171083    0.4183001336605149    0.4528726796169976    0.448290814128141    0.43612902790523234    
  0.3427959241533844    0.3843745621318855    0.44829078522144195    0.43886380748877624    0.378889577094915    
  0.3290775382819598    0.30335502644813483    0.29573911990007157    0.303355009324587    0.3290775637792817    
  0.378889610671009    0.43886379540873577    0.4482907790827252    0.38437456606652287    0.3427959241533844    
  0.29016777270888117    0.3427959019539112    0.4361290300200326    0.44532226744052567    0.3830687491788148    
  0.32613739799420755    0.2957391396916259    0.28654740374882914    0.29573911750019005    0.32613738642590595    
  0.3830687266216416    0.44532222472886723    0.43612904496528193    0.3427959016060399    0.29016777270888117    
  0.34279589920631076    0.3843745750383025    0.4482907804669057    0.4388638449764633    0.37888958481488544    
  0.32907754456982946    0.30335499405789085    0.29573911704003414    0.303355023939414    0.32907758019977895    
  0.3788895962650801    0.4388638247200164    0.44829083214837956    0.3843745953676646    0.34279589920631076    
  0.43612904848093126    0.4482907542958322    0.4528726426190073    0.41830017013873344    0.37162024472983174    
  0.3415580916234578    0.329077562502954    0.3261373966165102    0.3290775136341476    0.3415581161346852    
  0.37162024992504317    0.4183001809759252    0.45287268998600405    0.4482907723702959    0.43612904848093126    