#     DFTpy    
  CRYSTAL 
    
  PRIMVEC    
  2.794448275862069    0.0    0.0    
  0.0    2.794448275862069    0.0    
  0.0    0.0    2.794448275862069    
  PRIMCOORD    
  4    1    
  Si    0.0    0.0    0.0    
  Si    0.0    1.3972241379310344    1.3972241379310344    
  Si    1.3972241379310344    0.0    1.3972241379310344    
  Si    1.3972241379310344    1.3972241379310344    0.0    
  BEGIN_BLOCK_DATAGRID_3D    
  3d_datagrid_density    
  BEGIN_DATAGRID_3D#0    
  13    13    13    
  0.0    0.0    0.0    
  2.794448275862069    0.0    0.0    
  0.0    2.794448275862069    0.0    
  0.0    0.0    2.794448275862069    
  0.0643070336484647    0.12540940226441777    0.373492151831715    0.6798707662998762    0.7523096134428364    
  0.6952783958311298    0.6642223796212243    0.6952784345541698    0.7523096550903864    0.6798707583427464    
  0.3734921520669093    0.12540939908743085    0.0643070336484647    0.12540941283038085    0.20340556313500185    
  0.46337956014503884    0.7308563278689791    0.7788442200625616    0.723476246513084    0.6952784462599715    
  0.7234762202064067    0.7788442436947894    0.730856343581109    0.46337954264892384    0.20340556225798104    
  0.12540941283038085    0.373492141672498    0.4633795508473693    0.6801238125371817    0.8358387621954662    
  0.8355984134986119    0.778844237758999    0.7523096825827243    0.7788442147090177    0.8355984339647475    
  0.8358387470520512    0.6801237935891965    0.46337953466655063    0.373492141672498    0.6798707164883785    
  0.7308562550430757    0.8358386952532681    0.8893208818092773    0.8358386912220293    0.7308562574791609    
  0.6798707531846244    0.730856280794337    0.8358387001320503    0.8893209003094943    0.8358386889682996    
  0.7308562388583901    0.6798707164883785    0.7523096405008851    0.7788442412240782    0.835598410178252    
  0.8358387231644804    0.6801238048097291    0.4633795509267434    0.3734921556141782    0.4633795316393492    
  0.6801238005268779    0.8358387604575866    0.8355984271953082    0.7788442455225363    0.7523096405008851    
  0.6952784594040318    0.7234762708975001    0.7788442785457682    0.7308563364070007    0.4633795805914873    
  0.20340556445142588    0.12540941045903922    0.2034055688088768    0.46337957885683734    0.7308563076856242    
  0.7788442388595338    0.7234762637095085    0.6952784594040318    0.6642223774503861    0.69527839462218    
  0.75230960976341    0.6798707581453235    0.3734921304165446    0.12540939355367584    0.06430703908104714    
  0.125409410672654    0.3734921603709123    0.6798707539685882    0.7523096335449292    0.695278432727309    
  0.6642223774503861    0.695278433092356    0.7234762253660003    0.7788442672377702    0.7308563305411913    
  0.46337955667471836    0.20340556704959264    0.12540940925301902    0.20340556073401148    0.46337953384040464    
  0.7308562920174921    0.7788442222415339    0.7234762275927477    0.695278433092356    0.7523096314307165    
  0.778844266347532    0.8355984226968409    0.8358387784255734    0.6801238253722801    0.4633795539598084    
  0.3734921478322914    0.46337957537997226    0.680123828036843    0.8358387357014129    0.8355983702170796    
  0.7788442202087998    0.7523096314307165    0.679870752342712    0.7308562330610086    0.8358386729141231    
  0.8893208621818974    0.835838720200205    0.7308562569495416    0.6798707712906039    0.7308562700910847    
  0.8358387220113889    0.8893209046879978    0.8358387434215191    0.7308562593962805    0.679870752342712    
  0.3734921323647875    0.4633795521407369    0.6801237984566488    0.8358387561445866    0.8355984191584978    
  0.7788442546350538    0.7523096221887502    0.7788442512181171    0.8355983817193557    0.835838759649831    
  0.6801238367901613    0.4633795945418898    0.3734921323647875    0.12540940293062688    0.2034055755680032    
  0.4633795651559368    0.7308563862967707    0.7788442619019091    0.7234762369846991    0.6952784553080041    
  0.723476247717186    0.7788442543772475    0.7308562985946652    0.4633795564055171    0.2034055664875752    
  0.12540940293062688    0.0643070336484647    0.12540940226441777    0.373492151831715    0.6798707662998762    
  0.7523096134428364    0.6952783958311298    0.6642223796212243    0.6952784345541698    0.7523096550903864    
  0.6798707583427464    0.3734921520669093    0.12540939908743085    0.0643070336484647    0.12540940207449103    
  0.20340556784940808    0.4633795723140313    0.7308563053160683    0.7788442391264152    0.7234762240623508    
  0.695278433339028    0.723476246252675    0.7788442716003743    0.7308563319567352    0.46337955674964204    
  0.20340557536369563    0.12540940207449103    0.20340557500006343    0.29198329598774136    0.5476463319261343    
  0.7740682966754534    0.8022878846775165    0.7491553347053953    0.7234762855108069    0.7491553167399444    
  0.8022878968562038    0.7740682877796876    0.5476463407652277    0.291983297662422    0.20340557500006343    
  0.4633795566970787    0.5476463263649306    0.7370482873474186    0.8604677465591654    0.8531899471192343    
  0.8022878980104405    0.7788442728438282    0.8022878902495605    0.8531899797216588    0.8604677607447799    
  0.7370482214391642    0.5476463182542785    0.4633795566970787    0.7308562695883095    0.7740682189285332    
  0.8604676968241126    0.9031495774360437    0.8604676812045208    0.7740682135688853    0.730856322805249    
  0.7740682013794903    0.8604676896356701    0.9031496201944271    0.8604676772028749    0.7740681860049565    
  0.7308562695883095    0.7788442682785484    0.8022878912969534    0.8531900025516725    0.8604677644146959    
  0.7370482451010184    0.5476463741882185    0.46337956360958854    0.547646341655175    0.7370482435074305    
  0.8604677611532875    0.8531899755050638    0.8022879089896874    0.7788442682785484    0.7234762905564321    
  0.7491553525400434    0.8022879277193582    0.7740683089050338    0.547646347244226    0.2919832811240318    
  0.20340558065658337    0.29198330317439625    0.5476463579698793    0.7740682805152981    0.8022879219305407    
  0.7491553517041902    0.7234762905564321    0.6952784387868298    0.7234762266823965    0.7788442684487065    
  0.7308563097671325    0.4633795541988407    0.20340556365625279    0.12540941161626545    0.203405564829403    
  0.46337957506827393    0.7308563059225485    0.7788442691678652    0.7234762645672637    0.6952784387868298    
  0.7234762702369111    0.7491553483375456    0.802287883781299    0.7740682953413827    0.5476463316524598    
  0.29198327737947793    0.20340558509392415    0.29198329440170817    0.5476463169710496    0.7740682645298765    
  0.802287882475149    0.74915531964867    0.7234762702369111    0.7788442610197919    0.8022879053450088    
  0.8531900134120891    0.860467752751069    0.7370482574380305    0.5476463336199467    0.46337959236515974    
  0.5476463496481077    0.7370482712404914    0.8604677141116461    0.8531899659754105    0.8022878662659467    
  0.7788442610197919    0.7308562978530504    0.7740682195308112    0.8604676485232413    0.903149602119212    
  0.8604677162412382    0.7740681874563633    0.7308562995988106    0.7740682502913141    0.8604677434732537    
  0.9031496308460809    0.8604677201378977    0.7740682357219748    0.7308562978530504    0.4633795725563927    
  0.547646307998221    0.7370482505406937    0.860467721642261    0.8531899644991648    0.8022879035678566    
  0.7788442632206285    0.8022878923951686    0.8531899490015262    0.8604677447263196    0.7370482978853204    
  0.5476463527872186    0.4633795725563927    0.20340556691756856    0.29198329178893995    0.5476463423334959    
  0.7740683404343335    0.8022879215336672    0.7491553117017093    0.7234762854356742    0.7491553238483537    
  0.8022878999322663    0.7740682495035021    0.547646355057601    0.29198329299460263    0.20340556691756856    
  0.12540940207449103    0.20340556784940808    0.4633795723140313    0.7308563053160683    0.7788442391264152    
  0.7234762240623508    0.695278433339028    0.723476246252675    0.7788442716003743    0.7308563319567352    
  0.46337955674964204    0.20340557536369563    0.12540940207449103    0.37349215234723965    0.4633795623378953    
  0.680123800614218    0.8358387641618958    0.835598409041236    0.7788442069358422    0.7523096519652013    
  0.778844242381741    0.8355984140272289    0.8358387579555804    0.6801238087163454    0.4633795761090934    
  0.37349215234723965    0.4633795921280094    0.5476463167789062    0.7370482590323735    0.8604677498094045    
  0.8531899273745209    0.8022878904187545    0.7788442613857205    0.8022878885734541    0.8531899533008226    
  0.860467770165998    0.7370482296580673    0.5476463483213805    0.4633795921280094    0.6801238092767129    
  0.7370482364356068    0.8478131713886583    0.9050751640430107    0.8903722028936816    0.8531899496411582    
  0.8355984445963424    0.853189939504729    0.8903722121801919    0.905075143288039    0.8478131463204359    
  0.7370482028339117    0.6801238092767129    0.8358386932651072    0.8604676779643118    0.9050750991906913    
  0.924810127415504    0.9050750883658025    0.8604676784442417    0.8358387413612101    0.8604676851830613    
  0.9050751204638274    0.9248101490530128    0.9050750754966168    0.860467632102909    0.8358386932651072    
  0.8355984172193102    0.8531899620417933    0.8903722221772957    0.9050751651149929    0.8478131513130729    
  0.7370482450495124    0.680123836427348    0.7370482418017829    0.8478131620352585    0.9050751635122495    
  0.8903722072207935    0.8531899577602129    0.8355984172193102    0.778844287951446    0.8022879041167493    
  0.8531900055076892    0.8604677904927088    0.7370482661685895    0.5476463302854898    0.4633795875979144    
  0.5476463478314152    0.7370482656382303    0.8604677683894033    0.8531899661407532    0.8022879274269591    
  0.778844287951446    0.7523096447694587    0.7788442228491393    0.8355984186079111    0.8358387579617735    
  0.6801238082639413    0.46337954126938496    0.3734921630507747    0.4633795655891162    0.6801238203357359    
  0.8358387222104006    0.8355984088434707    0.7788442582834144    0.7523096447694587    0.7788442900816943    
  0.8022878852502369    0.85318997271935    0.8604677497649267    0.7370482454649296    0.5476463214220435    
  0.46337958886128094    0.5476463379221616    0.7370482234072533    0.8604677059601994    0.8531899579516641    
  0.802287890810706    0.7788442900816943    0.835598394842223    0.8531899546580781    0.8903722237188857    
  0.9050751768683786    0.8478131666495482    0.7370482227067074    0.6801238556910185    0.7370482594144326    
  0.8478131740170982    0.9050751434721857    0.8903721937424945    0.8531899360529231    0.835598394842223    
  0.8358387166557348    0.8604676713523132    0.9050750840038116    0.924810086878425    0.9050751225897633    
  0.8604676437625086    0.8358387574986811    0.8604677009350784    0.9050751371738589    0.9248101353369559    
  0.9050751386785493    0.8604676838205417    0.8358387166557348    0.6801238118492339    0.7370482252832021    
  0.847813140902743    0.9050751632926529    0.8903722204506967    0.8531899562842788    0.8355984107649168    
  0.8531899739950598    0.8903721456947757    0.9050751472144001    0.8478131956858432    0.7370482585401242    
  0.6801238118492339    0.46337957281240544    0.5476463291916103    0.7370482893219796    0.8604677947988554    
  0.8531899643609411    0.8022878819440955    0.7788442688160699    0.8022878987289538    0.8531899281274562    
  0.8604677225190979    0.7370482457734294    0.5476463459322921    0.46337957281240544    0.37349215234723965    
  0.4633795623378953    0.680123800614218    0.8358387641618958    0.835598409041236    0.7788442069358422    
  0.7523096519652013    0.778844242381741    0.8355984140272289    0.8358387579555804    0.6801238087163454    
  0.4633795761090934    0.37349215234723965    0.6798707356600363    0.7308562541800155    0.8358387049178931    
  0.8893209006577751    0.8358386918476368    0.7308562558383627    0.67987074575901    0.7308562900891689    
  0.8358387055110369    0.8893208736774364    0.8358386915524474    0.7308562589804661    0.6798707356600363    
  0.7308562943048088    0.7740682246725349    0.8604676873728191    0.903149631007334    0.860467699688224    
  0.7740682537229789    0.7308563194907497    0.7740682062129102    0.8604676926363178    0.9031496194033122    
  0.8604676777016729    0.7740682379283136    0.7308562943048088    0.8358387044708179    0.8604676736047127    
  0.9050751356054473    0.9248101280050076    0.9050751106862742    0.8604677008779094    0.8358387560886962    
  0.860467673387862    0.9050751250634907    0.9248101181823065    0.9050750861887636    0.8604676742141336    
  0.8358387044708179    0.8893208277672714    0.9031495313764188    0.9248100313264049    0.9325637604165237    
  0.9248100482238301    0.9031495356681051    0.889320877862283    0.9031495281933438    0.924810063565364    
  0.932563788923639    0.9248100223243496    0.9031494914652588    0.8893208277672714    0.8358387031400335    
  0.860467672412109    0.9050751299017652    0.9248100932325257    0.9050750818776017    0.8604677027395929    
  0.8358387010521324    0.8604676759275619    0.9050750789656004    0.9248101298374793    0.9050750967542871    
  0.8604677062819472    0.8358387031400335    0.7308562953597902    0.7740682344526739    0.8604677210718693    
  0.903149640592897    0.8604677210151059    0.7740681904980026    0.730856298833648    0.7740682065972699    
  0.8604677170576986    0.9031495919015959    0.860467670260731    0.7740682333924758    0.7308562953597902    
  0.6798707447906998    0.730856242279233    0.835838709463907    0.889320881473852    0.8358386868885544    
  0.7308562403520115    0.6798707365368718    0.730856289724819    0.835838699461873    0.8893208548976702    
  0.8358387203503935    0.7308562791403278    0.6798707447906998    0.7308562646620224    0.7740682237784774    
  0.8604677040002415    0.9031496330309345    0.8604676735379899    0.774068219664585    0.7308563085506797    
  0.7740682145173535    0.8604676471419617    0.9031496100663369    0.8604676684129701    0.7740682318219823    
  0.7308562646620224    0.8358387181232134    0.8604676709112604    0.9050751373891784    0.9248101176267662    
  0.9050751183017817    0.8604676703593599    0.8358387295612898    0.8604677223284386    0.9050751175518499    
  0.9248100811054403    0.905075109555638    0.8604676587955152    0.8358387181232134    0.8893208029254526    
  0.9031495265844092    0.9248099991683473    0.9325637752044155    0.9248100523012878    0.9031495179335958    
  0.8893208731438114    0.90314954108931    0.9248100453871706    0.9325637868018676    0.9248100775405432    
  0.9031495420151061    0.8893208029254526    0.8358386996638316    0.8604676696199008    0.9050751183588556    
  0.9248101245541236    0.9050751080921364    0.8604677064076905    0.8358387114086584    0.8604676887185944    
  0.9050750486450727    0.924810082707869    0.9050751214794256    0.8604677171957497    0.8358386996638316    
  0.7308562589222091    0.7740682645166493    0.8604677082873482    0.9031496799172111    0.8604677199914045    
  0.7740682037656611    0.7308563279071649    0.774068217421491    0.8604676944846549    0.9031495624567473    
  0.8604676848118935    0.774068212454648    0.7308562589222091    0.6798707356600363    0.7308562541800155    
  0.8358387049178931    0.8893209006577751    0.8358386918476368    0.7308562558383627    0.67987074575901    
  0.7308562900891689    0.8358387055110369    0.8893208736774364    0.8358386915524474    0.7308562589804661    
  0.6798707356600363    0.7523096284538786    0.7788442516482592    0.8355984054513821    0.8358387352272242    
  0.6801237964527729    0.4633795493093849    0.3734921718490132    0.46337956525221713    0.6801238173216492    
  0.8358387571106934    0.8355983952658195    0.7788442653365123    0.7523096284538786    0.7788442970348303    
  0.802287889650994    0.8531899498295195    0.8604677642028166    0.7370482280471998    0.5476463498942817    
  0.4633795837690166    0.5476463306413363    0.7370482259868479    0.8604677573513103    0.8531899628988121    
  0.8022878977807634    0.7788442970348303    0.8355984227114412    0.8531899393796724    0.8903722091731485    
  0.9050751589903291    0.8478131727308931    0.7370482690852997    0.6801238597798268    0.7370482506061663    
  0.8478131917704529    0.9050751847695019    0.8903721870617862    0.8531899461045774    0.8355984227114412    
  0.8358387034438011    0.8604676605739395    0.9050751112012853    0.9248101150068206    0.905075077430115    
  0.8604676966286327    0.8358387606976561    0.8604676861941088    0.9050751211220192    0.9248101565254779    
  0.9050750861800997    0.8604676530763706    0.8358387034438011    0.6801238145218874    0.7370482424777707    
  0.8478131926814777    0.9050751646339019    0.8903722061242778    0.8531899756438719    0.8355984230547964    
  0.8531899578088988    0.8903721922790235    0.9050751576642823    0.8478131679160165    0.7370482337515168    
  0.6801238145218874    0.4633795754227316    0.547646349436768    0.7370482889282784    0.8604677892772925    
  0.8531899719016209    0.802287878230215    0.7788442623637181    0.8022879154079742    0.8531899607360203    
  0.8604677496172392    0.7370482389846044    0.5476463449058739    0.4633795754227316    0.3734921451780736    
  0.46337954705798423    0.6801238042473733    0.8358387666673629    0.8355983875403498    0.7788442236721264    
  0.7523096552689711    0.7788442453649618    0.8355984369154138    0.835838727991092    0.6801238068004319    
  0.46337956973427985    0.3734921451780736    0.46337958556238207    0.5476463260681402    0.7370482681052039    
  0.860467751260323    0.853189954627487    0.8022878601911062    0.7788442915389643    0.802287901596569    
  0.8531899435475335    0.8604677242982013    0.7370482447803091    0.5476463286515085    0.46337958556238207    
  0.6801237934854865    0.7370482604476409    0.8478131802432294    0.9050751823210663    0.8903722125846171    
  0.8531899612665953    0.8355984518857904    0.8531899908037356    0.890372223201448    0.905075153736167    
  0.8478131756400015    0.7370482211490709    0.6801237934854865    0.8358387328693846    0.8604676647579406    
  0.9050750758825937    0.9248100961162817    0.9050751248177239    0.8604676631894653    0.8358387526246805    
  0.860467679898758    0.9050751322723646    0.9248101221812015    0.9050751390197639    0.8604676931237157    
  0.8358387328693846    0.8355984061233324    0.853189946926156    0.8903722164947919    0.9050751496212518    
  0.8478131513403074    0.7370482490187802    0.6801238224395487    0.7370482500656756    0.8478131015552633    
  0.9050751263882993    0.8903722485693635    0.8531899741114045    0.8355984061233324    0.7788442543431755    
  0.8022878874081483    0.8531899846736105    0.8604678051675485    0.737048253019366    0.5476463343043483    
  0.46337959480747926    0.5476463425109636    0.7370482248078418    0.8604676798899392    0.85318996428064    
  0.8022878803492856    0.7788442543431755    0.7523096284538786    0.7788442516482592    0.8355984054513821    
  0.8358387352272242    0.6801237964527729    0.4633795493093849    0.3734921718490132    0.46337956525221713    
  0.6801238173216492    0.8358387571106934    0.8355983952658195    0.7788442653365123    0.7523096284538786    
  0.695278447942068    0.7234762297957982    0.7788442571450791    0.7308562876796024    0.46337955881173504    
  0.20340555921342943    0.12540939951223898    0.20340557242155963    0.4633795646304173    0.73085631171242    
  0.7788442148976985    0.7234762505879816    0.695278447942068    0.7234762823189256    0.7491553402081202    
  0.8022878972975995    0.7740682650326102    0.5476463153523206    0.29198329232804715    0.203405576889024    
  0.2919832891929463    0.5476463351926462    0.7740683020007048    0.802287885077412    0.7491553410487625    
  0.7234762823189256    0.7788442508180401    0.8022878803569078    0.853189991589958    0.8604677307991332    
  0.7370482305769366    0.5476463356426188    0.46337959394734823    0.5476463312761648    0.7370482643059882    
  0.8604677634419186    0.8531899586697358    0.8022878731898478    0.7788442508180401    0.7308562716233329    
  0.774068223479097    0.8604676793024661    0.9031495928196217    0.8604677077661076    0.7740682205267753    
  0.7308563333262686    0.7740682273675292    0.8604677238531516    0.9031496388458304    0.8604676790706525    
  0.7740681859872294    0.7308562716233329    0.4633795733965378    0.5476463232825661    0.7370482899224375    
  0.8604677780282631    0.8531899663312557    0.8022879315540037    0.7788442536708164    0.8022878993519311    
  0.8531899587892874    0.8604677576530502    0.7370482280499459    0.5476463430965444    0.4633795733965378    
  0.20340556856903952    0.2919832988651831    0.5476463730555166    0.774068310482586    0.8022879283617748    
  0.7491553061039774    0.723476288120924    0.7491553562607626    0.802287928292262    0.7740682837755237    
  0.5476463289601408    0.291983296044708    0.20340556856903952    0.1254094046404442    0.20340555173643876    
  0.46337956759369353    0.7308563154521774    0.7788442458395424    0.7234762202879572    0.6952784467327648    
  0.7234762603082593    0.7788442645349588    0.7308562964539164    0.46337956818651727    0.20340555877225014    
  0.1254094046404442    0.20340556774054566    0.2919833010336708    0.5476463354071615    0.7740683173774195    
  0.8022878917713646    0.7491553080645663    0.7234762723159287    0.7491553561231273    0.8022878703204688    
  0.7740682703510374    0.5476463167676032    0.2919832854846991    0.20340556774054566    0.46337957129509133    
  0.5476463212412048    0.7370483113330357    0.8604677560019558    0.8531899913970967    0.802287868377514    
  0.7788443093495199    0.8022879149023358    0.8531899968512515    0.8604677206303184    0.7370482414867089    
  0.5476463119660803    0.46337957129509133    0.7308562975635744    0.7740682579236128    0.860467667109768    
  0.9031495903276339    0.8604677126724668    0.7740681987594137    0.7308563162569119    0.7740682411559018    
  0.8604677302769419    0.9031496232765274    0.8604677280836069    0.7740682544322277    0.7308562975635744    
  0.7788442600392351    0.8022878515513836    0.8531899784406574    0.8604677314456238    0.7370482541472884    
  0.5476463394851511    0.4633795692316698    0.5476463395223963    0.7370482243563374    0.860467736966954    
  0.8531900090780044    0.8022879260429338    0.7788442600392351    0.7234762459706062    0.7491553566423035    
  0.8022879185293821    0.7740683148083002    0.5476463204567064    0.29198328104487514    0.20340557300017054    
  0.2919832955292078    0.5476463268109266    0.7740682493939539    0.8022878976757112    0.7491553273952436    
  0.7234762459706062    0.695278447942068    0.7234762297957982    0.7788442571450791    0.7308562876796024    
  0.46337955881173504    0.20340555921342943    0.12540939951223898    0.20340557242155963    0.4633795646304173    
  0.73085631171242    0.7788442148976985    0.7234762505879816    0.695278447942068    0.66422237469588    
  0.6952784126480729    0.7523096311050017    0.6798707591945112    0.37349213875243775    0.12540940099518633    
  0.06430703854659169    0.12540941324356458    0.3734921561953134    0.6798707525886528    0.752309631217763    
  0.6952783931832516    0.66422237469588    0.6952784644689483    0.7234762553117108    0.7788442320330021    
  0.7308563320284682    0.4633795443683846    0.20340556420771438    0.12540941185104207    0.20340555201170862    
  0.4633795594761141    0.7308563346800894    0.7788442140611284    0.7234762399740865    0.6952784644689483    
  0.7523096334404438    0.778844238595353    0.8355984185224473    0.8358387670927154    0.6801238102099629    
  0.46337956134460834    0.37349217495469605    0.46337954184287805    0.680123829421131    0.8358387580279543    
  0.8355983850276286    0.77884421235249    0.7523096334404438    0.6798707220127624    0.7308562664730432    
  0.8358386966083691    0.8893208864888434    0.8358386904697501    0.7308562662932448    0.6798707523700042    
  0.7308562769533364    0.835838698844357    0.8893209061168055    0.8358386694858871    0.7308562337313994    
  0.6798707220127624    0.3734921417081635    0.463379561088724    0.6801238050905107    0.8358387274490566    
  0.8355984065395528    0.7788442353991105    0.7523096407004657    0.7788442128209301    0.8355984027821914    
  0.8358387683170299    0.6801238071570092    0.4633795517521001    0.3734921417081635    0.12540941388942187    
  0.20340557356339317    0.4633795803607556    0.7308563378611854    0.778844268619369    0.7234762243041541    
  0.6952784283840736    0.7234762508414456    0.7788442782540117    0.7308563042089814    0.46337955376930384    
  0.20340556713394717    0.12540941388942187    0.06430702987994295    0.12540939501650095    0.37349213384360624    
  0.679870765653997    0.752309602972455    0.6952783749561786    0.6642223750170572    0.6952784362335691    
  0.7523096488312075    0.6798707553381594    0.37349214789069746    0.12540941305474343    0.06430702987994295    
  0.12540941047386817    0.20340554808024944    0.46337957878591557    0.7308563301281601    0.7788442369516552    
  0.723476242144103    0.6952784513191583    0.7234762398348537    0.778844221779553    0.7308562940618313    
  0.4633795426440004    0.20340555436403884    0.12540941047386817    0.37349213631079053    0.46337957247041583    
  0.6801238150391926    0.8358387791658898    0.8355984209246554    0.7788442426432217    0.7523096503979099    
  0.7788442785319036    0.8355984392567313    0.8358387416084075    0.6801237702060364    0.46337953362690704    
  0.37349213631079053    0.6798707425649548    0.7308562345687677    0.8358386736966911    0.8893208662408376    
  0.8358387202013823    0.7308562638177176    0.6798707747131949    0.7308562854020445    0.8358387332374748    
  0.8893208966125753    0.8358387534061607    0.7308562668674636    0.6798707425649548    0.752309609985632    
  0.778844235680878    0.835598390407172    0.8358387581843156    0.6801238130105696    0.46337956825359106    
  0.37349213824700284    0.46337956067435393    0.6801237648496075    0.8358387523873689    0.8355984491419476    
  0.778844290704385    0.752309609985632    0.6952784109535294    0.7234762622768904    0.7788442511232101    
  0.7308563730197901    0.4633795749677823    0.2034055631007579    0.12540941395897973    0.2034055622926645    
  0.4633795691046564    0.7308562877151913    0.7788442382348232    0.7234762455202698    0.6952784109535294    
  0.66422237469588    0.6952784126480729    0.7523096311050017    0.6798707591945112    0.37349213875243775    
  0.12540940099518633    0.06430703854659169    0.12540941324356458    0.3734921561953134    0.6798707525886528    
  0.752309631217763    0.6952783931832516    0.66422237469588    0.6952784417339286    0.7234762571820291    
  0.7788442646791608    0.7308563050343971    0.4633795559240864    0.203405560335409    0.12540940279824175    
  0.20340556927491163    0.46337958253717176    0.7308563249619457    0.7788442408597799    0.7234762766532266    
  0.6952784417339286    0.7234762915773434    0.7491553431826545    0.8022878951524998    0.7740683038957773    
  0.5476463275357067    0.2919832910483429    0.20340557960336958    0.29198329093482367    0.5476463336936699    
  0.7740682848738673    0.8022878987711924    0.7491553455580696    0.7234762915773434    0.77884425838902    
  0.8022878919532175    0.853190005828386    0.8604677504959607    0.7370482371183824    0.5476463306604092    
  0.4633795695606687    0.5476463300208003    0.7370482592303422    0.8604677595743105    0.853189929074564    
  0.802287875425374    0.77884425838902    0.7308562720252041    0.774068213478983    0.8604676962732823    
  0.9031495712309603    0.8604676845505321    0.7740682068213506    0.7308563253030665    0.7740682109404744    
  0.8604676995799854    0.9031496172774831    0.860467671288887    0.7740681869567733    0.7308562720252041    
  0.4633795718491271    0.5476463232477686    0.7370482851675308    0.8604677505977643    0.8531899518975181    
  0.8022879343541188    0.7788442548747985    0.8022879035044229    0.8531899572781024    0.8604677532391768    
  0.7370482576449829    0.5476463312369312    0.4633795718491271    0.20340557439085363    0.2919833062781523    
  0.547646356359687    0.77406830286244    0.8022879021653838    0.7491553058182597    0.723476281301573    
  0.7491553554422576    0.8022879236020526    0.7740682723175527    0.5476463449562602    0.29198330310247556    
  0.20340557439085363    0.12540940925344424    0.20340554688301754    0.4633795746742178    0.7308563064088555    
  0.7788442357485013    0.7234762316211463    0.6952784619373138    0.7234762379193188    0.7788442657466198    
  0.7308562939296755    0.4633795812814582    0.20340556554977973    0.12540940925344424    0.20340557033792564    
  0.2919833040885165    0.547646326176106    0.7740682975833548    0.8022878940248082    0.7491553088320558    
  0.7234762968562811    0.7491553441157472    0.8022878687240659    0.7740682598712985    0.547646319770232    
  0.2919832862237485    0.20340557033792564    0.4633795605256971    0.5476463338462837    0.7370482978611551    
  0.860467759413735    0.8531899784510854    0.8022878996438239    0.7788443120966813    0.8022879193429752    
  0.8531899815836836    0.8604677168328537    0.7370482431037517    0.5476463027284175    0.4633795605256971    