#     DFTpy    
  CRYSTAL 
    
  PRIMVEC    
  5.467448275862069    0.0    0.0    
  0.0    5.467448275862069    0.0    
  0.0    0.0    5.467448275862069    
  PRIMCOORD    
  8    1    
  Si    0.0    0.0    0.0    
  Si    1.3668620689655173    1.3668620689655173    1.3668620689655173    
  Si    0.0    2.7337241379310346    2.7337241379310346    
  Si    1.3668620689655173    4.100586206896552    4.100586206896552    
  Si    2.7337241379310346    0.0    2.7337241379310346    
  Si    4.100586206896552    1.3668620689655173    4.100586206896552    
  Si    2.7337241379310346    2.7337241379310346    0.0    
  Si    4.100586206896552    4.100586206896552    1.3668620689655173    
  BEGIN_BLOCK_DATAGRID_3D    
  3d_datagrid_density    
  BEGIN_DATAGRID_3D#0    
  25    25    25    
  0.0    0.0    0.0    
  5.467448275862069    0.0    0.0    
  0.0    5.467448275862069    0.0    
  0.0    0.0    5.467448275862069    
  0.05721344426811226    0.10077753248717661    0.25352828182080905    0.39212447374070636    0.35202522079486787    
  0.23977541001253455    0.15334615529078297    0.10177164251369177    0.07316105200489216    0.057697537007553056    
  0.0494479514698435    0.04536248204202675    0.044129882661850604    0.04536248326753204    0.04944795377764458    
  0.05769754164169346    0.07316103194335573    0.10177164743405782    0.15334616745065008    0.2397754129202689    
  0.35202522950919046    0.39212445666723855    0.2535282532222217    0.10077752954096963    0.05721344426811226    
  0.10077751282520762    0.1518089534655591    0.3000863543724356    0.4035216837589175    0.3466140128009235    
  0.23662826214000388    0.15362108200379    0.10342366438942298    0.07502996698559343    0.059386731024055714    
  0.05088646667836854    0.04664454521661368    0.04536248425324566    0.04664455335629705    0.05088647391133553    
  0.05938673762151814    0.07502995962549963    0.10342365579675489    0.15362110313272678    0.23662822052299354    
  0.3466140586177712    0.403521656593707    0.300086353853487    0.15180895312566975    0.10077751282520762    
  0.2535282891299616    0.3000863370282755    0.39186744689852593    0.40783347835010175    0.3257550460417697    
  0.22694110761695357    0.15409492041039805    0.10814174035461623    0.08074179543273684    0.06477244298735396    
  0.0556095553535052    0.050886464278134716    0.04944796583500029    0.050886458374239434    0.05560957668433654    
  0.06477245330770276    0.08074179363879323    0.10814174885385353    0.1540949156907437    0.22694113533178387    
  0.32575507437447715    0.40783349891675347    0.391867422457968    0.30008631528526725    0.2535282891299616    
  0.39212438976324926    0.40352175346041375    0.4078334949305415    0.364107002429227    0.2862406148866288    
  0.21106193537275791    0.15429237480667413    0.11565223089744814    0.09063224527860858    0.07468316788562648    
  0.06477244975424357    0.05938673270758558    0.057697533081787364    0.05938673051971201    0.06477242842661306    
  0.07468317387289153    0.09063222134406826    0.11565222868642706    0.15429239645953985    0.21106192361943948    
  0.2862406391410528    0.3641069976645781    0.40783348760662036    0.4035217529296172    0.39212438976324926    
  0.3520253623814141    0.3466139552327328    0.3257551516404384    0.2862406254262822    0.2373903378223733    
  0.1915480939382343    0.15409496594681396    0.12573168086508585    0.10523553875683542    0.09063224269405878    
  0.08074178394743828    0.07502996266058369    0.07316104606989167    0.07502996370963047    0.08074178973266574    
  0.09063224476972562    0.10523553046565058    0.12573168699568243    0.15409495278045335    0.19154810380189738    
  0.23739035885269888    0.2862405686387584    0.3257551442770922    0.3466139408144577    0.3520253623814141    
  0.23977530563839897    0.23662833318375873    0.22694104690891742    0.21106198880647611    0.19154806791957668    
  0.17174334566198365    0.15362107008174228    0.13825274093828002    0.12573171607440808    0.11565220826444118    
  0.10814177255317742    0.10342363889156125    0.10177166040694686    0.1034236418440904    0.10814177347658292    
  0.11565222409535902    0.12573170975140247    0.1382527407173431    0.15362105771011705    0.17174334239890815    
  0.19154807424593687    0.21106197064084642    0.22694105946115878    0.23662832433720063    0.23977530563839897    
  0.15334625894040654    0.15362099533137336    0.1540950137770636    0.15429233614122015    0.1540949636379952    
  0.15362108796090693    0.15334618171371148    0.1536210828706482    0.1540949237421334    0.1542924073518538    
  0.15409487424735163    0.15362112209140819    0.15334613173497166    0.15362114599535778    0.1540948782452514    
  0.15429239922614166    0.15409489676517443    0.15362109550113792    0.15334619097344426    0.1536210575598619    
  0.15409498104695454    0.15429229839295042    0.1540950119655912    0.1536209937924518    0.15334625894040654    
  0.10177155278614466    0.10342375835738633    0.1081416791533299    0.11565229791229871    0.1257316295966586    
  0.13825278060558713    0.15362107338686073    0.17174329749189843    0.19154815851264256    0.21106188316377725    
  0.22694118574017988    0.23662813427054555    0.23977546030198527    0.23662814327184428    0.2269412020533013    
  0.2110618886775773    0.1915481487146222    0.17174331470480692    0.15362107086837415    0.13825279210973634    
  0.12573164303913395    0.11565230474181462    0.10814166966557413    0.10342377089711974    0.10177155278614466    
  0.07316113703472674    0.07502987014713042    0.08074187282456444    0.09063218450728829    0.10523559179193673    
  0.12573167798661528    0.15409492335972924    0.19154815129235334    0.23739029432261483    0.2862407423998505    
  0.3257549412167917    0.34661417904436387    0.35202512357160787    0.34661414906296123    0.32575494795379    
  0.2862407421256973    0.23739026998621518    0.19154813554570527    0.15409493546868977    0.12573168056434098    
  0.10523559849855821    0.09063215319053475    0.08074188674373141    0.07502986483017024    0.07316113703472674    
  0.05769744102883326    0.05938681655878923    0.06477236211451083    0.07468325250395244    0.09063218483045582    
  0.1156522569196597    0.15429240975810338    0.21106188302161905    0.28624073650782583    0.36410684154840883    
  0.4078336894681828    0.4035215246226106    0.3921246317626646    0.40352150083849336    0.4078336453717831    
  0.3641068628470781    0.28624066575446155    0.21106191487366616    0.15429238903883472    0.11565226922941567    
  0.09063218567007124    0.07468322831471626    0.06477235808131641    0.059386833588729315    0.05769744102883326    
  0.049448055701263906    0.05088637753645243    0.055609633283016525    0.06477238148568841    0.08074182800294695    
  0.10814172987223214    0.15409493514069517    0.2269411647274375    0.32575496382521457    0.40783368405406395    
  0.39186722275755786    0.300086541568289    0.2535280888158311    0.3000865238226819    0.391867231883895    
  0.4078336706759209    0.32575497234827355    0.2269411439365295    0.15409493081203562    0.10814171928976196    
  0.08074185304280687    0.06477237538393332    0.0556096496408127    0.05088637244955487    0.049448055701263906    
  0.04536238966305576    0.046644642382139966    0.0508863937234739    0.05938679208660326    0.07502990316821134    
  0.10342370600690717    0.15362111022598735    0.23662814743334282    0.34661419062035603    0.4035215168822315    
  0.300086517047564    0.1518087892662762    0.10077764546786816    0.1518087938556082    0.3000865515168785    
  0.4035215304899272    0.346614121849004    0.23662820838117274    0.15362107217310164    0.103423735550548    
  0.07502989032630844    0.05938682496606514    0.05088638292235602    0.04664464386439857    0.04536238966305576    
  0.04412997527156174    0.045362383628228115    0.049448043072807986    0.05769745499543699    0.07316108632817937    
  0.10177161554941087    0.1533461576374263    0.23977542739555505    0.3520251703200134    0.39212460644190306    
  0.25352810636211714    0.10077763491774296    0.057213342409660396    0.10077763732347854    0.25352809994818126    
  0.3921245924486939    0.3520251186196488    0.23977542227175844    0.15334618170349437    0.1017715828341875    
  0.07316111812134432    0.05769744775104543    0.049448046870421064    0.04536238182142166    0.04412997527156174    
  0.04536238816445696    0.04664463767979307    0.050886382459632194    0.05938681174320234    0.07502989367029564    
  0.10342370867905534    0.1536211099981618    0.2366281595544565    0.34661418700879215    0.40352149855434416    
  0.3000865532695844    0.151808778514308    0.10077765513466909    0.1518088061835435    0.30008652404706565    
  0.4035215651265805    0.34661412520746165    0.2366281922263119    0.15362108536637104    0.10342369831109167    
  0.07502989211921555    0.059386813655711954    0.05088638036261514    0.046644654011364785    0.04536238816445696    
  0.049448045167837    0.05088637664365821    0.05560964839218411    0.0647723788916275    0.08074184559122509    
  0.1081417336279163    0.15409492501524422    0.22694115001386447    0.32575495300898216    0.4078337173500324    
  0.39186719383375296    0.3000865955345123    0.25352809643645513    0.3000865409013543    0.39186718862502984    
  0.4078337148392757    0.3257549340086474    0.22694116587456142    0.15409492672855973    0.10814171960613457    
  0.08074185212219787    0.06477236752122933    0.05560967048022741    0.05088636902598812    0.049448045167837    
  0.057697429878163016    0.0593868273451113    0.06477237722836578    0.07468325920406621    0.09063220202032818    
  0.11565225974178561    0.15429241103288566    0.21106185524047358    0.2862407879657667    0.3641067565611365    
  0.4078337731684743    0.4035215078485225    0.39212469078928763    0.403521490867425    0.4078337409925329    
  0.36410682720783955    0.2862407185585192    0.2110618854278171    0.15429238651016475    0.11565226053838368    
  0.09063219771173484    0.07468323517436175    0.06477235577150205    0.05938682662676072    0.057697429878163016    
  0.07316113110452736    0.07502987760075065    0.08074186460934966    0.09063219824349945    0.10523555658924123    
  0.1257316842359946    0.15409493891950193    0.19154815088109406    0.23739021082656625    0.28624079379273865    
  0.3257549167830224    0.3466142220187696    0.3520250618506594    0.34661422187171786    0.32575493509346787    
  0.2862407692744092    0.23739023267124737    0.19154815641254244    0.15409494135858054    0.12573167423794138    
  0.10523557189246398    0.09063216816613331    0.08074187261286273    0.07502987363979294    0.07316113110452736    
  0.10177155500636367    0.10342373701035289    0.10814168960408561    0.11565228588398122    0.12573167143122976    
  0.13825275097366682    0.15362110999381628    0.1717432487464146    0.1915482125133931    0.21106179346961063    
  0.22694125442066648    0.23662809191669176    0.2397755334051817    0.23662807521644044    0.2269412439309261    
  0.2110618003785129    0.19154818722091466    0.17174327218162413    0.1536211121489151    0.1382527445653138    
  0.12573166352864382    0.11565228041880714    0.10814168357173949    0.10342373204591705    0.10177155500636367    
  0.15334622637293105    0.1536210221642815    0.15409499638796412    0.1542923411435736    0.1540949222509628    
  0.15362110170810966    0.1533461250414944    0.15362113370713945    0.1540948715049513    0.15429245561824362    
  0.15409483374873403    0.15362119274477107    0.1533460674223885    0.1536211790999044    0.15409482985952638    
  0.1542924800029522    0.15409484927076902    0.15362113944586203    0.15334616792227884    0.15362106331712969    
  0.15409495118050645    0.15429234674737666    0.15409497779107836    0.15362100361225275    0.15334622637293105    
  0.23977532529800372    0.23662827178395177    0.2269410836208322    0.21106193106779084    0.1915480998963994    
  0.17174330659040782    0.1536211185652149    0.1382526811349226    0.12573175096058972    0.11565216836033235    
  0.1081418260614083    0.10342360360883941    0.1017717143532457    0.10342359468057913    0.10814182267642505    
  0.11565218393431594    0.12573172646728092    0.1382526940263212    0.1536211261612949    0.17174331053758068    
  0.19154810496581598    0.21106193831800607    0.22694108281817174    0.2366282772830428    0.23977532529800372    
  0.35202525440727167    0.34661399119815284    0.32575509815364734    0.28624065476394356    0.23739031153792017    
  0.19154814413120785    0.1540948875194686    0.12573174189132955    0.10523548816191575    0.0906322875917562    
  0.08074174458758135    0.07503001163787885    0.07316100461899579    0.07502999962499858    0.08074174041814842    
  0.09063229963678787    0.10523548273322927    0.12573173746984806    0.15409490994357683    0.1915481455243811    
  0.23739032946076447    0.28624064933426124    0.3257550851189311    0.3466139789141927    0.35202525440727167    
  0.3921244143878764    0.4035216883271503    0.4078335297385432    0.3641069551172276    0.2862406612797458    
  0.21106188315865798    0.15429243070638662    0.11565219203704707    0.09063229730785623    0.07468312917533783    
  0.06477248050489166    0.05938669762777285    0.05769757204982249    0.05938669361880513    0.06477247252095698    
  0.0746831388514217    0.09063224984749373    0.11565218841379991    0.15429243287170005    0.21106187876399035    
  0.2862406921393833    0.36410693070998235    0.40783353166860076    0.40352170657410846    0.3921244143878764    
  0.25352826801008377    0.3000863658512647    0.3918673779234469    0.40783356399538895    0.3257550322384109    
  0.22694116005541493    0.15409489800999984    0.10814177839064004    0.08074175844482989    0.06477245025685176    
  0.05560955000986261    0.05088647817942713    0.04944793736143451    0.05088648445440103    0.05560954223045319    
  0.06477246996121155    0.08074175897455137    0.10814178193136198    0.15409489752941294    0.22694115182479105    
  0.3257550172787597    0.4078335682140881    0.3918673933940832    0.30008637121862913    0.25352826801008377    
  0.1007775234816641    0.15180894425559052    0.3000863932734225    0.40352165898589676    0.34661403033159993    
  0.23662820674750107    0.15362110039262128    0.10342365489556349    0.0750299729849259    0.05938671786322714    
  0.050886480511630264    0.046644551091211024    0.045362498907595195    0.0466445250288476    0.050886478000698    
  0.05938672401822859    0.07502997770613962    0.10342364613481435    0.15362112280223572    0.23662821266401685    
  0.34661406364808767    0.40352163928994883    0.3000863838855524    0.15180893645642632    0.1007775234816641    
  0.05721344426811226    0.10077753248717661    0.25352828182080905    0.39212447374070636    0.35202522079486787    
  0.23977541001253455    0.15334615529078297    0.10177164251369177    0.07316105200489216    0.057697537007553056    
  0.0494479514698435    0.04536248204202675    0.044129882661850604    0.04536248326753204    0.04944795377764458    
  0.05769754164169346    0.07316103194335573    0.10177164743405782    0.15334616745065008    0.2397754129202689    
  0.35202522950919046    0.39212445666723855    0.2535282532222217    0.10077752954096963    0.05721344426811226    
  0.10077752659207227    0.15180894290329108    0.30008635878747164    0.40352169040180713    0.3466140149150963    
  0.23662822440275763    0.1536210965594902    0.10342365776131318    0.07502997691873307    0.05938671362842684    
  0.050886474162475596    0.04664455110246422    0.04536248569154569    0.04664455101041041    0.05088646868535632    
  0.05938673176675352    0.075029958084453    0.10342365867990105    0.15362112545706047    0.2366282354145001    
  0.3466140435590375    0.40352169844817026    0.30008635414894896    0.15180892412306915    0.10077752659207227    
  0.15180897438568938    0.2128174464345346    0.3596664275562924    0.4400361012572707    0.3706812126990905    
  0.25778020150516084    0.1717433130185129    0.11773224690827587    0.08566864600150145    0.06691687892306271    
  0.055884501103442355    0.049604721632868366    0.046644558824142056    0.04643463321550623    0.04918661686535268    
  0.05596513577357408    0.0692640129250249    0.09401831071741505    0.13825273682415568    0.21214936131675277    
  0.31372251970633896    0.3826914083146641    0.3215855799106914    0.1984638686405261    0.15180897438568938    
  0.3000863100924833    0.35966645881761167    0.452657274616855    0.4632038493079595    0.37722713705672356    
  0.2726485914643165    0.1915481272748583    0.13699069853460283    0.10186566555143317    0.07939243794168727    
  0.06491322657930469    0.05588450123395756    0.05088646203556883    0.049186613167438165    0.050739338249057395    
  0.056273232213538554    0.06768131594514819    0.08879287551698388    0.12573168026681958    0.18634116841442175    
  0.2726025361878877    0.3558187138333301    0.3716374131512436    0.32158560675351244    0.3000863100924833    
  0.4035217359118959    0.44003604431182847    0.46320388889306285    0.43232939191048353    0.3584063965150163    
  0.2781602018545455    0.2110619100696926    0.16052255163232143    0.12407635615035131    0.09794324672357664    
  0.0793924149390141    0.06691686630367424    0.05938673959882362    0.05596512680109003    0.0562732101353055    
  0.06058122620112231    0.07004604584502176    0.08708663897074301    0.11565225533877029    0.16052250513630334    
  0.22412112753486726    0.2978229234818947    0.35581877566684517    0.3826913634279435    0.4035217359118959    
  0.34661394598442946    0.37068132364080875    0.37722710650555646    0.3584064182038497    0.3193419350614935    
  0.27264861002223995    0.22694113837825783    0.18634113914440578    0.1522104828784282    0.12407634172004293    
  0.10186568326599822    0.0856686511500514    0.07502997336983251    0.06926401371689979    0.06768132096224612    
  0.07004605733723161    0.07674861185784025    0.0887928812061744    0.1081417225857071    0.1369907422754468    
  0.17636259925357506    0.2241211221723363    0.27260246815974    0.31372260295823223    0.34661394598442946    
  0.23662833049667592    0.2577801097745228    0.2726486756100319    0.2781601456438509    0.27264859265908004    
  0.2577801614928098    0.2366282485352556    0.21214939850330244    0.18634112279929405    0.16052259552391238    
  0.13699066383315436    0.11773229084779269    0.10342365718386884    0.09401831072973231    0.08879287231679422    
  0.08708665161864512    0.08879288781222168    0.09401828333835371    0.10342369888000882    0.11773220074475703    
  0.13699077105433283    0.16052246488001826    0.1863412492193878    0.2121492566883613    0.23662833049667592    
  0.15362099686158048    0.17174341149085057    0.19154805458737104    0.2110619730446252    0.22694103895069614    
  0.23662829958230924    0.23977540586438795    0.23662819919758454    0.22694117800135868    0.21106183707373272    
  0.19154817772487973    0.1717432601524481    0.15362115756517689    0.13825271022350902    0.1257317163703738    
  0.11565221237441871    0.10814171864267287    0.10342370197985491    0.10177160930295409    0.10342371987707341    
  0.1081416824277792    0.11565230258190749    0.12573160030206415    0.13825284286634812    0.15362099686158048    
  0.10342377757093894    0.117732155218849    0.13699078019684147    0.16052248225094817    0.18634116883494975    
  0.2121493601686727    0.23662823019868295    0.257780216402112    0.2726485499892394    0.2781603003659089    
  0.2726484993647121    0.257780280018514    0.23662816213840449    0.212149427274125    0.1863410981183303    
  0.16052258501807842    0.13699069156549    0.11773223867827937    0.10342372094260303    0.09401827183393317    
  0.08879295211976317    0.08708656712035666    0.08879296558455321    0.09401821480905494    0.10342377757093894    
  0.07502985643671538    0.08566874334900604    0.10186558488273563    0.12407643932075368    0.15221039264333303    
  0.18634118544511613    0.22694115420307934    0.2726485354177171    0.3193420917866024    0.35840622750425166    
  0.37722731388857095    0.3706810921201676    0.34661419013301525    0.3137224014920409    0.27260264266034834    
  0.22412103779753662    0.17636263586391318    0.13699071103790122    0.108141700982192    0.08879293655679578    
  0.07674856250230203    0.07004611655943603    0.06768123933611767    0.06926411561482905    0.07502985643671538    
  0.059386817125787104    0.06691677532612607    0.07939250510847161    0.09794319382183761    0.12407640638858244    
  0.1605225210943076    0.21106192594148382    0.27816026485354883    0.358406296070366    0.43232957347569656    
  0.46320369312578097    0.4400362645708079    0.4035215439717059    0.3826915803314639    0.35581857595466376    
  0.2978230762928665    0.22412100256220532    0.16052254793873189    0.11565226538725609    0.08708659434928585    
  0.07004611885148793    0.060581143142982796    0.05627329188779158    0.055965045717303694    0.059386817125787104    
  0.05088636939838305    0.0558845961543826    0.06491315874813174    0.07939250718586749    0.10186560142469758    
  0.13699071972123575    0.19154813043041702    0.2726485030952309    0.37722732864754394    0.4632036000139263    
  0.45265745781948574    0.3596662328648928    0.3000865424535994    0.32158542662345296    0.3716376192853837    
  0.3558186240937376    0.2726025755120379    0.186341141131495    0.12573166823560655    0.08879292130268136    
  0.06768124962248878    0.05627328653382197    0.05073924810837095    0.04918671205323637    0.05088636939838305    
  0.046644640239264686    0.049604625644298    0.05588459043606099    0.06691679006293633    0.08566870254986947    
  0.11773223185752552    0.17174330549450248    0.2577802407382196    0.37068112341645276    0.4400362402949028    
  0.35966620933170446    0.2128176256661402    0.15180880143989584    0.1984640175985196    0.32158542874306284    
  0.38269155015501394    0.3137224450345783    0.21214936707100343    0.13825274422541872    0.09401827958943695    
  0.06926408982021845    0.055965051466617705    0.04918670414843503    0.04643454018018041    0.046644640239264686    
  0.045362385896213026    0.04664464686192135    0.05088638979524411    0.05938680219417382    0.07502988281144371    
  0.1034237017159051    0.153621099977362    0.23662817928943564    0.3466141694405578    0.4035215029495757    
  0.30008659077057975    0.1518087988132332    0.10077765132950138    0.151808813164192    0.30008651833896655    
  0.403521506563773    0.3466140818365418    0.2366282084143153    0.1536210674980581    0.10342371215829356    
  0.07502988295409635    0.059386808843141195    0.050886371565644926    0.046644651609224916    0.045362385896213026    
  0.04664464866859531    0.04643453820935828    0.04918669410026697    0.055965078915789286    0.06926406754627822    
  0.0940182937437611    0.13825273707716673    0.21214942503753015    0.3137224390917143    0.38269158494164957    
  0.321585353051149    0.19846404213476349    0.1518088081084788    0.21281761534998095    0.3596662158767266    
  0.44003627125386047    0.37068112074778387    0.25778022520717414    0.17174333200608066    0.11773221549252452    
  0.08566872474185501    0.0669167835477102    0.055884595400871734    0.04960461896836924    0.04664464866859531    
  0.050886365675455035    0.049186701936333226    0.05073925933144457    0.05627327984209518    0.0676812547053056    
  0.08879289408365279    0.1257317078587675    0.18634110853498384    0.272602660459816    0.3558185429715175    
  0.3716376383919975    0.32158540391267987    0.30008656712212806    0.35966619810986544    0.4526574875201511    
  0.46320370292646124    0.377227290803031    0.2726485342354704    0.19154812365394608    0.13699075387023824    
  0.10186560433853395    0.0793925051968893    0.06491316104100017    0.055884585753647485    0.050886365675455035    
  0.05938683109898067    0.05596504543272945    0.05627328432292527    0.06058116744866074    0.0700460874073347    
  0.08708662607856113    0.11565220884769849    0.1605225839177582    0.22412100613857783    0.29782304210262406    
  0.3558185494287253    0.3826916185573036    0.403521483916374    0.44003630330081434    0.46320364114155077    
  0.4323296141790922    0.3584062392946279    0.27816027902377044    0.21106188840495446    0.16052251085462604    
  0.12407642469144306    0.09794315607215545    0.07939249377492454    0.06691678061591563    0.05938683109898067    
  0.07502987535775933    0.06926410855178358    0.06768124285133963    0.0700461031830322    0.07674857786944349    
  0.08879290958775779    0.10814176017798764    0.13699065440557417    0.17636271570747775    0.22412098006037243    
  0.27260272499213645    0.31372234976378355    0.34661422422829175    0.3706810205847439    0.37722738323037536    
  0.3584062365441792    0.319342075186461    0.27264851431687065    0.22694116668440983    0.18634118744746112    
  0.15221040840894462    0.12407642404310507    0.10186557685948458    0.08566874473737005    0.07502987535775933    
  0.10342376265087931    0.09401823715344201    0.0887929323791441    0.08708659757638622    0.08879292379760487    
  0.09401828570084973    0.10342369085269326    0.11773225683217743    0.13699064028250107    0.16052261110869973    
  0.18634103820871645    0.2121494949267247    0.2366280823444401    0.2577803349684646    0.2726484599668843    
  0.2781603198550236    0.27264848818772164    0.257780267495528    0.23662820805464344    0.21214936443828375    
  0.18634120273043553    0.160522495834694    0.13699078044129284    0.11773216341495372    0.10342376265087931    
  0.1536210177864304    0.13825280429628053    0.12573163208268986    0.11565227270330126    0.10814170917983393    
  0.1034236975373655    0.10177163422137951    0.10342364871071306    0.10814181275528754    0.11565213676144874    
  0.12573178070356192    0.13825262738920063    0.1536211886961841    0.17174319006963384    0.19154821130271632    
  0.2110618088194104    0.22694119304481852    0.23662817692576044    0.23977545221774668    0.23662822958255866    
  0.22694110112093063    0.2110619402624752    0.1915480698880464    0.1717433939615019    0.1536210177864304    
  0.23662829054607556    0.21214928345904144    0.18634120412643143    0.16052248930114757    0.1369907148353322    
  0.11773223595877819    0.10342366700481714    0.09401833627302801    0.0887928290322584    0.08708669777990966    
  0.08879281105452799    0.0940183779699804    0.10342360876394449    0.1177323357890619    0.13699061813906882    
  0.16052265387680953    0.1863410319604482    0.2121494173601357    0.23662817978744036    0.25778023279131024    
  0.2726485639343559    0.2781602085140812    0.2726486201456034    0.25778014148753875    0.23662829054607556    
  0.34661399160608874    0.31372256121617337    0.2726025243018537    0.22412109789067422    0.1763626557088985    
  0.1369907183792611    0.10814174293451868    0.08879286035119309    0.07674865931717446    0.07004600870111063    
  0.06768137253544121    0.0692639778787409    0.07503001768279777    0.08566859835415921    0.10186573374114001    
  0.12407633561015166    0.15221051159322416    0.18634108570870825    0.22694119400205248    0.2726485482262712    
  0.31934203801483846    0.3584063652380565    0.3772271565914081    0.3706812285955106    0.34661399160608874    
  0.40352172109521206    0.38269143163470337    0.3558187394272764    0.29782298601287593    0.22412107952739044    
  0.1605225427756649    0.11565221597059873    0.08708667963300232    0.07004603399387287    0.06058124423861547    
  0.05627319715908534    0.0559651645378404    0.05938670560355492    0.0669169085883142    0.07939236680608805    
  0.09794328912016687    0.12407628890165569    0.1605226050413197    0.21106187428748813    0.278160267687427    
  0.3584063324728668    0.43232945078394436    0.4632038229151838    0.44003607569872205    0.40352172109521206    
  0.30008639202819526    0.3215855603544658    0.3716374608213359    0.3558187068289388    0.2726025382192418    
  0.18634114081754707    0.12573172198583546    0.08879285095845421    0.06768134163450994    0.05627317652006334    
  0.05073936984773985    0.04918658336103205    0.050886492364258074    0.05588446773862322    0.06491327846331675    
  0.07939240099665759    0.1018657063558301    0.1369906492051022    0.19154817938717325    0.27264853988237014    
  0.37722724082749876    0.46320380259129346    0.45265732261857683    0.3596664058146613    0.30008639202819526    
  0.15180894840833836    0.1984638822097079    0.32158554627793573    0.38269144573139496    0.31372253331675715    
  0.21214936732401107    0.13825270281565208    0.09401832805069674    0.06926401863683095    0.05596514456480139    
  0.04918660342618613    0.04643463871942403    0.046644536741671086    0.04960473084265166    0.055884500628444175    
  0.06691689394848119    0.0856686297167048    0.11773229275056077    0.17174327220396612    0.2577802430133206    
  0.3706812103300704    0.44003611329112524    0.3596664068763951    0.2128174377711123    0.15180894840833836    
  0.10077752659207227    0.15180894290329108    0.30008635878747164    0.40352169040180713    0.3466140149150963    
  0.23662822440275763    0.1536210965594902    0.10342365776131318    0.07502997691873307    0.05938671362842684    
  0.050886474162475596    0.04664455110246422    0.04536248569154569    0.04664455101041041    0.05088646868535632    
  0.05938673176675352    0.075029958084453    0.10342365867990105    0.15362112545706047    0.2366282354145001    