#     DFTpy    
  CRYSTAL 
    
  PRIMVEC    
  2.935344827586207    0.0    0.0    
  0.0    2.935344827586207    0.0    
  0.0    0.0    2.935344827586207    
  PRIMCOORD    
  4    1    
  Si    0.0    0.0    0.0    
  Si    0.0    1.4676724137931034    1.4676724137931034    
  Si    1.4676724137931034    0.0    1.4676724137931034    
  Si    1.4676724137931034    1.4676724137931034    0.0    
  BEGIN_BLOCK_DATAGRID_3D    
  3d_datagrid_density    
  BEGIN_DATAGRID_3D#0    
  13    13    13    
  0.0    0.0    0.0    
  2.935344827586207    0.0    0.0    
  0.0    2.935344827586207    0.0    
  0.0    0.0    2.935344827586207    
  0.05908493284068138    0.12008409873529628    0.35966303569954855    0.6101487468245157    0.623838339641551    
  0.5516913605173117    0.5221398856646214    0.5516913695402168    0.6238382696164296    0.6101486244369947    
  0.3596630126875371    0.1200840733153575    0.05908493284068138    0.12008408860013166    0.19774657068748014    
  0.44184320013012174    0.6495964290829527    0.6471457465822759    0.5792820728479389    0.5516914348105408    
  0.5792820788097647    0.6471457224960617    0.6495964234686222    0.44184316162520837    0.197746568299971    
  0.12008408860013166    0.35966301830571673    0.4418432159512022    0.6223348271301465    0.7247440459388816    
  0.7019033218682411    0.647145762310426    0.6238383298991543    0.6471457782547778    0.7019032528671363    
  0.7247438953437398    0.622334882616102    0.44184323919809576    0.35966301830571673    0.6101487877869803    
  0.6495963159333848    0.7247439855876514    0.7596126018602616    0.7247440149242697    0.6495963450110689    
  0.6101487620534686    0.6495963454688096    0.7247439728463727    0.7596125611197936    0.7247439554777046    
  0.6495963650900424    0.6101487877869803    0.6238383908292626    0.6471457005373816    0.7019033033501825    
  0.7247439101271391    0.6223348253492595    0.44184317342138074    0.35966309687611386    0.44184322869939435    
  0.6223348935916171    0.724743911585062    0.7019032589266084    0.647145814058989    0.6238383908292626    
  0.5516914257604066    0.5792820766945949    0.6471456847206574    0.6495964813074158    0.4418431997852493    
  0.19774654444756978    0.12008411022327382    0.19774659393084182    0.4418431432154    0.6495963814907876    
  0.6471458189468552    0.579282148133086    0.5516914257604066    0.522139926151459    0.5516913333239274    
  0.6238383008871227    0.6101487576957169    0.3596630902371879    0.12008409568886956    0.05908491913421631    
  0.1200840974161096    0.3596630563881584    0.6101487655410398    0.6238382181816539    0.5516913772006544    
  0.522139926151459    0.5516913709095691    0.5792820949570415    0.6471457963344546    0.6495963958304116    
  0.4418431367647172    0.1977465689980202    0.1200841144131172    0.19774657016978012    0.44184312695609745    
  0.6495964102294177    0.6471457412417922    0.5792820770457833    0.5516913709095691    0.6238383779551797    
  0.6471456919067147    0.7019033711528326    0.72474404085716    0.6223347934687076    0.44184317959167585    
  0.35966308415395976    0.44184319086965307    0.6223348439528711    0.7247439949955153    0.7019033185871915    
  0.6471457659835633    0.6238383779551797    0.6101487948573001    0.6495963403436267    0.7247438572543156    
  0.759612642652753    0.7247439798116307    0.6495962905062462    0.6101488423121906    0.6495963977945677    
  0.7247439636163157    0.7596126751340522    0.7247438952666497    0.6495963732875253    0.6101487948573001    
  0.3596630891801002    0.44184314660860036    0.622334850521243    0.724743994663832    0.7019033485130914    
  0.6471457535169512    0.6238383673818195    0.6471456963717965    0.7019032741229205    0.7247440682602571    
  0.622334814478791    0.4418431352987487    0.3596630891801002    0.12008411095706711    0.19774656211340816    
  0.4418431877668446    0.6495963908378055    0.6471458320279508    0.5792820964856251    0.5516914785288755    
  0.579282090922018    0.6471457799934992    0.649596439898686    0.4418431468779077    0.197746594303633    
  0.12008411095706711    0.05908493284068138    0.12008409873529628    0.35966303569954855    0.6101487468245157    
  0.623838339641551    0.5516913605173117    0.5221398856646214    0.5516913695402168    0.6238382696164296    
  0.6101486244369947    0.3596630126875371    0.1200840733153575    0.05908493284068138    0.12008412620679565    
  0.1977465802742933    0.4418431349429353    0.6495963589610146    0.6471457930654494    0.5792820599126498    
  0.5516914825725224    0.5792821504466033    0.6471457254940035    0.6495963895024013    0.44184322202626275    
  0.19774662182878203    0.12008412620679565    0.19774660221064164    0.2842849680312917    0.5156318185433254    
  0.6805630665697681    0.6661760692272967    0.6041127877139553    0.5792821503184017    0.6041128130445982    
  0.6661761690698943    0.6805631943109844    0.515631821863439    0.28428491760282    0.19774660221064164    
  0.4418431946604091    0.5156317575162337    0.6647488937538469    0.737674157097505    0.7122370790257553    
  0.6661760993828839    0.6471459086983626    0.6661761249037477    0.7122369951727444    0.7376740742537332    
  0.6647489236308664    0.515631738372161    0.4418431946604091    0.6495964666905835    0.6805631311986712    
  0.7376740781677608    0.7632906073315687    0.7376740968764395    0.6805630448078743    0.6495964780148158    
  0.6805631584866796    0.7376740389982032    0.7632905255607649    0.7376740495123875    0.6805631515469663    
  0.6495964666905835    0.6471458609507064    0.6661761430461436    0.7122370446197993    0.7376741249588342    
  0.6647489052508414    0.5156317460247973    0.44184322240694673    0.5156317772233999    0.6647489333826928    
  0.7376740225234811    0.7122370604235005    0.6661760905436077    0.6471458609507064    0.5792821126800053    
  0.6041128234709067    0.6661761190593424    0.6805631729995933    0.515631842959906    0.28428488902371984    
  0.19774663306868132    0.28428495823217065    0.5156317176048839    0.6805631603945814    0.6661761635832694    
  0.6041129066466195    0.5792821126800053    0.5516914420707809    0.579282112261918    0.647145702535915    
  0.6495964391936697    0.4418432361015039    0.19774659218242852    0.1200841032878748    0.19774662555157363    
  0.44184314074433356    0.6495962962236772    0.6471456695151985    0.5792821080296127    0.5516914420707809    
  0.5792821474546082    0.60411278014313    0.6661762968111027    0.6805630429389238    0.5156317941138282    
  0.2842849668396598    0.19774660012799847    0.28428487910972794    0.5156317771628304    0.6805632524392692    
  0.6661761352366996    0.6041127387244483    0.5792821474546082    0.647145772898719    0.6661760939483682    
  0.7122370402295877    0.7376741464316747    0.6647489170088996    0.5156317522738096    0.4418431524448815    
  0.515631825644491    0.6647489837222615    0.7376741534192326    0.7122371406269097    0.6661762720803499    
  0.647145772898719    0.6495964331106528    0.6805631050144897    0.7376740429952418    0.763290561054297    
  0.7376740843281995    0.6805631331212233    0.6495964694602264    0.6805631099823474    0.737673960918672    
  0.7632906352597658    0.737674018470949    0.6805631157933879    0.6495964331106528    0.4418432506340526    
  0.5156317655888734    0.6647488404207336    0.7376741512327735    0.7122371110958154    0.666176099776809    
  0.6471458272501632    0.6661761568325398    0.7122370086794884    0.7376740308660146    0.6647488414640796    
  0.5156317763607678    0.4418432506340526    0.19774661859313655    0.2842849393831398    0.5156317453193362    
  0.6805631229496732    0.6661762609971248    0.6041127784460212    0.5792821101262317    0.6041128444427286    
  0.6661761287700582    0.6805631991943556    0.5156316740924928    0.2842849711812757    0.19774661859313655    
  0.12008412620679565    0.1977465802742933    0.4418431349429353    0.6495963589610146    0.6471457930654494    
  0.5792820599126498    0.5516914825725224    0.5792821504466033    0.6471457254940035    0.6495963895024013    
  0.44184322202626275    0.19774662182878203    0.12008412620679565    0.35966313549461343    0.4418431738513003    
  0.6223348208656213    0.7247439582081    0.701903366597251    0.6471457637821046    0.6238383617091259    
  0.6471458251365663    0.701903321138508    0.7247439205136086    0.6223348325430866    0.4418432412436834    
  0.35966313549461343    0.441843170533004    0.5156318110789704    0.6647489099990865    0.737674104261377    
  0.7122370054023037    0.6661760878877812    0.647145837033057    0.6661761444058988    0.7122370837935205    
  0.7376741493857368    0.6647489296042891    0.5156317587344593    0.441843170533004    0.6223347806150898    
  0.6647488848801965    0.7369642048443722    0.7597802335353007    0.7384216178756419    0.7122369819994948    
  0.7019034317728979    0.7122369660635632    0.7384216298392567    0.7597801635445157    0.73696431444196    
  0.6647489000877137    0.6223347806150898    0.724744005604725    0.737674073636557    0.7597801827621895    
  0.7688505567936785    0.7597801452922763    0.737674045558906    0.7247440088789939    0.7376741624424582    
  0.7597800679798727    0.7688505834415943    0.7597802240440198    0.7376740501068224    0.724744005604725    
  0.7019033363499099    0.7122370704577242    0.7384216817935928    0.7597801947407857    0.7369642604471038    
  0.66474892244808    0.6223348238705323    0.6647489136886233    0.7369642741147141    0.7597802147977266    
  0.7384215768022062    0.7122370853403895    0.7019033363499099    0.647145773421877    0.6661761026553429    
  0.7122370056865602    0.7376740842103789    0.6647490206239103    0.5156316625217505    0.4418431984153422    
  0.5156317813629342    0.6647488096670199    0.7376742076632162    0.7122371327634774    0.6661762269979123    
  0.647145773421877    0.6238383363432848    0.6471458144043741    0.7019032146413545    0.7247439570835668    
  0.6223349200705822    0.4418432315009554    0.3596630546941796    0.44184325936323643    0.6223348103735101    
  0.7247438685122923    0.7019032685457507    0.6471457306926074    0.6238383363432848    0.647145815129494    
  0.6661761674415585    0.7122370671894253    0.7376740139277861    0.6647489026659762    0.5156316965492751    
  0.44184324596705093    0.5156317422839357    0.6647488346672538    0.7376741262914216    0.7122370157532121    
  0.6661761811225881    0.647145815129494    0.7019033271621665    0.7122370542879182    0.738421683537232    
  0.7597802344754014    0.736964255080544    0.6647488668428871    0.6223348030296673    0.6647489795256097    
  0.7369643677883921    0.759780134113347    0.7384217242846722    0.7122370368553835    0.7019033271621665    
  0.7247441001538161    0.7376740443653742    0.7597800870494636    0.7688506174875643    0.7597801566974853    
  0.7376740303991776    0.7247440670103202    0.7376741591078819    0.7597801475529543    0.7688506394278911    
  0.7597800748682467    0.7376740996592096    0.7247441001538161    0.6223349756574531    0.6647489065200012    
  0.7369643579301077    0.7597801374002364    0.7384216269255222    0.7122369484427084    0.7019034215159443    
  0.7122369065820244    0.7384215978542121    0.7597802781505575    0.7369641306098377    0.6647488839628803    
  0.6223349756574531    0.4418432531524352    0.5156317107526706    0.6647488513784241    0.7376741237380133    
  0.7122371199199766    0.6661761962649401    0.6471457630972066    0.6661761114281655    0.7122369860343292    
  0.737674089586799    0.6647488896250536    0.5156317882337091    0.4418432531524352    0.35966313549461343    
  0.4418431738513003    0.6223348208656213    0.7247439582081    0.701903366597251    0.6471457637821046    
  0.6238383617091259    0.6471458251365663    0.701903321138508    0.7247439205136086    0.6223348325430866    
  0.4418432412436834    0.35966313549461343    0.6101487609765675    0.6495963648175037    0.7247440053841483    
  0.7596126367768057    0.7247439250127468    0.6495964184827164    0.6101487821346843    0.6495963197404202    
  0.7247440160204066    0.7596125318951139    0.7247439159248515    0.6495963282538884    0.6101487609765675    
  0.6495963228872074    0.6805631117693911    0.7376741272154581    0.7632905824012923    0.7376741201868401    
  0.6805630322680551    0.649596450339344    0.6805631495256079    0.7376740716317568    0.7632905536096249    
  0.7376741015595277    0.6805630914791959    0.6495963228872074    0.724743875760978    0.7376740707228766    
  0.7597801926622155    0.7688506178879599    0.7597801884710259    0.7376741025436664    0.7247439730543678    
  0.7376740945009713    0.7597801228356234    0.7688504842984107    0.7597801878566193    0.7376741380151246    
  0.724743875760978    0.7596126165256767    0.7632904170729028    0.7688504982548531    0.7707347514239328    
  0.768850553044287    0.7632904602457263    0.7596127323456022    0.7632905432237334    0.7688505217752994    
  0.7707347112966263    0.7688505243156879    0.7632906078668202    0.7596126165256767    0.7247440286711923    
  0.7376740241609642    0.7597801397500332    0.7688505139219598    0.759780068796525    0.7376740912862354    
  0.7247439862939427    0.7376740438139637    0.7597801999793302    0.7688505070128737    0.7597800777095137    
  0.737674124642348    0.7247440286711923    0.6495964039655857    0.6805631349487876    0.7376740136202938    
  0.7632905876420474    0.7376741646683185    0.6805630636302094    0.6495964613632838    0.6805631670895981    
  0.7376740456788308    0.7632904625205887    0.7376740690221284    0.6805631596457691    0.6495964039655857    
  0.6101488434858549    0.6495963319266432    0.7247439112308905    0.759612644597269    0.72474398490314    
  0.649596369659971    0.610148773731978    0.6495964134342047    0.7247440327985016    0.7596126957451224    
  0.7247438999465936    0.6495963962322345    0.6101488434858549    0.6495964156496881    0.6805631365883342    
  0.7376741545364736    0.7632905418778462    0.7376740135265716    0.6805630725933904    0.6495964346097496    
  0.680563018927052    0.7376740161198925    0.7632905895176167    0.7376740706553448    0.6805630314700375    
  0.6495964156496881    0.7247440045634599    0.737674059902291    0.759780194084562    0.7688505439044995    
  0.7597801564662041    0.7376740750284934    0.7247439247844206    0.7376740350846841    0.7597801911344446    
  0.7688505451658109    0.7597801212966186    0.7376741622917128    0.7247440045634599    0.7596126229505223    
  0.7632905332778946    0.7688504496669586    0.7707347731609498    0.7688505996332169    0.7632904482760627    
  0.7596127173822264    0.7632905220077781    0.7688505733822865    0.7707348298096222    0.7688504453731749    
  0.7632905618457033    0.7596126229505223    0.7247439795083297    0.7376740008481885    0.7597801170168341    
  0.7688505211873966    0.7597801349481104    0.7376740916102661    0.7247440590372635    0.7376740555939414    
  0.7597800910233119    0.7688505891765242    0.7597801513550229    0.7376740362509262    0.7247439795083297    
  0.6495964231346012    0.6805630704817514    0.7376741373631694    0.7632906214445544    0.7376741383315897    
  0.6805631140537718    0.6495964558579916    0.6805630478930362    0.7376741342941175    0.7632905349995269    
  0.7376739776846208    0.6805631221685653    0.6495964231346012    0.6101487609765675    0.6495963648175037    
  0.7247440053841483    0.7596126367768057    0.7247439250127468    0.6495964184827164    0.6101487821346843    
  0.6495963197404202    0.7247440160204066    0.7596125318951139    0.7247439159248515    0.6495963282538884    
  0.6101487609765675    0.6238383873569283    0.6471457979002075    0.7019032226012826    0.724744005559578    
  0.6223349653530773    0.4418431990227784    0.35966311323615063    0.44184324371661354    0.6223348498113676    
  0.7247439693177729    0.7019033799508217    0.647145908716169    0.6238383873569283    0.6471458604093525    
  0.6661761859263818    0.7122370634218003    0.7376740094895076    0.664748811039466    0.5156317631423077    
  0.4418432400554785    0.5156317876897193    0.6647489283600968    0.7376741620172932    0.7122370595098948    
  0.6661761219919662    0.6471458604093525    0.7019033748625577    0.7122370806460624    0.7384216445002271    
  0.7597802658402144    0.7369642242710621    0.6647488443977475    0.6223349396047444    0.6647488731957525    
  0.7369642346485725    0.7597801619285743    0.7384216886791237    0.7122370627856003    0.7019033748625577    
  0.7247440406847365    0.7376740688465385    0.7597802060413557    0.7688505468479654    0.7597802433121654    
  0.7376739992415413    0.7247440700736509    0.737674120170885    0.7597802354875366    0.7688505728927274    
  0.7597802061759674    0.7376741625069806    0.7247440406847365    0.6223349716466618    0.6647488867183708    
  0.7369642518280888    0.7597801714349235    0.7384216556069554    0.7122370078736175    0.7019033552703582    
  0.712237022735162    0.7384216594083064    0.7597801443003918    0.7369642801208626    0.6647488436484982    
  0.6223349716466618    0.4418431984510643    0.5156317627476859    0.6647488595163122    0.7376741248528197    
  0.712237187406692    0.6661761149087254    0.6471458537901245    0.6661761710882261    0.7122369572992132    
  0.7376741525974483    0.6647488760842722    0.5156318768013091    0.4418431984510643    0.35966310104291394    
  0.4418432071117701    0.6223347992871726    0.7247439816086492    0.7019033779283194    0.6471457796030977    
  0.6238383772688669    0.6471458799495178    0.7019032979865837    0.7247438707798409    0.6223347478147457    
  0.4418432005348953    0.35966310104291394    0.4418431876265786    0.5156317184496567    0.6647489739336265    
  0.7376740664165137    0.7122370503168057    0.6661761900499423    0.6471457417446761    0.6661760458564853    
  0.7122370224185537    0.7376741606600719    0.6647488923031046    0.5156317552105449    0.4418431876265786    
  0.622334787110101    0.6647488357728167    0.7369642436030275    0.7597802435563308    0.7384215900184925    
  0.7122370424515634    0.7019032739333037    0.7122371421545791    0.7384217313401221    0.7597802770124826    
  0.7369642474453748    0.6647489607703094    0.622334787110101    0.7247440515309124    0.737674056870427    
  0.7597801654608308    0.768850543665902    0.7597801391310568    0.7376740894565567    0.7247439857743198    
  0.7376740585451504    0.7597801596587884    0.7688505855399096    0.7597801245758444    0.7376741006667075    
  0.7247440515309124    0.7019033603689335    0.7122370562377381    0.7384215773702326    0.759780203420326    
  0.7369643119939273    0.6647488492813514    0.6223349652750123    0.6647487880054572    0.7369642243290727    
  0.7597801705314127    0.7384215454786568    0.7122371093780939    0.7019033603689335    0.647145802159486    
  0.6661761798897535    0.7122370262625992    0.7376740782476316    0.664748908454639    0.5156317335033164    
  0.44184320745051925    0.5156317991171896    0.6647488445196598    0.7376741267393372    0.7122370150073306    
  0.6661761633536554    0.647145802159486    0.6238383873569283    0.6471457979002075    0.7019032226012826    
  0.724744005559578    0.6223349653530773    0.4418431990227784    0.35966311323615063    0.44184324371661354    
  0.6223348498113676    0.7247439693177729    0.7019033799508217    0.647145908716169    0.6238383873569283    
  0.5516914544651532    0.5792820818819314    0.6471456772593946    0.6495964181855414    0.4418432288358877    
  0.1977465667756051    0.12008413524745548    0.1977466249373774    0.44184318797932803    0.6495963917469586    
  0.6471458036339044    0.5792820982889995    0.5516914544651532    0.5792820841892798    0.6041128418957626    
  0.6661761982927824    0.6805630639024629    0.515631753983571    0.28428489935989426    0.19774662964629008    
  0.28428495862478925    0.5156318262458852    0.6805631668698977    0.666176225837824    0.6041127451452077    
  0.5792820841892798    0.6471458118518547    0.6661761062647525    0.7122370034622183    0.7376741099841536    
  0.6647488714628428    0.5156317365180486    0.44184320747899647    0.5156317186070016    0.6647488800749292    
  0.7376741554171953    0.7122370414240894    0.6661761734311525    0.6471458118518547    0.6495964853429632    
  0.6805630407032435    0.7376741148506477    0.7632906011846701    0.7376740833504314    0.6805631002343264    
  0.6495964071316869    0.6805631525971949    0.7376739914674739    0.7632905085905144    0.7376741033043299    
  0.6805630596939066    0.6495964853429632    0.4418432268966352    0.5156317185243653    0.6647489213698828    
  0.7376740998253933    0.7122370218466834    0.6661762024134127    0.6471457827763086    0.6661761622243755    
  0.712236961252744    0.7376740635615273    0.6647488943851032    0.5156317556534156    0.4418432268966352    
  0.19774659546153792    0.2842849595525875    0.5156316869716345    0.6805631527948659    0.6661762519850908    
  0.6041127465741072    0.5792821736043495    0.6041127970440839    0.6661760835603219    0.680563215392044    
  0.51563186054448    0.28428497835435595    0.19774659546153792    0.12008413374718735    0.1977465966895335    
  0.4418430667361455    0.6495963543362707    0.6471458148123064    0.5792821315982722    0.5516914243038166    
  0.5792821634511292    0.64714568808924    0.6495963584187529    0.4418431335761221    0.19774657405461957    
  0.12008413374718735    0.19774660169516947    0.28428493443554337    0.5156318100671794    0.6805630439956267    
  0.6661762391493203    0.6041127685355636    0.5792821637396897    0.6041127436563223    0.6661761133809784    
  0.6805632188087274    0.5156317728308975    0.28428493704028995    0.19774660169516947    0.4418432385841546    
  0.5156317759209901    0.6647489363570483    0.7376740912302727    0.7122371165860006    0.6661761281474852    
  0.6471457595742364    0.6661762871137953    0.7122371262280897    0.73767403824486    0.6647489858646749    
  0.5156317882601478    0.4418432385841546    0.6495964386654324    0.6805630772829105    0.7376740925887866    
  0.7632906508003515    0.7376741449493539    0.6805630487702308    0.6495964831462743    0.6805631303844291    
  0.7376740379488286    0.7632906615985917    0.7376739631691368    0.6805631366937157    0.6495964386654324    
  0.6471458267306086    0.6661761713483543    0.712237082877925    0.7376740606543806    0.6647488320770345    
  0.5156317039123393    0.4418432567289808    0.5156317252543928    0.6647488511322923    0.7376740888237153    
  0.7122369591350352    0.6661761653788105    0.6471458267306086    0.5792822111781275    0.6041128508003287    
  0.6661761423570548    0.6805631400159055    0.5156318288416237    0.2842849257467372    0.19774658811991555    
  0.2842849559414823    0.5156316980317843    0.6805631393988679    0.6661761478729634    0.6041128271019434    
  0.5792822111781275    0.5516914544651532    0.5792820818819314    0.6471456772593946    0.6495964181855414    
  0.4418432288358877    0.1977465667756051    0.12008413524745548    0.1977466249373774    0.44184318797932803    
  0.6495963917469586    0.6471458036339044    0.5792820982889995    0.5516914544651532    0.5221399046996038    
  0.5516913986717739    0.62383826249884    0.6101487769226783    0.35966309069257313    0.12008408446403916    
  0.05908489993732759    0.12008409145596127    0.3596630385060921    0.6101486556584584    0.6238382422751169    
  0.5516913394983575    0.5221399046996038    0.5516913672703412    0.5792820429145163    0.6471458084314985    
  0.6495964107788559    0.44184316053099887    0.1977465659573286    0.12008412537124151    0.1977465846832732    
  0.44184314955466775    0.6495964373846882    0.6471457360484036    0.5792820491823725    0.5516913672703412    
  0.6238382584167023    0.6471457926004052    0.7019033038390132    0.7247440528155539    0.6223348042201948    
  0.44184316838265925    0.3596630853334032    0.44184321353508954    0.6223347958359519    0.7247439241841733    
  0.701903373124861    0.6471457978165914    0.6238382584167023    0.6101487757392422    0.6495963403066402    
  0.7247440003231141    0.7596125781071972    0.7247439748472708    0.6495963536185464    0.6101487788942547    
  0.649596341957522    0.724743953782061    0.7596125870675275    0.7247439655941795    0.6495963777665338    
  0.6101487757392422    0.35966311921249833    0.4418431222418959    0.6223348266921376    0.7247439178947717    
  0.701903285432597    0.6471457794084513    0.6238383304720129    0.6471458074387966    0.7019033467651613    
  0.7247439190645288    0.6223347931838347    0.4418431910046409    0.35966311921249833    0.12008410771679394    
  0.19774656842603283    0.4418431229179588    0.649596454661718    0.647145802875305    0.5792820227680414    
  0.5516914296512515    0.5792821182989991    0.6471457140296978    0.6495963932413575    0.441843236390858    
  0.19774659949652884    0.12008410771679394    0.05908492661203783    0.12008408651828116    0.3596630721424934    
  0.6101487621871926    0.6238383368942628    0.5516914045428323    0.5221399082033914    0.5516914135164264    
  0.6238383174055796    0.6101487755867895    0.35966302413182694    0.12008408530824309    0.05908492661203783    
  0.12008408481373876    0.1977465788207457    0.44184319721704773    0.6495963743611541    0.6471456841199295    
  0.5792820868295696    0.5516914183628165    0.5792820727106222    0.6471457173336471    0.6495964499299601    
  0.4418431668766716    0.19774657671673362    0.12008408481373876    0.35966310298470516    0.4418431242550644    
  0.6223348812621033    0.7247440451700452    0.7019032813168468    0.6471457530943077    0.6238383128133457    
  0.6471457601073914    0.7019033395586207    0.724744008777459    0.6223348518519153    0.4418431919815843    
  0.35966310298470516    0.6101487504792953    0.6495963244503269    0.7247438507120069    0.7596126823330007    
  0.7247439668802033    0.6495962648092783    0.610148842034349    0.6495963789257082    0.7247439800856051    
  0.7596126659836    0.7247438835093611    0.6495963822408658    0.6101487504792953    0.6238383273135819    
  0.6471457253116033    0.7019033227314732    0.7247440312341836    0.6223348848404688    0.4418431519296065    
  0.35966310911852906    0.4418431328787991    0.6223348279373547    0.7247440367009802    0.7019032721291736    
  0.6471457259744744    0.6238383273135819    0.5516914042644647    0.5792820438550065    0.6471457915128824    
  0.6495964159669707    0.44184327403396323    0.19774657138174045    0.12008413325204918    0.19774656617775488    
  0.44184318691683006    0.6495964294442218    0.6471457021653845    0.5792821468565149    0.5516914042644647    
  0.5221399046996038    0.5516913986717739    0.62383826249884    0.6101487769226783    0.35966309069257313    
  0.12008408446403916    0.05908489993732759    0.12008409145596127    0.3596630385060921    0.6101486556584584    
  0.6238382422751169    0.5516913394983575    0.5221399046996038    0.5516914370063252    0.5792821011825577    
  0.6471456829034105    0.649596366468851    0.4418432333556561    0.1977465697743841    0.12008412610451961    
  0.19774660752958445    0.44184314097056576    0.6495963975892332    0.6471458224586121    0.5792821921213898    
  0.5516914370063252    0.5792821489698444    0.6041128248135541    0.6661762139977909    0.6805630422793186    
  0.5156316530422622    0.2842849419749632    0.19774661646047212    0.2842849667670588    0.5156317640024538    
  0.6805631724170459    0.6661762230003431    0.6041127136855141    0.5792821489698444    0.647145793670477    
  0.6661761522389736    0.712237043275017    0.737674134083821    0.6647489016781334    0.5156317058368896    
  0.4418432949163455    0.5156317185894199    0.6647488247890051    0.7376740708183    0.7122370769088776    
  0.666176118366173    0.647145793670477    0.6495964851630341    0.6805631139323396    0.7376740654492511    
  0.763290562767719    0.737674061426469    0.6805630553428553    0.64959650646717    0.6805631309553178    
  0.737674037331879    0.7632905425117417    0.7376740788704541    0.6805631619567714    0.6495964851630341    
  0.4418432906018782    0.5156317410384947    0.6647488766359589    0.7376741370113753    0.712237037765255    
  0.6661761153818875    0.6471457960212347    0.6661761676270033    0.7122370817457224    0.7376740398241917    
  0.6647489391578898    0.5156316750482022    0.4418432906018782    0.19774656991342973    0.2842849631096161    
  0.5156317070493872    0.6805631774705145    0.6661762369946171    0.6041126881870137    0.5792821730900757    
  0.6041127739782128    0.6661761070421943    0.6805631537147765    0.5156317571381629    0.28428502718501675    
  0.19774656991342973    0.12008413065741251    0.19774659470814301    0.4418431603307091    0.6495964113046568    
  0.647145827853251    0.5792821217372128    0.5516914268413733    0.5792821839869452    0.6471456793644587    
  0.6495962988940371    0.4418431318743229    0.19774658142582224    0.12008413065741251    0.19774660786950565    
  0.2842849308716328    0.5156318606357645    0.680563052353828    0.6661761841121274    0.6041128362729286    
  0.5792820854811873    0.6041126688169882    0.666176206592394    0.6805632425004264    0.5156317732364158    
  0.2842849283338014    0.19774660786950565    0.44184317262388156    0.5156317083380926    0.6647488830523042    
  0.73767418304975    0.7122370654980803    0.666176143739873    0.6471457051566857    0.6661762684011159    