#     DFTpy    
  CRYSTAL 
    
  PRIMVEC    
  1.2592555820087914    -2.181094647753944    0.0    
  1.2592555820087914    2.181094647753944    0.0    
  0.0    0.0    4.257647517172415    
  PRIMCOORD    
  2    1    
  Si    1.2592555820087914    0.7270315492513147    1.0644118792931037    
  Si    1.2592555820087916    -0.7270315492513147    3.19323563787931    
  BEGIN_BLOCK_DATAGRID_3D    
  3d_datagrid_density    
  BEGIN_DATAGRID_3D#0    
  11    11    19    
  0.0    0.0    0.0    
  1.2592555820087914    -2.181094647753944    0.0    
  1.2592555820087914    2.181094647753944    0.0    
  0.0    0.0    4.257647517172415    
  0.18235112862160252    0.19570001499859963    0.23334475757724996    0.28639251172682195    0.33534602456937096    
  0.35546180818847267    0.33534597726420495    0.28639249786856363    0.2333447747347842    0.19570004289446397    
  0.18235112862160252    0.1957000202114929    0.19570831324329063    0.2212085501069149    0.2668921463286844    
  0.31881478236231    0.35380917751499147    0.35380413321439136    0.31882174991243034    0.2668890792525534    
  0.2212163753170394    0.1957000202114929    0.233344760332492    0.2212085296930762    0.23334892465755178    
  0.2668882538022252    0.31230684810437087    0.3513849514322257    0.36639148048762765    0.35138665337921776    
  0.31230289824227475    0.26688908156835767    0.233344760332492    0.28639246232369636    0.26689211277784    
  0.2668882299895819    0.2863863618928356    0.3188171965533933    0.3513923134910552    0.37053622957983273    
  0.37054794315841594    0.3513866626888651    0.31882175569860544    0.28639246232369636    0.3353460068961391    
  0.31881475872950704    0.3123068200850546    0.3188172073583931    0.3353566412658717    0.3538039908643362    
  0.36638905099116126    0.37053622220414184    0.36639149844574953    0.3538041590037755    0.3353460068961391    
  0.3554618232997172    0.35380918171873565    0.35138497014370124    0.3513923600834641    0.35380402184254306    
  0.3554523683897743    0.3538039955681556    0.35139234258380464    0.35138497993418816    0.3538091971815974    
  0.3554618232997172    0.33534599668561704    0.3538041542497378    0.3663914857230688    0.37053626040984633    
  0.3663890802936348    0.35380400569081977    0.33535660742724666    0.31881719779771606    0.31230684008441695    
  0.3188147823495284    0.33534599668561704    0.28639247171288584    0.3188217449629175    0.35138665919492335    
  0.37054793726949475    0.3705362428503081    0.35139233279337034    0.31881717663694903    0.2863863470600524    
  0.2668882442641021    0.2668921371214186    0.28639247171288584    0.233344753420731    0.2668890587808364    
  0.3123028902638861    0.3513866643538427    0.36639149948689276    0.3513849394874296    0.31230683200538834    
  0.2668882376010549    0.23334892753438424    0.2212085468070613    0.233344753420731    0.19570002003185405    
  0.22121635915612886    0.2668890627310747    0.3188217774910547    0.3538041649620037    0.35380917306632587    
  0.31881476407574205    0.26689212697643344    0.22120854618778552    0.19570831517894122    0.19570002003185405    
  0.18235112862160252    0.19570001499859963    0.23334475757724996    0.28639251172682195    0.33534602456937096    
  0.35546180818847267    0.33534597726420495    0.28639249786856363    0.2333447747347842    0.19570004289446397    
  0.18235112862160252    0.19747675048870622    0.21125907569752317    0.25015232888960004    0.3042133659957529    
  0.35272152258413847    0.3722483588585679    0.3527172368188124    0.30421389326803505    0.25015019137306066    
  0.21125694192115235    0.19747675048870622    0.21125691601768948    0.21125744694983473    0.23274074915782123    
  0.2698029700428783    0.31101697857824223    0.33839991976782124    0.3383947952432256    0.3110244387098394    
  0.2698034759165845    0.23274063739847572    0.21125691601768948    0.25015016576103055    0.2425551655925904    
  0.25015129681713033    0.26979833289548333    0.29534919930941933    0.3169644765141333    0.3250121222068091    
  0.31696944551323886    0.29533967907072056    0.2698034631635518    0.25015016576103055    0.30421386642461645    
  0.2991009784255061    0.2991051485181881    0.3042126686685724    0.31102432516345896    0.31697046961366854    
  0.3197711024349132    0.3197683418517976    0.3169694552087226    0.3110244473821236    0.30421386642461645    
  0.35271725195328685    0.36044250523330645    0.3619777604883564    0.36043841458467896    0.3527275701137848    
  0.3383907361265844    0.32501314740083237    0.3197711088319592    0.3250121451920598    0.338394817436672    
  0.35271725195328685    0.3722483752463347    0.3990320361746817    0.4086038707154562    0.40860214812861534    
  0.3990288923532867    0.372248793959486    0.3383907233951031    0.31697048534953415    0.31696449151446104    
  0.3383999417034004    0.3722483752463347    0.3527214993513835    0.3990343675671195    0.4239507170200014    
  0.4287060092240931    0.4239512438519269    0.3990288734432085    0.35272754563781306    0.311024325644205    
  0.2953491959126801    0.3110169797981832    0.3527214993513835    0.30421331913161204    0.3604471436622143    
  0.4086054913259935    0.4287125084915557    0.4287059915588763    0.4086021292417343    0.3604383762767973    
  0.30421265446170465    0.2697983217262792    0.2698029611451523    0.30421331913161204    0.25015232584132374    
  0.2991109268079582    0.36196798382759726    0.4086055043820935    0.42395070650046773    0.4086038528512422    
  0.361977769775447    0.2991051646150439    0.25015129203393743    0.23274075008060985    0.25015232584132374    
  0.21125906251034596    0.24254586296497974    0.2991109260496525    0.36044717872775284    0.3990343821375402    
  0.3990320340766809    0.3604425091989338    0.2991009896638802    0.24255517181369687    0.21125746030737239    
  0.21125906251034596    0.19747675048870622    0.21125907569752317    0.25015232888960004    0.3042133659957529    
  0.35272152258413847    0.3722483588585679    0.3527172368188124    0.30421389326803505    0.25015019137306066    
  0.21125694192115235    0.19747675048870622    0.23906260460570425    0.25413353846168535    0.29601620058936906    
  0.35021055170182586    0.392563539231026    0.40749795818370727    0.3925192672359008    0.3502172107364492    
  0.296036986229492    0.25412894258076546    0.23906260460570425    0.25412891482922273    0.254127412700134    
  0.2726883637330313    0.3032798481453425    0.3349877072993491    0.3548028020576516    0.35480728096129527    
  0.3350295166489794    0.30327744708187776    0.2726583712588428    0.25412891482922273    0.29603695849636397    
  0.292712624110508    0.2960013204477999    0.3032697848542425    0.3111935931516526    0.31694479625232913    
  0.3187650584802879    0.3169467386884358    0.3111492884268545    0.3032774401650206    0.29603695849636397    
  0.3502171744557245    0.35657337365769426    0.35661826454651635    0.35022510539366103    0.33499322300157064    
  0.31695029484269727    0.3048532548758951    0.3048482166675565    0.31694674364844205    0.33502952454891965    
  0.3502171744557245    0.3925193062817747    0.40898488759861723    0.40987425007465234    0.40898778743235636    
  0.3925690168402573    0.35479152639530326    0.31877080893551746    0.30485326173723915    0.318765064920013    
  0.35480731391286857    0.3925193062817747    0.40749798324735087    0.4276426599254085    0.41188771829389814    
  0.41186860162720157    0.4275705691019821    0.40754031185486916    0.35479151670618975    0.316950312768208    
  0.316944804689474    0.35480282164809374    0.40749798324735087    0.3925635142959813    0.42761557994196575    
  0.3991917264109933    0.3717690667144137    0.3992548475994218    0.4275705603283982    0.39256898645354704    
  0.334993232865313    0.3111935862098588    0.33498770635963665    0.3925635142959813    0.35021051714863705    
  0.4090011427615642    0.4118812709563865    0.37180189541109765    0.3717690512345107    0.4118685841785393    
  0.4089877433627783    0.35022509567238014    0.30326977406605005    0.3032798242678111    0.35021051714863705    
  0.296016186155872    0.3566159788621829    0.4098662760465539    0.41188127437479766    0.3991917125939906    
  0.41188769444958423    0.4098742496776735    0.3566182846802496    0.2960013143999042    0.2726883760529099    
  0.296016186155872    0.2541335310356827    0.2926891312161329    0.3566159793735234    0.40900117658562823    
  0.42761559464404986    0.42764264830702453    0.40898489124741466    0.3565733879549512    0.29271263505030753    
  0.2541274274101444    0.2541335310356827    0.23906260460570425    0.25413353846168535    0.29601620058936906    
  0.35021055170182586    0.392563539231026    0.40749795818370727    0.3925192672359008    0.3502172107364492    
  0.296036986229492    0.25412894258076546    0.23906260460570425    0.2927536397442253    0.30957020874449775    
  0.3537476291282682    0.401652185380109    0.42476653978296625    0.4273724469904073    0.42455721814251196    
  0.40168432709238616    0.3538800264389679    0.30954433594742997    0.2927536397442253    0.30954430130487964    
  0.30951882915785833    0.3258143306449391    0.35091804663088055    0.3729517908385134    0.38418130533287886    
  0.3842017378801476    0.3731242298661213    0.3509016170636833    0.32567109692209    0.30954430130487964    
  0.353880011813689    0.3541459393164321    0.3537272030900985    0.35088101394107457    0.3440440871343534    
  0.33637145408585384    0.33319034081042354    0.33639030245521356    0.3438656493710853    0.3509016177773066    
  0.353880011813689    0.4016843080967686    0.41112169666912546    0.4113144371375986    0.401696362070581    
  0.3729459829082468    0.33641839129416223    0.3126948388336767    0.312670712643001    0.3363903168859372    
  0.3731242387837143    0.4016843080967686    0.42455727259507514    0.4183552840168507    0.40304004293262846    
  0.4183690651511891    0.42476575639123404    0.38416017265699404    0.33317106313803563    0.31269482786637726    
  0.3331903602273425    0.38420177526600474    0.42455727259507514    0.4273724831249378    0.38415695440629816    
  0.3054589535118786    0.30540494854816014    0.38388807485845167    0.4275244087830787    0.38416017399926305    
  0.33641841750527535    0.33637147133737655    0.38418132533253085    0.4273724831249378    0.4247665116724109    
  0.38402595277489443    0.25126862402451794    0.18883755582499873    0.2514882747607253    0.38388806973480855    
  0.4247657347767809    0.3729459828812639    0.34404407591469066    0.37295178724445593    0.4247665116724109    
  0.4016521279006287    0.4183471102920454    0.3054559785984823    0.1889506360577254    0.18883754118692558    
  0.3054049374129896    0.41836903153215327    0.40169634742597543    0.35088098816934576    0.35091802936360755    
  0.4016521279006287    0.35374763321485464    0.41132560256211903    0.402987555334095    0.30545598716366146    
  0.25126863173421743    0.30545894267998275    0.40304006207201304    0.41131444295588965    0.35372720722050416    
  0.3258143313245657    0.35374763321485464    0.30957020591701495    0.3540509242460059    0.4113256057125676    
  0.4183471305285173    0.384025954010666    0.3841569315253597    0.41835527512758686    0.41112170668674736    
  0.3541459469251063    0.3095188301977236    0.30957020591701495    0.2927536397442253    0.30957020874449775    
  0.3537476291282682    0.401652185380109    0.42476653978296625    0.4273724469904073    0.42455721814251196    
  0.40168432709238616    0.3538800264389679    0.30954433594742997    0.2927536397442253    0.3318628154837442    
  0.34978005328887607    0.3942492477056065    0.43284255280093636    0.4344924153309257    0.4244668819824112    
  0.434130021991864    0.4328932373166041    0.3945166274875328    0.3497252486015922    0.3318628154837442    
  0.3497251979510242    0.34968228604412804    0.3646789130867975    0.3862682647676335    0.4009292680419542    
  0.404958141967369    0.40497969320662097    0.40123851539166944    0.3862333145057128    0.36441368907770066    
  0.3497251979510242    0.39451660142623385    0.39646427529248934    0.3942297251012963    0.3861978878264968    
  0.3706560527537624    0.3545458200311191    0.34827614346921204    0.35459304107029993    0.3703389652499109    
  0.3862332961479543    0.39451660142623385    0.4328932059815152    0.4380550835025605    0.4383996730039706    
  0.43291431269637143    0.40091890599456387    0.35463779011887603    0.3243924019737484    0.32432499922920877    
  0.35459305329214463    0.401238531289419    0.4328932059815152    0.4341300559591533    0.39614360047026503    
  0.36396120677732935    0.3961717720238349    0.4344683840370066    0.4049374563992344    0.3482088875713121    
  0.3243924112770434    0.3482761508417    0.404979734328683    0.4341300559591533    0.4244669244913818    
  0.31911006308160744    0.20491228373644385    0.20482512371160383    0.3187278575704517    0.42470528802097723    
  0.40493744465796644    0.3546378191287979    0.35454583175864735    0.4049581763424221    0.4244669244913818    
  0.4344923892698203    0.3189138585206313    0.14022811555286624    0.08110109962319728    0.1404891704649834    
  0.31872785239779083    0.43446835219834556    0.40091891765028725    0.37065604677041375    0.4009292719771993    
  0.4344923892698203    0.43284249714873074    0.3960965725028441    0.20492115749694606    0.08120947418288717    
  0.08110110282501666    0.20482511549119858    0.39617173710409465    0.4329142993062748    0.3861978848570389    
  0.3862682492102563    0.43284249714873074    0.3942492527644341    0.4384424070028485    0.36384304761703207    
  0.20492116191819815    0.14022811777073774    0.20491226803679277    0.36396120355212086    0.43839968105651533    
  0.3942297173498969    0.36467891636174155    0.3942492527644341    0.34978004536354684    0.39628632636240313    
  0.43844241703508713    0.3960966046700122    0.31891386760722734    0.3191100403606512    0.3961435958505645    
  0.4380550973580316    0.3964642713370039    0.3496822919842576    0.34978004536354684    0.3318628154837442    
  0.34978005328887607    0.3942492477056065    0.43284255280093636    0.4344924153309257    0.4244668819824112    
  0.434130021991864    0.4328932373166041    0.3945166274875328    0.3497252486015922    0.3318628154837442    
  0.3318616383999971    0.34978125817797606    0.39424797220619995    0.4328438770385948    0.43449108542747183    
  0.42446818803753994    0.4341286872683525    0.43289454946849726    0.3945153568640206    0.3497264487363096    
  0.3318616383999971    0.3497264129192112    0.3496810791035363    0.36468014462805937    0.3862670069268827    
  0.40093054454603777    0.4049568646810456    0.4049809763114873    0.4012372453351805    0.3862345806938594    
  0.36441245862226584    0.3497264129192112    0.3945153205843957    0.3964655387910624    0.39422844760106357    
  0.386199148725346    0.37065482128433447    0.35454702724304804    0.3482749437613387    0.3545942580077647    
  0.3703377227571851    0.3862345662121483    0.3945153205843957    0.4328945228193938    0.43805376973515986    
  0.43840099346685857    0.43291299863496463    0.40092019273301716    0.35463657478845495    0.32439356348047793    
  0.32432383777098645    0.35459426550781864    0.4012372532939113    0.4328945228193938    0.4341287443136431    
  0.3961448654568215    0.3639599910929107    0.3961730535525895    0.4344670585282058    0.40493874665688284    
  0.3482076988774871    0.3243935690239891    0.34827496273928865    0.40498102067950614    0.4341287443136431    
  0.42446821822988384    0.31910891191559193    0.20491321271443125    0.20482418305607492    0.3187290178379195    
  0.42470395413564244    0.4049387341283401    0.35463659884683757    0.3545470407125022    0.40495690229773273    
  0.42446821822988384    0.4344910696893477    0.31891500465588024    0.14022732289746703    0.08110172599088164    
  0.1404883644874169    0.31872901129257153    0.4344670210558727    0.4009202090796626    0.37065481826591135    
  0.4009305457483491    0.4344910696893477    0.432843847668417    0.3960952833651932    0.20492211101726676    
  0.08120884826358193    0.08110172414172066    0.20482417412905635    0.3961730106440711    0.4329129865018492    
  0.3861991345071491    0.38626699064612086    0.432843847668417    0.3942479595048512    0.4384437529774851    
  0.3638418023509473    0.20492211938210594    0.14022733003560583    0.20491320757892129    0.36395999522381955    
  0.4384010097098994    0.39422845114672983    0.3646801576464922    0.3942479595048512    0.3497812528653676    
  0.39628504686929417    0.43844375442887995    0.3960953091103552    0.31891501316065934    0.3191088970526706    
  0.39614486592317644    0.4380537748354263    0.396465555290537    0.34968109792157664    0.3497812528653676    
  0.3318616383999971    0.34978125817797606    0.39424797220619995    0.4328438770385948    0.43449108542747183    
  0.42446818803753994    0.4341286872683525    0.43289454946849726    0.3945153568640206    0.3497264487363096    
  0.3318616383999971    0.2927547383064796    0.309569081304618    0.35374883726498285    0.40165090757262906    
  0.4247678389189296    0.427371139143361    0.4245585260212864    0.40168307030895484    0.35388123665035326    
  0.3095432067568952    0.2927547383064796    0.3095431825079715    0.30951995666090276    0.32581317604761884    
  0.3509192368342263    0.37295055815869715    0.38418254382728606    0.3842004913998158    0.37312546913138445    
  0.350900419500469    0.3256722524423371    0.3095431825079715    0.35388120991262306    0.3541447359361982    
  0.3537283954486447    0.35087981291904335    0.34404526624318377    0.3363702804450986    0.3331915129164573    
  0.3363891282523256    0.3438668410566713    0.3509004181627421    0.35388120991262306    0.4016830292971205    
  0.41112297000479925    0.4113131462554475    0.4016976287368998    0.37294475412408945    0.33641956772947446    
  0.31269371131298873    0.3126718521775415    0.33638914009996784    0.3731254668086488    0.4016830292971205    
  0.4245585688214991    0.4183539963214792    0.4030413072618314    0.41836776684302424    0.42476706580963786    
  0.3841589321767792    0.3331722336547063    0.31269370148264164    0.33319152787820233    0.38420053698279183    
  0.4245585688214991    0.42737117964609206    0.38415819394980233    0.30545784153865035    0.30540606463896547    
  0.38388683048658895    0.4275257366646318    0.3841589179382944    0.33641959586937936    0.33637030327588585    
  0.3841825748539567    0.42737117964609206    0.4247678158920668    0.3840247066065643    0.2512696504155693    
  0.18883664853471635    0.2514893045346667    0.38388681138075487    0.4247670332582925    0.3729447549947325    
  0.34404526441512434    0.37295055672765687    0.4247678158920668    0.40165085646457893    0.418348404431248    
  0.3054548529991381    0.18895154598628275    0.18883663826959332    0.3054060540273179    0.41836772881487105    
  0.4016976195737753    0.35087980850422673    0.35091922746028287    0.40165085646457893    0.35374883474962804    
  0.4113243051843382    0.4029888417965267    0.3054548678937996    0.2512696646269348    0.30545782981632813    
  0.40304132889841743    0.41131317041050774    0.35372841525653886    0.32581318007290705    0.35374883474962804    
  0.30956908410155853    0.354052126955784    0.41132431722543616    0.41834844267249094    0.3840247181118402    
  0.38415817682277265    0.4183539934607702    0.4111229901473377    0.35414475391903694    0.30951995563045376    
  0.30956908410155853    0.2927547383064796    0.309569081304618    0.35374883726498285    0.40165090757262906    
  0.4247678389189296    0.427371139143361    0.4245585260212864    0.40168307030895484    0.35388123665035326    
  0.3095432067568952    0.2927547383064796    0.2390616070072346    0.25413456952206703    0.29601509865817127    
  0.3502117483448528    0.3925622881907362    0.40749924281838956    0.3925180148394254    0.3502184090834962    
  0.2960358852300741    0.25412997237545676    0.2390616070072346    0.254129932464619    0.2541263846024118    
  0.27268941421052373    0.303278735754046    0.33498888095692037    0.35480159187118926    0.35480848873864235    
  0.33502833789577285    0.30327857470242087    0.2726573085737351    0.254129932464619    0.29603586494458983    
  0.2927137091712604    0.2960002150140624    0.3032708997885048    0.3111924627343513    0.3169459353386541    
  0.3187639116241318    0.31694788566383914    0.31114815524943135    0.3032785562290388    0.29603586494458983    
  0.35021837798658645    0.35657216081736404    0.35661945841305287    0.35022390474559484    0.3349943963262548    
  0.31694915499290194    0.30485437646304714    0.3048471115365199    0.3169478952116372    0.3350283584866544    
  0.35021837798658645    0.39251805452154537    0.4089861633635717    0.4098729629586598    0.4089890560754065    
  0.39256775537047633    0.3547927327877726    0.31876966776732246    0.30485437978578583    0.31876392909363277    
  0.35480851756264153    0.39251805452154537    0.40749926774490575    0.4276413608974331    0.4118889963462629    
  0.41186731117509184    0.4275718783961253    0.4075390187809991    0.35479271105400423    0.31694917776208503    
  0.31694594817207816    0.3548016315520233    0.40749926774490575    0.39256225694770625    0.42761689765238536    
  0.3991904484155573    0.37177029598412814    0.39925357971258724    0.42757185679928345    0.39256773115583105    
  0.33499439535877384    0.3111924606010754    0.33498887229132596    0.39256225694770625    0.35021170989721834    
  0.40899986780486053    0.41188255392544376    0.3718006789660831    0.37177028941982504    0.4118673020250517    
  0.40898902598330944    0.3502238940388954    0.30327089953318354    0.3032787177372278    0.35021170989721834    
  0.2960150967079903    0.3566171908760358    0.4098650078320395    0.41188257066049333    0.3991904566048305    
  0.41188898656071254    0.4098729829212353    0.35661948722399556    0.2960002212587266    0.272689427504693    
  0.2960150967079903    0.25413455513414807    0.2926880406079785    0.3566171956411439    0.4089999059402833    
  0.42761690551721476    0.42764135204914416    0.40898617241840984    0.35657218762963266    0.2927137247767092    
  0.2541263969505565    0.25413455513414807    0.2390616070072346    0.25413456952206703    0.29601509865817127    
  0.3502117483448528    0.3925622881907362    0.40749924281838956    0.3925180148394254    0.3502184090834962    
  0.2960358852300741    0.25412997237545676    0.2390616070072346    0.1974776599098396    0.21125812812264538    
  0.2501533527760946    0.30421224199920727    0.3527227303340708    0.3722471296072775    0.35271843638990524    
  0.30421276852063317    0.2501512116079926    0.21125600534327169    0.1974776599098396    0.21125598248341007    
  0.21125838621662177    0.23273976367826757    0.26980403129385694    0.311015844290757    0.33840110343666446    
  0.33839361237998417    0.3110255793732125    0.26980242069873756    0.23274162912347937    0.21125598248341007    
  0.25015118451337437    0.2425541587005775    0.25015230440470737    0.26979726638215284    0.29535030036706117    
  0.31696333619520173    0.3250132852934633    0.3169683029421733    0.29534079049918566    0.269802410407748    
  0.25015118451337437    0.3042127411839564    0.2991020961509325    0.299104025675515    0.304213786253903    
  0.3110231879679135    0.31697161124617046    0.319769950422573    0.3197694881468937    0.31696830430337986    
  0.3110255841448491    0.3042127411839564    0.35271846946517627    0.3604412952022608    0.3619789700585676    
  0.360437186925018    0.3527287661564634    0.3383895469968957    0.32501430177704355    0.3197699570791264    
  0.32501329880521995    0.33839364045948955    0.35271846946517627    0.3722471405901649    0.39903331089369365    
  0.40860257997037813    0.40860344196884074    0.39902760975388507    0.37225002877030045    0.33838953495081064    
  0.3169716195708078    0.31696334606705895    0.3384011230005948    0.3722471405901649    0.3527227082559923    
  0.3990330896878645    0.42395202971983253    0.42870469161451236    0.42395254216883094    0.39902759362906454    
  0.35272873038186986    0.31102319563429504    0.2953502945274675    0.31101584319626063    0.3527227082559923    
  0.30421221333796167    0.3604483521867897    0.4086042137866007    0.42871382292012117    0.4287046819708743    
  0.4086034193574554    0.3604371637996756    0.30421377627410007    0.2697972622467255    0.2698040201285291    
  0.30421221333796167    0.25015334607640366    0.2991098195852119    0.3619691985792584    0.40860422416286146    
  0.4239520226486674    0.4086025651761786    0.36197897629385856    0.29910405200086365    0.2501523118935239    
  0.23273976753837539    0.25015334607640366    0.21125812637740468    0.24254686782916782    0.299109821831599    
  0.3604483908657036    0.39903311050422846    0.3990333063699706    0.36044130282316317    0.2991021049159988    
  0.24255416408642483    0.21125839723477807    0.21125812637740468    0.1974776599098396    0.21125812812264538    
  0.2501533527760946    0.30421224199920727    0.3527227303340708    0.3722471296072775    0.35271843638990524    
  0.30421276852063317    0.2501512116079926    0.21125600534327169    0.1974776599098396    0.18235025120655732    
  0.19570092816789456    0.23334376621850206    0.28639360619139986    0.3353448456883984    0.3554630222132517    
  0.3353447962630352    0.2863935945519868    0.23334378413253956    0.1957009572811324    0.18235025120655732    
  0.19570093323930093    0.19570740213369284    0.22120951475609743    0.26689109185939847    0.31881593482949705    
  0.3538079695185758    0.3538053453300218    0.3188205972039103    0.266890140022018    0.22121540918512114    
  0.19570093323930093    0.23334376874961302    0.22120949603742404    0.2333479345250729    0.2668893105318503    
  0.31230570740604124    0.3513861643498407    0.36639024562086614    0.3513878666500764    0.3123017507874671    
  0.2668901400779818    0.23334376874961302    0.28639355360467816    0.2668910551161556    0.26688928526340494    
  0.2863852722709693    0.31881834778760826    0.35139110671111856    0.37053746844763613    0.37054670025173153    
  0.35138786998826826    0.3188206004460117    0.28639355360467816    0.3353448255235099    0.31881591256083636    
  0.3123056801314559    0.31881835887409504    0.3353554607337181    0.35380520141069954    0.3663878141076341    
  0.3705374596054616    0.36639026444565115    0.3538053712295886    0.3353448255235099    0.3554630372096604    
  0.3538079692090242    0.35138617738715083    0.3513911531182615    0.35380522944942455    0.3554511536057303    
  0.3538052014618732    0.35139113276503664    0.35138618307414776    0.35380798655639045    0.3554630372096604    
  0.3353448167771249    0.3538053682289799    0.3663902531748121    0.3705375011018899    0.3663878482607347    
  0.35380521346823957    0.33535542514894034    0.3188183435998472    0.31230569818247056    0.3188159342620167    
  0.3353448167771249    0.28639356825065143    0.31882059283786857    0.3513878678014463    0.37054669663923967    
  0.3705374794832678    0.3513911250454332    0.3188183237391891    0.2863852522083519    0.2668893010488901    
  0.2668910809248742    0.28639356825065143    0.23334376355295183    0.2668901185503735    0.3123017503032248    
  0.3513878709569234    0.36639026206259745    0.35138614526644457    0.3123056921890439    0.26688929350006596    
  0.23334794062292763    0.22120951469201364    0.23334376355295183    0.19570093634003963    0.22121539193060286    
  0.2668901236173107    0.31882062710338954    0.35380537350671604    0.3538079595404695    0.31881591556074207    
  0.266891071337874    0.22120951289927276    0.19570740631109906    0.19570093634003963    0.18235025120655732    
  0.19570092816789456    0.23334376621850206    0.28639360619139986    0.3353448456883984    0.3554630222132517    
  0.3353447962630352    0.2863935945519868    0.23334378413253956    0.1957009572811324    0.18235025120655732    
  0.19747766151832924    0.21125598452419025    0.250151196207957    0.30421278252388884    0.35271847905680453    
  0.3722471230752115    0.3527226873910356    0.30421223254357715    0.2501533673852144    0.2112581502082978    
  0.19747766151832924    0.21125812234230942    0.21125838772572794    0.24255416774981617    0.2991021234830096    
  0.3604413186248193    0.39903331245069296    0.39903307550698985    0.36044836285493376    0.2991098375705137    
  0.2425468891462908    0.21125812234230942    0.2501533418026536    0.23273975369639532    0.25015231646730884    
  0.2991040558134348    0.3619790085977049    0.4086025709787829    0.4239520050605097    0.40860420314525553    
  0.3619692150204831    0.2991098233323435    0.2501533418026536    0.3042122035980474    0.26980399617090706    
  0.2697972559242433    0.3042137834843207    0.36043717051726765    0.4086034028002461    0.4287046494182009    
  0.42871383093472876    0.4086042087677403    0.36044837404707997    0.3042122035980474    0.352722702205217    
  0.3110158236638067    0.29535027484349535    0.3110232159085586    0.35272876832403793    0.3990275864404884    
  0.42395250812839924    0.4287046604440906    0.42395202252533826    0.39903310159392724    0.352722702205217    
  0.37224714234466727    0.33840110050744093    0.31696334289259653    0.3169716381117632    0.33838957436087946    