#     DFTpy    
  CRYSTAL 
    
  PRIMVEC    
  6.81558620689655    0.0    0.0    
  0.0    6.81558620689655    0.0    
  0.0    0.0    6.81558620689655    
  PRIMCOORD    
  8    1    
  Si    0.0    0.0    0.0    
  Si    1.7038965517241376    1.7038965517241376    1.7038965517241376    
  Si    0.0    3.407793103448275    3.407793103448275    
  Si    1.7038965517241376    5.111689655172413    5.111689655172413    
  Si    3.407793103448275    0.0    3.407793103448275    
  Si    5.111689655172413    1.7038965517241376    5.111689655172413    
  Si    3.407793103448275    3.407793103448275    0.0    
  Si    5.111689655172413    5.111689655172413    1.7038965517241376    
  BEGIN_BLOCK_DATAGRID_3D    
  3d_datagrid_density    
  BEGIN_DATAGRID_3D#0    
  29    29    29    
  0.0    0.0    0.0    
  6.81558620689655    0.0    0.0    
  0.0    6.81558620689655    0.0    
  0.0    0.0    6.81558620689655    
  0.08891098490562058    0.1576978789772658    0.3646655203972007    0.45158426669969887    0.30642384301775705    
  0.15747582873437332    0.07734512573738496    0.041229702392846436    0.025600219081068548    0.018790815993965482    
  0.015764874069806936    0.01449069196872868    0.013991128390431288    0.013835254987628354    0.013788584567485883    
  0.013835209237053763    0.013991211936455085    0.014490577092822662    0.015765011426353507    0.018790634773399248    
  0.025600440672000815    0.041229447633265796    0.07734548045324623    0.15747542447943993    0.3064244227408968    
  0.4515837119417321    0.3646658154003523    0.15769782079944983    0.08891098490562058    0.15769789126144043    
  0.23303363035710667    0.41115532324210785    0.4403772914157428    0.28745279519283723    0.14890082003810817    
  0.07476655835913334    0.040854045440144635    0.02588954822898358    0.019201443024927285    0.0161263838220476    
  0.014740739423844488    0.014134020534965689    0.013905013792757366    0.013835240495621263    0.013905054935593563    
  0.01413395319370454    0.014740815782567855    0.016126233558825413    0.019201614841072207    0.025889358527297433    
  0.04085431043501184    0.07476620035212372    0.1489012384781699    0.28745230110935094    0.44037775817273783    
  0.4111549654540351    0.2330338126392109    0.15769789126144043    0.3646655441201469    0.41115518221849795    
  0.4627564167990676    0.38366430904707155    0.2362524126470433    0.12687435044159565    0.06815662663062876    
  0.040013599913753244    0.02682011491590403    0.020445870331775966    0.01720427702917186    0.015502826647082234    
  0.014583524116624395    0.014134005515126911    0.013991150064018514    0.01413396307549931    0.014583611672078615    
  0.015502724331182065    0.017204408833379543    0.020445714366482938    0.026820363329451685    0.0400133084535801    
  0.06815696357896656    0.12687394133002458    0.2362528782256898    0.38366371814841027    0.46275698451454483    
  0.41115511699218593    0.3646655441201469    0.45158379974811463    0.4403773074441118    0.38366399668825096    
  0.27731172493024253    0.1717152701415892    0.10018576640180755    0.06014360759813483    0.03932253569156934    
  0.028515671299165175    0.022563502360229745    0.01905161009312103    0.01686739684007509    0.015502804051353437    
  0.014740763635406589    0.014490632877162846    0.014740770886387904    0.015502747016449136    0.01686751678080594    
  0.019051463074817587    0.022563691415557263    0.0285154528833398    0.03932277514635135    0.06014326778704632    
  0.10018612403011652    0.17171490328359726    0.27731205422547045    0.3836637186975993    0.4403776893989968    
  0.45158379974811463    0.3064241446308203    0.2874523303186255    0.23625253813965974    0.1717152207652936    
  0.11546865347657966    0.0766529476042293    0.053053343208627035    0.039323362523415055    0.031039855918496298    
  0.02559162829418137    0.021773244797722892    0.019051593581626943    0.017204297225575413    0.016126317266200656    
  0.015764929988500903    0.01612628873948452    0.017204368272778478    0.019051476945286257    0.021773382531822743    
  0.025591426016667862    0.031040093728405032    0.03932306972206754    0.053053603329168836    0.07665263397723152    
  0.11546899724478762    0.17171486857365187    0.23625287572334028    0.28745229710631137    0.3064241446308203    
  0.15747539187157258    0.1489010383018859    0.12687406669746676    0.10018591162774955    0.07665288728458924    
  0.0593418713795439    0.04778084109329681    0.040012790772347956    0.034205437824929866    0.02947686696667024    
  0.025591620567706443    0.022563529890027936    0.02044581313805012    0.01920151881094554    0.018790728357883684    
  0.01920153925355985    0.020445735204516653    0.02256367693853781    0.025591441339193846    0.029477079748655613    
  0.034205223756408415    0.04001304091553624    0.047780554714767026    0.059342151909833885    0.07665262200445418    
  0.10018616210858491    0.1268738811440564    0.14890121622452884    0.15747539187157258    0.07734548639467916    
  0.0747662491631831    0.06815691046590952    0.06014342163093833    0.05305347565433133    0.04778081562492058    
  0.04401994073163271    0.04085482778787237    0.037589329572470104    0.034205435362847855    0.031039915584579417    
  0.028515619521335533    0.026820237187512773    0.025889478070257335    0.025600335426035035    0.025889430756903333    
  0.026820336390162004    0.028515477421774887    0.03104009454317439    0.0342052307981251    0.03758956262523526    
  0.04085456189601035    0.0440202055491837    0.0477805568462666    0.05305373309914151    0.060143191508535004    
  0.06815709046420258    0.07476618509152404    0.07734548639467916    0.04122939610578279    0.04085432464827164    
  0.04001334091844398    0.03932274402869355    0.039323179364379506    0.04001290382622135    0.04085475641381277    
  0.04122897841700609    0.04085480132976155    0.040012837502106206    0.03932329523311724    0.039322610498211695    
  0.04001348456948491    0.04085417917027497    0.04122955426940915    0.040854215540506396    0.04001336945423459    
  0.03932278604324997    0.03932306688799599    0.040013065718584664    0.040854540840167146    0.04122923843148312    
  0.040854500847435055    0.0400131395961377    0.03932298292735451    0.03932288991009587    0.040013239089040226    
  0.0408543969044366    0.04122939610578279    0.025600506997022248    0.02588928305056731    0.026820411725179173    
  0.028515451948472118    0.03104006621296818    0.034205323639701614    0.037589437299794616    0.04085478116739451    
  0.04401997609135236    0.047780806009333716    0.05305347753099538    0.0601434900420077    0.06815684284422707    
  0.07476638601168287    0.07734536899387147    0.07476626598712262    0.06815701078870341    0.06014327646396674    
  0.05305369833873068    0.04778051552589109    0.04402025282104206    0.04085447262287077    0.037589666053171905    
  0.034205101972914854    0.031040246463028026    0.02851530462139952    0.026820496364573784    0.025889240788471126    
  0.025600506997022248    0.018790517443442258    0.01920170615257407    0.020445618198751257    0.02256375467850688    
  0.025591429165610337    0.029477028470905754    0.03420529350005904    0.040012929504096406    0.04778070296371118    
  0.0593419843094184    0.07665284359796047    0.10018592598201502    0.12687408525913266    0.14890105734158393    
  0.1574754377598958    0.14890115482082564    0.12687390363916382    0.10018617667275839    0.07665252321081821    
  0.059342252172844216    0.04778045304487175    0.040013193550282496    0.03420502623721924    0.029477254161979455    
  0.025591260849797175    0.022563859210585308    0.020445541233326918    0.019201765660128253    0.018790517443442258    
  0.015765165930737242    0.01612607973456815    0.01720452303111171    0.019051371498173122    0.0217734488233663    
  0.025591417394130837    0.031040068489147907    0.039323165179833273    0.05305352245589701    0.07665276491637739    
  0.11546883976401186    0.17171504242331984    0.23625275987158367    0.28745230965611573    0.3064242736042198    
  0.28745210265353266    0.2362529520032985    0.1717146513377302    0.11546918216898297    0.07665242899025972    
  0.05305382622900182    0.03932285191766767    0.031040288173966406    0.025591231344968456    0.02177362214116373    
  0.01905125400703277    0.01720460521539957    0.016126066301289665    0.015765165930737242    0.014490379050563013    
  0.014740990811302172    0.015502564381350817    0.01686764415902537    0.01905136176468842    0.022563755954139775    
  0.028515435926944034    0.03932277954165635    0.0601433255732044    0.10018603684612826    0.17171497939787478    
  0.2773119650970764    0.3836636987398085    0.4403776874954666    0.45158353866125484    0.4403777969157772    
  0.38366335416468383    0.2773124260154894    0.1717145398650697    0.10018640886232173    0.06014301964054067    
  0.03932302665450183    0.028515196995079185    0.022563937842354446    0.019051222489161853    0.016867750029204532    
  0.015502495162170131    0.014741042144306049    0.014490379050563013    0.013991415943671821    0.014133735863719238    
  0.014583787723535312    0.015502568488346415    0.01720454170699341    0.020445615260763824    0.02682041312175933    
  0.04001330170245673    0.06815696884052484    0.12687395462486478    0.23625281355853278    0.3836635695627184    
  0.4627569232466984    0.4111547068700714    0.36466594850547707    0.4111545506771215    0.46275728863257654    
  0.3836631769915834    0.23625329424466615    0.12687355310161635    0.06815734152703921    0.040013027407566855    
  0.026820617137046813    0.020445444858389627    0.017204672951617248    0.015502440590591825    0.01458386440436157    
  0.014133711191795783    0.013991415943671821    0.013834962364937257    0.013905311090808302    0.01413374367172404    
  0.014740994082132777    0.01612610043526797    0.01920171463528385    0.025889272120351213    0.04085436237503606    
  0.0747661550671329    0.14890129240737268    0.28745222090461847    0.4403777689297592    0.41115481067942883    
  0.23303406811905705    0.15769753860672014    0.23303419300513056    0.4111544907236352    0.4403782443546883    
  0.2874516650360765    0.14890168805294043    0.07476584124624548    0.04085462313906565    0.02588904537624785    
  0.01920188998435682    0.016125974259924576    0.014741089855856749    0.014133680928930777    0.013905327917432642    
  0.013834962364937257    0.01378887042390028    0.013834958220546492    0.013991423875588422    0.014490394993838803    
  0.015765159000803212    0.018790538776227404    0.02560051920549637    0.041229396953422474    0.07734552780680938    
  0.15747536102282775    0.30642446734590834    0.451583506221371    0.3646659899552825    0.1576975656799061    
  0.08891126808468694    0.15769740474582045    0.3646664019996196    0.4515830593382311    0.3064249929214361    
  0.15747485649386542    0.07734589995186208    0.04122912131483029    0.025600727302528204    0.018790376378409933    
  0.015765272418535273    0.014490308239230058    0.013991486972931138    0.013834938961034495    0.01378887042390028    
  0.013834946719569375    0.013905314073077973    0.014133723472915156    0.014741018578561735    0.01612607754639324    
  0.019201746793103904    0.02588924960550588    0.040854401844317545    0.07476612532168322    0.14890134444001174    
  0.2874521879421181    0.4403778885609985    0.4111547566045259    0.23303417107405722    0.15769744259995638    
  0.2330342624700822    0.4111544416162447    0.44037847690082776    0.28745161342051173    0.1489017854370354    
  0.07476579352636709    0.04085466395802506    0.02588902191046801    0.01920191092952387    0.016125952595327956    
  0.014741114330123777    0.01413367206018824    0.013905350251307059    0.013834946719569375    0.013991451690459409    
  0.014133703552714963    0.014583829418785716    0.015502515128589387    0.017204582058466172    0.020445567116761307    
  0.02682044796374963    0.0400132235860925    0.06815704683089349    0.12687387834364552    0.23625294148871584    
  0.383663421431972    0.4627571442117004    0.4111545640472318    0.36466613424583655    0.4111543816738538    
  0.46275756234416804    0.38366309103865714    0.23625344954337635    0.1268734545382063    0.0681573861244613    
  0.04001297930852522    0.026820653780930025    0.02044539607579215    0.017204717570708544    0.01550242528010984    
  0.014583907635913178    0.014133678027948036    0.013991451690459409    0.014490338039043602    0.01474104957859213    
  0.01550251819835467    0.016867707766468818    0.019051305332491653    0.02256383060219716    0.02851534815146253    
  0.03932285572707089    0.06014319862641918    0.1001861713504565    0.17171482686169806    0.2773121640446432    
  0.38366334659091106    0.44037798947932116    0.4515831819251222    0.44037810182372406    0.3836632082534627    
  0.27731265194949023    0.1717143970378803    0.10018655237292147    0.060142924136078794    0.03932312453683977    
  0.02851511653126854    0.022563985340539494    0.01905116598864857    0.01686780348191263    0.015502445061356068    
  0.014741090700978477    0.014490338039043602    0.015765227134502787    0.016126015833847932    0.01720459678407466    
  0.019051292856583607    0.021773542101088443    0.025591329312967075    0.03104016203525595    0.039323047198907154    
  0.05305364618126993    0.07665265330839469    0.11546899319485607    0.17171480127509922    0.23625291767285003    
  0.28745201818158805    0.3064244116813475    0.28745183544014385    0.23625319789654028    0.17171449063457173    
  0.1154693068998746    0.0766523208917383    0.05305398079211125    0.039322771353931626    0.031040377228176534    
  0.025591131470499868    0.02177369216215724    0.019051177633167687    0.017204687126558114    0.016125988282132457    
  0.015765227134502787    0.018790443943137308    0.01920178627364398    0.020445534876391103    0.022563833931549725    
  0.025591327996013043    0.029477158092529022    0.034205165514555096    0.040013026499769296    0.047780587944640365    
  0.05934212207798504    0.07665261894772553    0.1001860924869141    0.12687384566399137    0.14890130453494077    
  0.1574751921012443    0.14890137407286036    0.1268736976745596    0.10018639752775677    0.07665235161798632    
  0.059342411704549146    0.04778033595409173    0.04001332687385735    0.03420490459416051    0.029477366463801516    
  0.02559118509642818    0.022563963947953965    0.020445464316050235    0.01920184270011726    0.018790443943137308    
  0.02560063988176767    0.025889179207835223    0.026820498755649808    0.028515343141124555    0.031040181827213485    
  0.03420521273752854    0.03758955257706124    0.04085461836344779    0.04402011586634643    0.04778066523079728    
  0.05305364213643609    0.06014331762091703    0.06815701547890227    0.07476621248205866    0.07734551958249529    
  0.07476608149155123    0.06815717630145017    0.06014312937587574    0.05305385061236793    0.047780395793942894    
  0.04402039338022709    0.04085436390259375    0.03758979205014072    0.0342049775334309    0.03104036590422518    
  0.02851520866041619    0.026820600287793386    0.025889137238474864    0.02560063988176767    0.041229257743568795    
  0.04085446495270172    0.04001319504676885    0.03932286429320037    0.03932306713251659    0.04001303142107273    
  0.040854623610037964    0.04122910770967202    0.040854659010639185    0.040012968252439655    0.03932315215730194    
  0.03932274419766103    0.04001335313521605    0.040854309842728205    0.04122941176267219    0.04085435019903109    
  0.04001325567812885    0.03932293263835309    0.039322938876913974    0.04001320546935067    0.04085443202826523    
  0.04122937464964174    0.04085435960639029    0.0400132681884397    0.03932284659368169    0.03932303226720606    
  0.04001309959616775    0.0408545356195736    0.041229257743568795    0.07734568131079633    0.07476606497778054    
  0.06815707543874111    0.060143246113477204    0.05305366240478471    0.04778066455799336    0.0440200749224033    
  0.040854705742489617    0.0375894407783887    0.03420532631581966    0.031040036942491692    0.028515508035770167    
  0.026820333648059108    0.02588935864269002    0.02560043950442651    0.02588931211694308    0.026820434696036084    
  0.02851537244307106    0.03104019424472014    0.034205108825566925    0.03758971695852248    0.040854442800287515    
  0.04402035022810729    0.04778039524502494    0.0530538724093882    0.06014307244199127    0.0681572515322779    
  0.07476601217416891    0.07734568131079633    0.157475195370898    0.14890131232661832    0.12687385525689168    
  0.10018607058117454    0.07665270933610963    0.05934201031235751    0.04778070769370161    0.04001289568869487    
  0.034205319811726385    0.029476958857780313    0.025591513196223943    0.022563633156044663    0.020445730689733217    
  0.01920159496654842    0.01879063443711292    0.01920162532418279    0.020445660574137426    0.02256378221748811    
  0.025591334192800963    0.029477187763164433    0.034205119138669166    0.04001318146065649    0.04778043292202436    
  0.059342300161542356    0.07665246363747659    0.10018633727185929    0.1268736658513367    0.1489014726837433    
  0.157475195370898    0.30642442182053337    0.2874520647011771    0.23625273617885428    0.17171494312816643    
  0.11546881699674531    0.07665280079877299    0.05305345715524631    0.03932325156341407    0.03103994914878311    
  0.02559154635554993    0.021773296283029837    0.019051526098348176    0.017204368668762775    0.016126256745353822    
  0.01576499045340577    0.016126199825286493    0.017204447711896647    0.01905140703535223    0.02177344732518679    
  0.025591353257371826    0.031040179598312897    0.03932297207959166    0.05305373326146895    0.07665248636482073    
  0.11546918870822262    0.17171462715457292    0.23625311303480112    0.2874520240455039    0.30642442182053337    
  0.4515835994674801    0.44037754031173876    0.3836636756809661    0.27731192714232467    0.17171515861162087    
  0.10018587406735381    0.06014350101936914    0.03932258764484467    0.028515588923036198    0.02256357556313372    
  0.019051550654398203    0.016867455423511066    0.015502760373461816    0.014740815538226393    0.01449057268605103    
  0.014740827181723464    0.015502697341100637    0.016867572176260663    0.01905140827340514    0.022563761320937806    
  0.028515389962753802    0.0393228710654272    0.060143166880015794    0.10018627084274662    0.17171473276177956    
  0.2773122461922598    0.383663540215417    0.4403778924582214    0.4515835994674801    0.3646657333985166    
  0.41115495501907956    0.4627565797443132    0.3836639785958241    0.23625248455384038    0.12687424639075567    
  0.06815669817886826    0.04001352968285136    0.026820169524198988    0.020445839466758698    0.017204295170729453    
  0.015502794585550412    0.01458355554751341    0.014133973816192323    0.013991174491082772    0.01413392713016788    
  0.014583633444612935    0.015502690896342201    0.01720444324904301    0.020445656204475054    0.026820423318842213    
  0.04001326667030849    0.06815703705158144    0.12687382910378173    0.23625306090227088    0.38366353444455664    
  0.4627570897810962    0.4111549998880426    0.3646657333985166    0.15769785173181108    0.233033710061679    
  0.41115517659453965    0.44037733131223017    0.2874526719613904    0.14890083356339626    0.07476651997183521    
  0.040854058335004315    0.025889511457543566    0.019201470577122876    0.016126355737298034    0.014740749135748998    
  0.014134002461639325    0.013905048872263709    0.013835207730200598    0.013905064510952563    0.014133938583365452    
  0.014740849499091912    0.016126216121769385    0.019201631393429487    0.025889336930697945    0.040854350468238626    
  0.07476618422707879    0.14890131403075346    0.2874522150135549    0.44037774879178687    0.41115484099841704    
  0.23303389534653235    0.15769785173181108    0.08891098490562058    0.1576978789772658    0.3646655203972007    
  0.45158426669969887    0.30642384301775705    0.15747582873437332    0.07734512573738496    0.041229702392846436    
  0.025600219081068548    0.018790815993965482    0.015764874069806936    0.01449069196872868    0.013991128390431288    
  0.013835254987628354    0.013788584567485883    0.013835209237053763    0.013991211936455085    0.014490577092822662    
  0.015765011426353507    0.018790634773399248    0.025600440672000815    0.041229447633265796    0.07734548045324623    
  0.15747542447943993    0.3064244227408968    0.4515837119417321    0.3646658154003523    0.15769782079944983    
  0.08891098490562058    0.15769785682901774    0.23303364356509915    0.41115531685083795    0.4403772795785312    
  0.28745275915529495    0.14890078896281966    0.07476653781174385    0.04085403342823022    0.025889530247087775    
  0.019201464982073382    0.01612634954273224    0.014740749893477713    0.014134012959010536    0.013905022759770597    
  0.013835225543568206    0.01390506274543772    0.014133954237282736    0.01474083621114912    0.01612621773756017    
  0.019201622071231807    0.025889344818923635    0.04085431722593499    0.07476618247776033    0.14890130156921869    
  0.2874522721477713    0.4403778039671567    0.41115490772166274    0.23303384158342974    0.15769785682901774    
  0.23303377805420133    0.3067961791260494    0.44728509304407454    0.431611886596693    0.2767907170466434    
  0.147126027267604    0.0770595820884898    0.044020744646555914    0.028825799938857203    0.0216112085968247    
  0.017953537318496013    0.016011737995103546    0.014918254612255266    0.014290801835447923    0.013905040103975712    
  0.013722322281526781    0.013737436429590102    0.014129149034000206    0.015246767814780484    0.01794019658709557    
  0.023973532113190806    0.03758984121866067    0.06844308980334926    0.13581047453587158    0.2631641098139641    
  0.41820704465756664    0.4381815456903974    0.30327659265737983    0.23303377805420133    0.4111550857966666    
  0.4472852046698415    0.4689206405749706    0.37638029071845447    0.23601056842557444    0.13331717672467489    
  0.07646199724936609    0.04778001221393302    0.03334343432997286    0.025577524480077104    0.020995074850037196    
  0.018091461785391155    0.01617247331525618    0.014918258738936166    0.014133985959022485    0.013737393376955878    
  0.013669713285289055    0.014029120940724935    0.01508855513111083    0.017530643735172543    0.022799873637137442    
  0.03420492010469232    0.059080302343444566    0.11161474124284519    0.2107598992149725    0.3511047482230854    
  0.44977425353031764    0.4381815105868829    0.4111550857966666    0.44037743243502936    0.43161151689216115    
  0.37638025916185425    0.2783134500901477    0.18188749440839375    0.11488104517224053    0.07533602137909173    
  0.053054279446338365    0.04001258243172615    0.03152810539456754    0.025536459481881768    0.021189093225218787    
  0.018091461209821816    0.01601171380303478    0.014740777044738817    0.014129178924054563    0.014029097173914947    
  0.014443410791143686    0.015543250808777265    0.017790662090694805    0.022219795207768633    0.031040349045080372    
  0.04890534023549027    0.08428661767433338    0.14865599255762238    0.2461073094686843    0.35110473855947827    
  0.41820715157834265    0.44037743243502936    0.28745228875683365    0.27679088525359397    0.23601029767257012    
  0.18188763718533774    0.13321639589233414    0.09822262977916188    0.0753370800959764    0.060142652657948686    
  0.04890595768577804    0.0395758316365352    0.031744049763864766    0.02553648011843504    0.020995020339560248    
  0.017953563911231537    0.016126280619140423    0.015246697609887939    0.015088585561715101    0.01554322914907228    
  0.016662657774536013    0.018683789033817493    0.022220039156037583    0.02851518351655669    0.040013134489692015    
  0.06087707916940074    0.09625220373859429    0.1486559640898663    0.21075990157358487    0.2631640023791005    
  0.28745228875683365    0.1489011133587383    0.1471256077152162    0.1333173784233168    0.11488084893198264    
  0.09822273766724937    0.0857187405609426    0.07646099023374012    0.06815769036529287    0.059079677666369956    
  0.049168764346337004    0.039575844554902    0.03152805008327917    0.025577554996578992    0.02161114346983016    
  0.019201520194182826    0.017940247275537592    0.01753059116213353    0.01779068962103339    0.01868379804952521    
  0.020269493674158694    0.02279964472897649    0.026820597496775515    0.03334294488317349    0.044082560902380746    
  0.06087711735577124    0.08428658686168339    0.11161474278324657    0.13581047541937905    0.1489011133587383    
  0.07476619598874257    0.07705990060481742    0.07646175421059583    0.07533627686885916    0.07533694479882712    
  0.07646109123012144    0.07706059597053473    0.07476557242304659    0.06844375381239147    0.059079728566995504    
  0.048905946122716905    0.040012688922202284    0.03334339612470295    0.028825921969933676    0.025889443099998008    
  0.023973463150492626    0.022799925027735278    0.022219766238295215    0.022220046161529654    0.022799653997644855    
  0.023973744425263715    0.025889132983991467    0.028826238698248796    0.033343020974773506    0.04001311559447088    
  0.04890542511765581    0.05908029365189892    0.06844316065649769    0.07476619598874257    0.040854346519485586    
  0.0440204249258011    0.047780303154282874    0.053054046073974216    0.060142850658753404    0.06815755702317343    
  0.07476560822477742    0.07734612524947317    0.07476558962147134    0.06815763762607817    0.06014275059171724    
  0.05305417731743629    0.04778013150400338    0.04402059766898663    0.04085419876645345    0.03758988901261898    
  0.034204918597703034    0.031040377482306012    0.028515206722548897    0.02682059147790817    0.025889149925768254    
  0.02560061386258778    0.0258891718307914    0.026820540663476986    0.028515297911502823    0.031040264931806047    
  0.03420504185542803    0.037589779365329805    0.040854346519485586    0.025889237379826468    0.02882609893984099    
  0.0333431937433613    0.04001286772718491    0.04890575994064767    0.05907991194064177    0.06844364096007843    
  0.0747657039681997    0.0770605310951107    0.07646110347040085    0.07533701672969406    0.07533620248979647    
  0.0764618505579458    0.07705980504710276    0.07476632675928896    0.06844301166165447    0.05908036530788229    
  0.048905385132547045    0.04001313531907631    0.03334301519546579    0.028826217018639202    0.02588918189483996    
  0.023973652911887144    0.02279975581311512    0.022219916499345713    0.022219911685398032    0.022799758971108506    
  0.02397364619429334    0.025889237379826468    0.019201733317461195    0.021610922708558754    0.025577803746538137    
  0.0315278379748222    0.03957608955271445    0.04916852778425781    0.059079900551645685    0.06815751038132184    
  0.07646111262943386    0.08571863326014827    0.09822283134018062    0.11488081539612459    0.13331738636604298    
  0.1471256639484391    0.1489010880673756    0.1358104311366063    0.1116147433658497    0.08428652264945508    
  0.06087715040489256    0.04408247328031551    0.03334306649839765    0.026820493463705717    0.022799761314791524    
  0.020269342094387733    0.01868396688878054    0.017790510415315878    0.017530780781046047    0.017940057568933465    
  0.019201733317461195    0.016126073862598664    0.017953791036427327    0.02099478333263828    0.02553675014878231    
  0.031743761192116894    0.0395760980546978    0.04890571381243104    0.06014291657001641    0.07533683682069278    
  0.09822286324349001    0.13321621631216626    0.18188775208688832    0.23601019591537287    0.2767911180788864    
  0.2874522007476877    0.26316408323162666    0.21075968970321934    0.14865605939017124    0.09625204949827101    
  0.060877230831341694    0.04001296951075203    0.02851535473784523    0.022219838120880624    0.01868398383636217    
  0.01666246641885726    0.015543428334451133    0.015088384816476947    0.015246927056818432    0.016126073862598664    
  0.014741015090959094    0.016011424444208607    0.01809175008713705    0.021188827449626014    0.02553673588994492    
  0.03152782523426219    0.04001290429089587    0.05305397253822401    0.07533633756641894    0.11488073281572868    
  0.18188785348698763    0.2783130209339083    0.37638060265897244    0.4316112466135469    0.4403777370847041    
  0.4182066807494699    0.35110501008872685    0.24610697759943503    0.14865622850282634    0.08428635099063908    
  0.048905605095255746    0.031040130168240417    0.02221999025767936    0.017790461738321446    0.015543470005432337    
  0.01444317167601194    0.014029330400196967    0.014128959466054794    0.014741015090959094    0.014133717256614612    
  0.014918533315201966    0.016172200611170463    0.018091733526425034    0.020994777119753918    0.025577815061534018    
  0.03334314514923516    0.04778032279410964    0.07646164008619301    0.13331757291295201    0.23601006974632657    
  0.37638063712583186    0.4689202255612766    0.4472856057020048    0.4111546976787553    0.43818182727993515    
  0.44977365918384765    0.35110520704796666    0.2107593994572846    0.1116151117421647    0.05908003010111495    
  0.03420521654293921    0.022799611908128847    0.017530883561202443    0.01508832762008325    0.014029337551830074    
  0.013669446785855502    0.013737672186644298    0.014133717256614612    0.013905315946029749    0.014290524026875914    