#     DFTpy    
  CRYSTAL 
    
  PRIMVEC    
  1.645304738537034    -2.8497514010799705    0.0    
  1.645304738537034    2.8497514010799705    0.0    
  0.0    0.0    5.562911719517242    
  PRIMCOORD    
  2    1    
  Si    1.645304738537034    0.9499171336933234    1.3907279298793105    
  Si    1.6453047385370343    -0.9499171336933234    4.172183789637931    
  BEGIN_BLOCK_DATAGRID_3D    
  3d_datagrid_density    
  BEGIN_DATAGRID_3D#0    
  15    15    25    
  0.0    0.0    0.0    
  1.645304738537034    -2.8497514010799705    0.0    
  1.645304738537034    2.8497514010799705    0.0    
  0.0    0.0    5.562911719517242    
  0.04223961884893614    0.04409892327078321    0.04961190322614161    0.05872056640240468    0.0708906239665888    
  0.08393646679470897    0.09428209710288439    0.0983031001170714    0.09428208671649806    0.08393645756420581    
  0.07089062176190086    0.05872058460242563    0.04961188215493677    0.04409891732609977    0.04223961884893614    
  0.04409892673227406    0.04409942976138944    0.04779810931482823    0.05519590248242536    0.06611243094973657    
  0.07922462941872131    0.09153745742953537    0.09920226762306666    0.09920498108427456    0.09153464430558042    
  0.07922581400206495    0.066112193302868    0.055195751664247075    0.047798600879886    0.04409892673227406    
  0.04961188437633419    0.04779809784428083    0.04961149152237442    0.05519646788185398    0.06461508392744555    
  0.07714042593531072    0.09058585727299792    0.10131446623593886    0.10547108226058682    0.10131432177718527    
  0.09058819215410052    0.07713871381829382    0.06461634646204402    0.055195749015766946    0.04961188437633419    
  0.05872057184573904    0.05519588638161979    0.05519647425521354    0.05872027773615355    0.06611199522242178    
  0.07713831101181733    0.09044901545257954    0.10306944319366794    0.11085899071549349    0.11086121727947484    
  0.10306753835443849    0.09044949688894688    0.07713870846468686    0.06611219161867558    0.05872057184573904    
  0.07089062382025281    0.06611239678628318    0.06461506933133318    0.06611198834854701    0.07088997662238639    
  0.07922760045676833    0.09058623939064743    0.10306815225828986    0.11296653048781845    0.11669230431830495    
  0.11296591481717216    0.10306755124798674    0.0905881900357355    0.0792258220044443    0.07089062382025281    
  0.0839364813072041    0.07922462725794072    0.07714042964806549    0.07713831321278847    0.07922760259862313    
  0.08393334738665718    0.09153599460726779    0.101314557711725    0.11085972791116683    0.11669135109631637    
  0.11669227797912808    0.11086122985251334    0.1013143125382296    0.09153463667958946    0.0839364813072041    
  0.09428208931237117    0.09153746694548022    0.09058586802908024    0.09044902062434108    0.09058625087055285    
  0.09153600136872976    0.09428384438159783    0.0992024175665041    0.10547226794944617    0.11085975673691595    
  0.11296653577120823    0.11085902365967319    0.10547105916787561    0.09920499787090292    0.09428208931237117    
  0.09830306220173265    0.09920223425042934    0.10131448184906766    0.1030694610231306    0.10306817190063182    
  0.1013145352777269    0.09920242369271902    0.09830314857625351    0.09920242838615378    0.10131455292835342    
  0.10306816869131151    0.1030694622395768    0.10131445502025362    0.09920226851989002    0.09830306220173265    
  0.09428209871036358    0.09920498629688536    0.10547110285443567    0.11085899713013404    0.11296652391763455    
  0.11085974122231948    0.1054722812249603    0.09920244326639654    0.09428383332980901    0.09153599391313526    
  0.09058623837510632    0.09044903996219186    0.09058586886721168    0.09153746383027468    0.09428209871036358    
  0.08393645550313804    0.09153462229744885    0.10131431903887074    0.11086120697097607    0.11669230337724762    
  0.11669132123310463    0.1108597137118986    0.10131456047835961    0.09153598635060467    0.08393336304238398    
  0.0792276020861204    0.07713831702937846    0.07714041552923255    0.07922463101165807    0.08393645550313804    
  0.07089061649000859    0.07922580272547693    0.09058819887784154    0.10306752936055308    0.11296591031917956    
  0.11669227739698959    0.11296652109742605    0.10306815826610567    0.0905862092050081    0.07922759913511085    
  0.07088997351082242    0.06611199000103933    0.06461506857643179    0.06611243067015615    0.07089061649000859    
  0.05872057679997221    0.06611217342017436    0.07713870885735169    0.09044949410031757    0.10306753800130046    
  0.11086121737019387    0.11085900254789001    0.10306944990635562    0.09044901835261972    0.07713833919369342    
  0.06611198650475839    0.05872026932085764    0.0551964712896887    0.05519589891629909    0.05872057679997221    
  0.0496118822286401    0.05519573328220283    0.06461636863009282    0.0771387079550407    0.09058819822940661    
  0.1013143111441621    0.10547106904733436    0.10131447632474301    0.09058584806571848    0.07714043153486294    
  0.06461507090738726    0.05519647084630853    0.04961148346248845    0.0477981039907473    0.0496118822286401    
  0.04409893139855836    0.04779860841178365    0.05519575359505333    0.06611218187476518    0.07922584645878752    
  0.0915346455475914    0.09920499257833    0.09920226109228802    0.09153745671359062    0.07922464687739399    
  0.06611240724047672    0.05519591487266069    0.04779810265589678    0.04409943018880104    0.04409893139855836    
  0.04223961884893614    0.04409892327078321    0.04961190322614161    0.05872056640240468    0.0708906239665888    
  0.08393646679470897    0.09428209710288439    0.0983031001170714    0.09428208671649806    0.08393645756420581    
  0.07089062176190086    0.05872058460242563    0.04961188215493677    0.04409891732609977    0.04223961884893614    
  0.04412282534918039    0.046175191841500096    0.05239478383948345    0.06285228860908788    0.07687674708230828    
  0.09198602479667846    0.10402774489205087    0.10869174886561096    0.10402940461374327    0.09198855700807351    
  0.07687381437065606    0.06285267811725767    0.052395354777197235    0.04617631706837355    0.04412282534918039    
  0.04617632086891264    0.046175305587921274    0.049349920611850236    0.05567535632343279    0.06493751348496529    
  0.07600726641697529    0.0863840307728732    0.09285680238726628    0.09285707483153027    0.08638033214047094    
  0.0760090005301714    0.06493685205990515    0.05567660871971969    0.04934771071799132    0.04617632086891264    
  0.05239535961337192    0.051309830554358365    0.052395705512058834    0.055675586739293535    0.06114707354405016    
  0.06845825969171522    0.07631817133632118    0.0825664506212723    0.08499385610752977    0.08256805140865904    
  0.07631785930576741    0.06845982151065351    0.06114590419435005    0.05567661983766763    0.05239535961337192    
  0.06285266874822001    0.06194527476996614    0.06194538407167193    0.06285127507100677    0.0649375957875883    
  0.06845929699749018    0.0731391596100627    0.0777656747392252    0.08069703161632757    0.08069554824657933    
  0.0777675255999081    0.07313714165215977    0.06845981693292823    0.06493685581452517    0.06285266874822001    
  0.07687380023804471    0.07805955701565188    0.07858505328224885    0.07806049623232399    0.07687517748597457    
  0.07600731277518855    0.07631738754595849    0.07776687782748529    0.07939001381512212    0.08009103058147338    
  0.07938869001908311    0.07776752553231638    0.07631784855572195    0.07600901333789366    0.07687380023804471    
  0.09198855988124713    0.09780526591228562    0.10147535654615333    0.10147396578011417    0.09780527816301822    
  0.09198645013750689    0.08638427438008008    0.0825649851820803    0.08069759983446702    0.08008699300181525    
  0.0800910161585615    0.08069555452200859    0.08256800464750115    0.0863803145878355    0.09198855988124713    
  0.10402939747886267    0.11662274213019395    0.12678738323084343    0.130643184226888    0.12678634977596503    
  0.11662420084785963    0.10402783508650089    0.09285670910379269    0.08499463071567671    0.08069765652543558    
  0.07939001892008732    0.08069707476847811    0.08499387588767901    0.09285711052457009    0.10402939747886267    
  0.10869172431510327    0.1283308238075323    0.14726249127293756    0.15894792901268515    0.15894577528692147    
  0.147266385188793    0.1283291368773128    0.10869230149826332    0.09285670547790893    0.08256499669156202    
  0.0777668609862427    0.07776568756016582    0.08256643553131245    0.09285681011003594    0.10869172431510327    
  0.10402775428549216    0.12832784098097616    0.1551723701393107    0.17659520928019706    0.18469204110295712    
  0.17659498643341467    0.15517108790204923    0.1283291151306696    0.10402781138749899    0.08638428271359204    
  0.07631738091702449    0.07313918019101541    0.07631817203508438    0.08638403643039695    0.10402775428549216    
  0.09198602251649442    0.1166268675972019    0.14726560560721286    0.17659392352713288    0.19445276099589748    
  0.19445002675412942    0.17659497635179772    0.14726639816384018    0.11662420934951472    0.09198648331701345    
  0.07600732532846989    0.0684592999288242    0.06845824309678775    0.07600726376492911    0.09198602251649442    
  0.07687673708350995    0.09780304424055183    0.12678609656661755    0.15894617399276798    0.18469249190474712    
  0.19445272849934694    0.184692055382281    0.15894580037566686    0.12678630706497884    0.09780528916271583    
  0.07687517346949505    0.06493757287357975    0.06114706250532293    0.06493753578758674    0.07687673708350995    
  0.06285229631207703    0.07805971233637571    0.10147671304492495    0.13064275389379892    0.15894615638938717    
  0.17659391517111384    0.17659524015777328    0.15894793091453527    0.13064315203592378    0.10147401164354974    
  0.07806048171520237    0.06285126236935097    0.055675592330274935    0.05567535315875762    0.06285229631207703    
  0.052394778583999976    0.06194520716886223    0.07858419915561887    0.1014767241143456    0.1267860863450382    
  0.14726561125897428    0.15517233512301978    0.14726250162125776    0.12678738949506857    0.10147532880929362    
  0.07858506746696041    0.06194539071150581    0.05239569549278284    0.049349904821170416    0.052394778583999976    
  0.04617519773333029    0.05131179173337657    0.0619452310335288    0.0780597038614871    0.09780308911069914    
  0.1166268654672401    0.12832782194634534    0.12833086560609921    0.11662272701070124    0.09780531230892037    
  0.07805957815976675    0.061945307627477186    0.05130983241155327    0.04617531154155052    0.04617519773333029    
  0.04412282534918039    0.046175191841500096    0.05239478383948345    0.06285228860908788    0.07687674708230828    
  0.09198602479667846    0.10402774489205087    0.10869174886561096    0.10402940461374327    0.09198855700807351    
  0.07687381437065606    0.06285267811725767    0.052395354777197235    0.04617631706837355    0.04412282534918039    
  0.04944773427555057    0.052136324017530496    0.06054037282061583    0.07504178180955519    0.09474701411756646    
  0.11635986035734944    0.1338068723761018    0.14054887281335346    0.1338096565417543    0.1163599477581036    
  0.09474489238581926    0.07504060063612203    0.060541598445585224    0.05213645517347196    0.04944773427555057    
  0.052136457415597276    0.05213761948851105    0.05552784096308642    0.06253211937405216    0.07289266585997158    
  0.0853323469130319    0.09708396677436891    0.10437734560757722    0.10437314200614314    0.09708513816139769    
  0.08533087731781712    0.07289517758871784    0.0625316683144227    0.05552814809252549    0.052136457415597276    
  0.06054160104568326    0.059915257858385355    0.06054115272664276    0.06253236082475741    0.06609812382400873    
  0.07117638999792053    0.07688325289146095    0.08149935079928183    0.08329794904097493    0.08149954628260671    
  0.07688328921202403    0.07117724451603584    0.0660969076554283    0.06253167375373975    0.06054160104568326    
  0.07504059025057139    0.07645796784584673    0.07645676212934395    0.0750404609894355    0.07289322641629892    
  0.07117859763783048    0.07057221901792966    0.07085943556582315    0.07136677714251123    0.07136799352336236    
  0.0708590356723651    0.07057267168921534    0.07117724691773807    0.07289519087353727    0.07504059025057139    
  0.09474490578954739    0.10228080563155563    0.10514538356958926    0.10228295574756684    0.09474614158411332    
  0.08532963115173398    0.0768834158176738    0.070859234542283    0.06758956505669339    0.06663028980289785    
  0.06758962585368272    0.07085905311854017    0.0768832599694974    0.08533089797350413    0.09474490578954739    
  0.11635993657455622    0.1348525390109389    0.14624367843474054    0.14624475879393137    0.13484847975786443    
  0.11636340163153853    0.09708337035734974    0.08149993325834452    0.07136631867562925    0.06663275618135457    
  0.06663027192995843    0.07136800697533276    0.08149951864430681    0.09708511599283134    0.11635993657455622    
  0.13380965541922446    0.1665507603769133    0.1927202529720812    0.20261837562123886    0.19271774926705956    
  0.16655274674980486    0.13380738261923145    0.10437608713761501    0.0832976724693113    0.07136634035022518    
  0.06758955638651483    0.07136679651673658    0.08329796044964989    0.10437314092433271    0.13380965541922446    
  0.14054883929817458    0.18631012253616766    0.23002196009554085    0.2563283669683669    0.256328323657207    
  0.23002962809224461    0.18630831795637026    0.14054900545618912    0.10437607748894809    0.08149990442504203    
  0.07085920718869779    0.07085943724394685    0.08149931415764393    0.10437734080377635    0.14054883929817458    
  0.13380690040448975    0.1863084288774504    0.24411884359561084    0.2881958738921949    0.3040770113913209    
  0.2881924378434374    0.24412086647376485    0.18630832692419227    0.13380737208894072    0.09708336970698861    
  0.07688342702575131    0.07057224483527536    0.07688325289100413    0.09708395394375474    0.13380690040448975    
  0.1163598477762557    0.1665536023031332    0.23002792521133916    0.288192455051605    0.32098622067812504    
  0.3209827803427197    0.2881923995153109    0.2300296472454034    0.16655273709391022    0.11636341532130408    
  0.08532963360551842    0.0711786026469041    0.07117638043384909    0.08533234487622861    0.1163598477762557    
  0.09474701932003635    0.13484937581744752    0.19271919497678616    0.2563252605879899    0.3040778197648633    
  0.3209861262421285    0.304077015912643    0.2563283092743676    0.19271770857043635    0.13484846700304706    
  0.09474614699639292    0.07289322824479226    0.06609811395173472    0.0728927005904001    0.09474701932003635    
  0.07504179058357911    0.10228130949060152    0.14624675381551927    0.2026174418873741    0.25632525665663586    
  0.2881924392321346    0.28819589325507466    0.256328328171489    0.20261838066946736    0.14624479303276777    
  0.10228295112004193    0.07504045282931972    0.06253237025577109    0.06253211839029787    0.07504179058357911    
  0.060540363123813536    0.07645747414167763    0.10514369971535266    0.14624674751640168    0.19271921283573204    
  0.23002792702845637    0.24411878137274656    0.23002199630395692    0.19272024960664194    0.14624366668111796    
  0.10514542029566233    0.07645676219656015    0.060541159264793976    0.05552782962717738    0.060540363123813536    
  0.05213632902755335    0.05991749572747053    0.07645749496858768    0.10228131806616765    0.13484938576631622    
  0.16655360496335964    0.18630843639635356    0.186310178716766    0.16655072354730047    0.13485258410163525    
  0.10228085184218091    0.07645799114750174    0.05991526113626626    0.052137618716275966    0.05213632902755335    
  0.04944773427555057    0.052136324017530496    0.06054037282061583    0.07504178180955519    0.09474701411756646    
  0.11635986035734944    0.1338068723761018    0.14054887281335346    0.1338096565417543    0.1163599477581036    
  0.09474489238581926    0.07504060063612203    0.060541598445585224    0.05213645517347196    0.04944773427555057    
  0.05731429141918522    0.061086516921371    0.07300360586921155    0.09396900733015312    0.1230822777416178    
  0.155528158074128    0.18175926090096645    0.19181010671975934    0.18176579836823337    0.15552666681258503    
  0.1230772540231597    0.09397143310111378    0.07300379740521676    0.061085264107058536    0.05731429141918522    
  0.06108526449135571    0.06108661939389076    0.0653436361692657    0.07431848857256584    0.08780769327131892    
  0.10427303242984161    0.12000667163567061    0.12967711157829007    0.12967372089554371    0.12000563064175612    
  0.10427277168609121    0.087810571481522    0.07431661621356925    0.06534500160356385    0.06108526449135571    
  0.07300380016132003    0.07266933523297907    0.07300245047088037    0.07431738296416457    0.07715356038529632    
  0.0816920307020779    0.08719184518026847    0.09179220538434928    0.09357085906467194    0.09179071202127241    
  0.08719367357839304    0.08169286515283455    0.07715121048137688    0.0743166113151139    0.07300380016132003    
  0.09397142027388553    0.09782026488971117    0.09782285543559127    0.09397005683755798    0.08780897595415176    
  0.08169164739293978    0.07721246365364824    0.07472062532482948    0.0738001729661675    0.07380022945962966    
  0.07472363150079982    0.07720809106777395    0.08169286800313857    0.08781061259069259    0.09397142027388553    
  0.12307724890426798    0.1381914064337971    0.14398080347423328    0.1381922164973359    0.12308070451022896    
  0.10427165586838352    0.08719218058056653    0.0747239576434881    0.06761958453103549    0.06539644288249626    
  0.06761863251288627    0.07472364474927737    0.08719367648666418    0.10427278311249696    0.12307724890426798    
  0.1555266952212193    0.18988739445002228    0.21119219230200817    0.21119083668742317    0.18988184296586547    
  0.15553192582808564    0.12000544214291375    0.09179043316546187    0.07379897625397848    0.06539825608650597    
  0.06539643637707997    0.07380023692211658    0.09179070016115354    0.12000562334035465    0.1555266952212193    
  0.18176580093058306    0.23964602868107737    0.28423054985546864    0.3004605006819008    0.28423431597601345    
  0.23964483203151857    0.18176105539146767    0.12967904115427537    0.09357060817410631    0.07379901481417554    
  0.06761957592121018    0.07380021160001132    0.09357085862329938    0.12967373623004055    0.18176580093058306    
  0.19181006398573353    0.269720660140559    0.3367372638944956    0.3702530375570734    0.3702515183117116    
  0.3367459014688874    0.26973116166811334    0.19180396750430104    0.1296790622998192    0.09179041403297689    
  0.07472395601751688    0.074720632085608    0.0917922075796563    0.12967712939314582    0.19181006398573353    
  0.18175930396935652    0.2697337149377109    0.354341917310898    0.3988838373618546    0.40807849702465476    
  0.3988807029442763    0.35434798212531615    0.2697311911489452    0.18176103022239037    0.12000544339977257    
  0.08719219704937031    0.07721248708113777    0.08719187712281128    0.12000666437093356    0.18175930396935652    
  0.15552818361101475    0.23964023566298864    0.33674688405284675    0.3988826649089331    0.4125136769181672    
  0.4125112931240372    0.39888067690099105    0.33674590034185903    0.2396448523568528    0.155531961416184    
  0.10427166515212856    0.08169165055061894    0.08169201967874881    0.10427302847703565    0.15552818361101475    
  0.1230822782166086    0.1898861808694776    0.2842373864224292    0.3702323603254917    0.40808912534190905    
  0.41251363278001973    0.40807850449080624    0.37025154242291747    0.28423425421069487    0.18988183816088924    
  0.12308069928598045    0.08780898216052628    0.07715354691859742    0.08780770617117546    0.1230822782166086    
  0.09396901565699417    0.13819172413051586    0.2111887317245812    0.30047355715042084    0.37023236621595185    
  0.39888261311182116    0.3988838577508693    0.37025302276297795    0.30046047197868575    0.21119085466307363    
  0.13819218753832602    0.09397005729514789    0.07431738120195763    0.07431848404197529    0.09396901565699417    
  0.07300359010165576    0.09782361854765807    0.14398059143755734    0.21118874161185733    0.284237401975298    
  0.33674684041550085    0.35434183306927675    0.33673728665054337    0.28423053196546033    0.21119219507414955    
  0.14398080446727723    0.09782287309597362    0.07300244678115206    0.06534362688090477    0.07300359010165576    
  0.06108651763638336    0.07266728712176687    0.09782363617121644    0.13819171014850848    0.1898862511668874    
  0.23964023920095948    0.26973369665103    0.2697207177407225    0.23964599603556694    0.1898874377435369    
  0.13819144231117364    0.09782030073495535    0.0726693431996843    0.061086625329168934    0.06108651763638336    
  0.05731429141918522    0.061086516921371    0.07300360586921155    0.09396900733015312    0.1230822777416178    
  0.155528158074128    0.18175926090096645    0.19181010671975934    0.18176579836823337    0.15552666681258503    
  0.1230772540231597    0.09397143310111378    0.07300379740521676    0.061085264107058536    0.05731429141918522    
  0.06596036752082954    0.07101453959726695    0.08706689753351769    0.11580864276738212    0.15651969632927762    
  0.20181069326400958    0.23753203223716124    0.2508863568166175    0.23756485559501664    0.20181141921395815    
  0.1564916065610519    0.11581593691000293    0.08706857094947978    0.07101400035934789    0.06596036752082954    
  0.07101400152743281    0.07101607722340342    0.07654358272291237    0.08820271474716884    0.10596737517506152    
  0.12800439230118035    0.14912698571220467    0.16194276799938379    0.16194193721402653    0.1491062611400889    
  0.12800447449214958    0.10598705696051292    0.0881978797340325    0.07654243876083584    0.07101400152743281    
  0.08706858628738535    0.08682969814819906    0.08706444080389421    0.08819571134491956    0.09106359147516856    
  0.09600677387286093    0.10230405061664578    0.10769585974038373    0.10975939423604109    0.10769238949499903    
  0.10231959319431495    0.09600830896866785    0.09104524572425621    0.08819788851257448    0.08706858628738535    
  0.11581594358798611    0.1218951650496156    0.12190068252281591    0.11581736950328121    0.10596804606027194    
  0.09600872375287514    0.08839118323991448    0.0837996032505633    0.08183897163066327    0.08183904893273408    
  0.0838056208713606    0.08837396630129045    0.0960083251475693    0.10598706839674767    0.11581594358798611    
  0.15649156312548076    0.17927183309347594    0.18790468488522089    0.1792705609122557    0.1565193621739001    
  0.1280002232939059    0.10230416839889996    0.08380890534435691    0.07324840385229171    0.06988974061974405    
  0.073246420542408    0.08380564285161689    0.10231956922887797    0.12800449140933784    0.15649156312548076    
  0.20181142459145676    0.25174254922260486    0.2814053704657513    0.2813975071333154    0.2517048962844463    
  0.20182012682429737    0.14912467765217347    0.10768826595749063    0.0818380135323534    0.06989009814102258    
  0.06988972174166182    0.08183906063040627    0.10769234658303574    0.1491062602319898    0.20181142459145676    
  0.2375648573469004    0.31633997786393026    0.36762922193215375    0.3829315565133869    0.3676831830299112    
  0.31633296265312166    0.23753767695760689    0.16195354468443723    0.10975888151942109    0.08183806298635987    
  0.07324840263049698    0.08183901446419332    0.10975940965139434    0.16194198264502585    0.2375648573469004    
  0.25088630861927097    0.35088044529883455    0.4071916219463269    0.4114102684728096    0.4113771370702899    
  0.40719560087981793    0.3509392071172901    0.25085810540666964    0.16195354143016924    0.10768825080872518    
  0.08380885890186733    0.08379958455001203    0.10769583782243473    0.16194276068561325    0.25088630861927097    
  0.23753205262504673    0.35093380064825785    0.41264259084211075    0.38385416480134166    0.35387750010206886    
  0.38384755905938145    0.4126354188601862    0.35093922309178577    0.23753767949870272    0.14912466992946435    
  0.10230414588812153    0.08839119404807098    0.10230404416429933    0.14912696971806277    0.23753205262504673    
  0.2018107173414376    0.3163366171181207    0.4072015690620776    0.38384224643430065    0.31263247408778316    
  0.3126756011959699    0.3838475421960136    0.4071956047481905    0.31633296563083696    0.20182019352914168    
  0.1280002458227819    0.09600871392974446    0.09600676045901936    0.12800439075933992    0.2018107173414376    
  0.1565196887612296    0.2517112032844744    0.36768067216846256    0.4113262211499308    0.3539506621451959    
  0.31263239581241276    0.3538774710117888    0.41137715418970133    0.36768312576426115    0.25170488770107363    
  0.15651931588494067    0.10596800175473135    0.091063583020923    0.10596741371681948    0.1565196887612296    
  0.11580863743568572    0.17928067737498404    0.28139055254035655    0.38297661826757456    0.4113262469967267    
  0.3838422455825197    0.3838542063867935    0.41141023045450725    0.382931550949723    0.28139757776825247    
  0.17927054691260264    0.11581733938318638    0.08819571701080975    0.08820270142282967    0.11580863743568572    
  0.08706688466089939    0.1219000968210664    0.18790177190212606    0.2813905920492329    0.3676806506785237    
  0.4072015597888926    0.4126425658490952    0.40719168460636507    0.3676292461093538    0.281405350254774    
  0.1879046756879618    0.12190068528841412    0.08706443099897632    0.07654357659496441    0.08706688466089939    
  0.07101453980834269    0.08682904771212557    0.1219001060837039    0.17928069924009213    0.2517112508648981    
  0.31633661353626524    0.35093381747278996    0.35088054592984796    0.31633992125391236    0.25174263587541    
  0.1792719066147611    0.12189522847287199    0.08682969158605319    0.07101608761037213    0.07101453980834269    
  0.06596036752082954    0.07101453959726695    0.08706689753351769    0.11580864276738212    0.15651969632927762    
  0.20181069326400958    0.23753203223716124    0.2508863568166175    0.23756485559501664    0.20181141921395815    
  0.1564916065610519    0.11581593691000293    0.08706857094947978    0.07101400035934789    0.06596036752082954    
  0.07275910170758317    0.07888826374580797    0.09842693098402701    0.13380207014055312    0.1843199517765892    
  0.2397660705034645    0.2820084737013935    0.297322824639448    0.2820897761567652    0.2397770677419977    
  0.1842480422267917    0.13381436043798292    0.09843608479117395    0.07888678167082483    0.07275910170758317    
  0.07888677743176042    0.07888641494013354    0.08553694288429851    0.09962395112898022    0.12126908197477018    
  0.14830336147613188    0.17417347555797066    0.18981504140887417    0.18981940545599257    0.17411696135830937    
  0.14830109662290764    0.1213221473300424    0.09961447124367968    0.08552734085784262    0.07888677743176042    
  0.09843609050140262    0.09823778470989881    0.09842462817771154    0.09960582703983131    0.10292800792057616    
  0.10863021024476399    0.11584370398272192    0.12211770853704045    0.12454161744655949    0.12210888186364129    
  0.11588626213902291    0.10863187125003855    0.10287927860639855    0.09961449400226115    0.09843609050140262    
  0.13381435761936483    0.1415796893389468    0.1415954193962935    0.13382403409677446    0.12126951816997655    
  0.1086337869415602    0.09878573997242857    0.09262411009510212    0.08993577632788557    0.08993726785851404    
  0.09263431205492216    0.09874569885342488    0.10863186703851853    0.12132216310380266    0.13381435761936483    
  0.1842480472846773    0.2127162472813289    0.22333875942395628    0.21270163671204298    0.18432045784749987    
  0.1482958019279519    0.11584412308980774    0.0926439206413734    0.07944158905217058    0.07525076219674963    
  0.0794390617073846    0.09263434056571322    0.11588623073741615    0.14830111560885023    0.1842480472846773    
  0.23977707807821932    0.2993554441389624    0.33225531271826747    0.33224706431797296    0.2992630174280481    
  0.23978335755030572    0.17417237769734065    0.12209728472573794    0.08993438059264657    0.07525215040415313    
  0.07525077126517014    0.08993728432865593    0.12210887220328646    0.1741169665644012    0.23977707807821932    
  0.28208979722392086    0.36724343700228546    0.406431311662846    0.4119373017044165    0.40656145099465885    
  0.3672370699893017    0.28201558827992346    0.18983936654536648    0.12454462388331505    0.08993440250980077    
  0.07944156307513738    0.08993581253112812    0.12454163726135378    0.18981944140949716    0.28208979722392086    
  0.2973227758841942    0.39556363044367676    0.4033309352305958    0.35645202798576636    0.35637743669869193    
  0.40331456834678536    0.3957080187756682    0.29726006707195723    0.18983932648975    0.1220972663564339    
  0.09264389651455344    0.09262412056264334    0.12211767307917906    0.18981502192805258    0.2973227758841942    
  0.28200844771267514    0.39568242426221756    0.38512103016910937    0.2652353835381603    0.2066890807324271    