#     DFTpy    
  CRYSTAL 
    
  PRIMVEC    
  7.26496551724138    0.0    0.0    
  0.0    7.26496551724138    0.0    
  0.0    0.0    7.26496551724138    
  PRIMCOORD    
  8    1    
  Si    0.0    0.0    0.0    
  Si    1.816241379310345    1.816241379310345    1.816241379310345    
  Si    0.0    3.63248275862069    3.63248275862069    
  Si    1.816241379310345    5.448724137931035    5.448724137931035    
  Si    3.63248275862069    0.0    3.63248275862069    
  Si    5.448724137931035    1.816241379310345    5.448724137931035    
  Si    3.63248275862069    3.63248275862069    0.0    
  Si    5.448724137931035    5.448724137931035    1.816241379310345    
  BEGIN_BLOCK_DATAGRID_3D    
  3d_datagrid_density    
  BEGIN_DATAGRID_3D#0    
  31    31    31    
  0.0    0.0    0.0    
  7.26496551724138    0.0    0.0    
  0.0    7.26496551724138    0.0    
  0.0    0.0    7.26496551724138    
  0.10100193136783558    0.17687084232542863    0.4015575850553129    0.4895626981168988    0.32346369472141895    
  0.15792842541348226    0.0715343484582538    0.03436079550144639    0.019152699187553367    0.01289661160666381    
  0.010267327087852784    0.009228101120039689    0.008885059204702839    0.008857720293221414    0.008909395927990622    
  0.008944810701449105    0.008909405732946624    0.008857704189143601    0.00888509583502197    0.009228050167135425    
  0.010267378245271975    0.012896545124027185    0.01915278128722565    0.03436068865782073    0.07153449780655621    
  0.15792824862523366    0.32346391623120063    0.4895624635115118    0.40155767149824195    0.1768707553555492    
  0.10100193136783558    0.17687075627456225    0.25915888036083073    0.45084820385384383    0.47500281784587817    
  0.30082166220202977    0.14748930437309513    0.0681229330389103    0.033535564029864656    0.019131123400463995    
  0.013077438527564229    0.010467315799974116    0.00938127822329129    0.008978433499184708    0.008887501301812966    
  0.008892704344125509    0.00890940678758928    0.008892689026516638    0.008887523926521892    0.00897839219846148    
  0.009381323795773291    0.0104672742855136    0.0130774923189962    0.01913105721702445    0.03353566882685825    
  0.0681227761967993    0.1474894596996077    0.3008214395622724    0.4750030336402196    0.4508480496704662    
  0.2591589532036996    0.17687075627456225    0.4015578039422499    0.4508479930956269    0.5014055239340208    
  0.40656330296642945    0.24065899763885268    0.12118139013797556    0.059477329813358085    0.031463698135950506    
  0.019169833112920327    0.013668451780832116    0.011098638130876708    0.009870210648070726    0.009275285676181137    
  0.00900629584383917    0.008887518833584369    0.008857691780403798    0.008887532204616596    0.009006273895588052    
  0.009275308943674048    0.009870167025630764    0.011098685940064077    0.013668400921908203    0.01916990469401772    
  0.0314635999827931    0.05947745434242802    0.12118124290799323    0.24065914924369802    0.40656305918842206    
  0.5014057580485506    0.4508480439902338    0.4015578039422499    0.48956234275330524    0.4750030298481125    
  0.4065631493374248    0.28408273041435234    0.1667156412293446    0.09000334176199196    0.04903786454577914    
  0.029085138901897567    0.019532552741670393    0.014761537502324494    0.012208659988576835    0.010727418425483852    
  0.009823035338148304    0.009275281332228465    0.00897838838322542    0.008885110580382024    0.008978374049089511    
  0.009275308345704426    0.009823001049586323    0.010727450570935599    0.01220862343733792    0.014761596561250662    
  0.019532493695660496    0.029085220609559165    0.049037769211493124    0.09000350147534325    0.1667154676111997    
  0.28408280270573155    0.40656308671611713    0.4750032339131839    0.48956234275330524    0.32346403597085144    
  0.30082130447675437    0.24065915020883488    0.1667155656395323    0.10442005468533459    0.06330092124181716    
  0.039805394814864795    0.027217438847786875    0.020390962701230454    0.01639332187587463    0.013814489458530754    
  0.012010238815590489    0.010727432186389272    0.009870174705591732    0.009381328413590915    0.009228020040207277    
  0.009381334525340398    0.00987015817342569    0.010727470516415516    0.01201020268087889    0.013814537799077542    
  0.01639325282870695    0.020391028077208096    0.027217373776268865    0.03980545996114956    0.06330083950668122    
  0.10442016490089037    0.16671543504594113    0.24065921720220418    0.3008213128486995    0.32346403597085144    
  0.15792808485307763    0.1474895793963748    0.12118119595116339    0.09000346900910432    0.06330089338826422    
  0.04466527867672931    0.033114702277425544    0.026165245184713835    0.021710834491532462    0.018487630257586304    
  0.015909981487612825    0.013814520388903207    0.01220863657560815    0.011098684128297025    0.010467258202381926    
  0.010267401358649151    0.010467249343738607    0.011098704326698216    0.01220861044023033    0.01381455895410994    
  0.015909932154116683    0.018487683165594862    0.02171077654072249    0.026165306962829645    0.033114609189678255    
  0.044665363872266085    0.0633008094139567    0.09000356869431286    0.12118112286389521    0.14748960331213778    
  0.15792808485307763    0.07153465133327054    0.06812268276990874    0.05947749771495054    0.04903774610698748    
  0.03980546301896639    0.03311467211640753    0.02873396178685823    0.025720789685582328    0.02324316899065477    
  0.020848171046622843    0.018487643279342443    0.01639328246138859    0.014761596728814908    0.01366839002562085    
  0.013077519208112733    0.012896512762258701    0.013077533149938767    0.013668372449858397    0.014761617836485911    
  0.01639324624271193    0.01848769412249801    0.020848112887086937    0.023243243583637566    0.02572070453563549    
  0.02873401268096847    0.03311458884037827    0.03980552394796241    0.04903770061145602    0.05947752446228051    
  0.06812267388116244    0.07153465133327054    0.03436055781147514    0.033535750925063654    0.03146352575683022    
  0.029085243497344152    0.027217356873117375    0.02616527569694069    0.025720776867964864    0.02533678930879848    
  0.024547755063663988    0.023243185677790754    0.02171078961603295    0.020391017344649605    0.019532495945441427    
  0.019169912807725398    0.019131016636442087    0.01915284081173944    0.01913100882817252    0.019169940468105745    
  0.019532460430548612    0.02039105051640445    0.021710749458299695    0.02324325359160937    0.024547684120794628    
  0.025336837634674727    0.025720709259773742    0.02616534477667897    0.027217308748711744    0.029085290756251814    
  0.03146349436817013    0.03353578447334322    0.03436055781147514    0.01915288706248723    0.0191309541126638    
  0.019169960842032714    0.01953243632707752    0.02039106374157248    0.021710763587232118    0.023243229847321585    
  0.02454773673516229    0.025336790357923782    0.025720757202144666    0.02616527060525596    0.02721737002859528    
  0.029085239223941604    0.03146355873755111    0.033535732058511555    0.034360596280642426    0.0335357499780315    
  0.03146353860619773    0.029085282418286614    0.02721731782210336    0.02616532770923218    0.02572070071962253    
  0.025336862054149246    0.024547665351082323    0.023243285133966687    0.021710719045775477    0.02039109884779584    
  0.01953239741007049    0.019169985596994784    0.019130946108169664    0.01915288706248723    0.012896454440319319    
  0.013077588442357086    0.013668328312622977    0.014761657193052537    0.016393218034052113    0.01848770284817113    
  0.020848123265632918    0.023243212296175868    0.025720736930501913    0.02873398791121221    0.03311462078579326    
  0.03980547640650093    0.049037754710987154    0.05947749375428312    0.06812268248014598    0.0715346236593783    
  0.06812264678709141    0.059477536677966805    0.04903769529525603    0.03980554853129565    0.03311455825199287    
  0.028734049513468116    0.025720693116433036    0.023243295851323793    0.02084807658367947    0.018487752359755524    
  0.016393186583655742    0.014761693188824178    0.013668301521786073    0.013077606951680736    0.012896454440319319    
  0.010267490758558463    0.010467181483637763    0.011098770317682232    0.012208551197110127    0.01381459878736577    
  0.015909900702544163    0.018487710939452763    0.02171076331999825    0.02616530239609121    0.033114617326109576    
  0.04466534854360472    0.06330081806486561    0.09000353970161709    0.12118114232356433    0.14748961228575388    
  0.1579280076375798    0.14748963731870335    0.12118106330358173    0.09000362736114569    0.06330073538663074    
  0.04466541400897828    0.03311453305911842    0.02616538578680367    0.021710701301082817    0.01848775879672961    
  0.015909867624062796    0.013814630277849392    0.012208535816584166    0.01109878129606538    0.010467172186432692    
  0.010267490758558463    0.009227958355064231    0.009381416663652239    0.009870089068319333    0.010727524644232727    
  0.012010134283071034    0.013814593278433953    0.01639322809150818    0.020391060825674323    0.02721735107084778    
  0.039805489420997396    0.06330080165272764    0.10442017377434411    0.1667153699001207    0.24065929420318233    
  0.3008211424155561    0.3234641567694898    0.30082111680262474    0.24065938550057056    0.1667152722821299    
  0.10442029694057049    0.06330069650154367    0.03980558004194343    0.02721727805439761    0.020391104017946814    
  0.01639316455229477    0.013814633782362173    0.012010104895909354    0.010727548305116314    0.00987006526959314    
  0.009381421192308554    0.009227958355064231    0.00888520387612477    0.008978285483832643    0.009275386631190966    
  0.009822933485257033    0.01072751483195973    0.012208560393188147    0.014761646691260066    0.019532440702815942    
  0.02908526342499468    0.049037704451716256    0.09000355412410557    0.16671536460449643    0.2840830149870895    
  0.4065629117859395    0.475003422164602    0.489562093370487    0.47500344459867566    0.4065627736472305    
  0.28408311821519955    0.1667152245848874    0.09000365077164009    0.049037612424324035    0.02908534220059982    
  0.019532373721187993    0.014761702950549023    0.012208522336109928    0.010727555523991492    0.00982290418342204    
  0.009275408730503993    0.008978287735365362    0.00888520387612477    0.00885758475933068    0.00888761671581287    
  0.009006192947203992    0.0092753712494733    0.009870110097013364    0.011098745901905122    0.013668333142189092    
  0.01916995905192159    0.03146353920893204    0.059477498862100985    0.12118115423140219    0.24065924818555917    
  0.40656292453815335    0.5014059388421553    0.4508477546107624    0.40155812117885226    0.4508476765120715    
  0.5014060729211998    0.406562794235657    0.2406594494476694    0.12118102839239654    0.05947762129823295    
  0.03146346588971504    0.019170015917666133    0.013668292782923933    0.01109880078585641    0.009870073224072547    
  0.009275404124025095    0.009006168956960828    0.008887632078435405    0.00885758475933068    0.00890952500564785    
  0.008892589091567258    0.008887624595930031    0.008978307757136208    0.009381394303381037    0.010467204942244788    
  0.01307755528054153    0.01913098466339942    0.033535739351811346    0.06812271584000583    0.1474895635468197    
  0.30082124200313565    0.4750032852388228    0.45084788515950475    0.2591591799484108    0.17687047383198612    
  0.25915924844372606    0.45084763361369146    0.4750035480853393    0.3008210790140077    0.14748970838294886    
  0.06812257608624428    0.03353583118524201    0.019130915488731352    0.013077602720811586    0.01046716130994157    
  0.009381430869996741    0.008978275122712384    0.008887625193654752    0.008892591407089706    0.00890952500564785    
  0.008944706463406456    0.008909503981418394    0.008857621349871248    0.008885179639538847    0.009227991552374653    
  0.010267446848941503    0.012896495514630481    0.019152837695251817    0.03436061237194991    0.07153457633565403    
  0.15792807502504544    0.3234640281157017    0.48956223419260236    0.40155795915384274    0.17687052095698944    
  0.10100215685227712    0.17687048574436107    0.4015580520644804    0.4895619920003072    0.3234642631603642    
  0.15792789345612948    0.07153472198633325    0.034360522894175335    0.019152908765400208    0.012896430596433485    
  0.010267494323188343    0.009227948679344756    0.008885210232567534    0.008857593907126314    0.008909521320733407    
  0.008944706463406456    0.008909505190553871    0.00889260857474541    0.008887597878916645    0.00897832672271593    
  0.009381372581930508    0.010467227196513995    0.013077533677027919    0.019131016008059998    0.03353569960989563    
  0.0681227593155339    0.1474895252591555    0.3008212964577302    0.4750032530550128    0.45084785716562614    
  0.2591591541822278    0.1768705416813541    0.25915920716784085    0.450847744548897    0.47500341366366705    
  0.3008211430564828    0.1474896934518893    0.06812260027762572    0.03353580362022218    0.019130936138050284    
  0.013077594787923686    0.010467168299247032    0.00938141289490644    0.008978288511871024    0.00888761362475356    
  0.008892596383218512    0.008909505190553871    0.00885761174277579    0.008887583463133954    0.009006217626308483    
  0.009275350717508074    0.00987013500412937    0.01109870886317314    0.013668388499046563    0.01916990128448398    
  0.0314635952397284    0.05947741644572912    0.1211812823804204    0.24065912419886534    0.4065630978508148    
  0.5014057698252845    0.4508478800708595    0.4015580142952774    0.45084784875768474    0.5014059839928781    
  0.40656289298931975    0.24065934191762473    0.12118106806189276    0.05947756980071103    0.031463506726192185    
  0.019169987986879234    0.013668321321156102    0.011098760319890474    0.009870103253422418    0.009275382101360578    
  0.00900620802726827    0.00888760618317685    0.00885761174277579    0.008885161505010468    0.00897833012985074    
  0.009275347304107572    0.00982298170082381    0.010727470109725733    0.012208616767277676    0.01476159097580174    
  0.019532514219562796    0.029085169550503866    0.04903783165934406    0.09000341308083054    0.16671556055806097    
  0.2840827599014345    0.40656311002373013    0.47500310457083367    0.4895624006960261    0.4750032033242849    
  0.40656296081080817    0.2840829318100627    0.16671538385037965    0.09000355257950386    0.049037698051420074    
  0.029085288232753567    0.019532421141804788    0.01476166151768553    0.012208564207769544    0.010727511923051594    
  0.00982293023687923    0.009275373852833113    0.008978317104235599    0.008885161505010468    0.009228001797124031    
  0.00938135951012676    0.009870151264497334    0.010727464020046248    0.012010205946264844    0.013814515247252874    
  0.016393295435524313    0.020390962969518176    0.02721744278002639    0.03980538491992145    0.06330097811088066    
  0.10442000563860233    0.1667156033180585    0.24065900290936637    0.3008214696236225    0.3234639142733726    
  0.3008213961341733    0.2406591294810641    0.16671549728998888    0.1044201405302995    0.06330081787801127    
  0.03980548160648357    0.027217356235430232    0.020391062891819526    0.016393220301167237    0.013814574287838121    
  0.012010160755918578    0.010727495823293865    0.009870118230662627    0.00938138040284428    0.009228001797124031    
  0.010267418930136146    0.010467246431950761    0.011098693490758713    0.012208635440261417    0.013814518574679744    
  0.015909992783297022    0.018487611444497336    0.02171087132291327    0.026165179911173973    0.03311475201203796    
  0.04466520691434471    0.06330099221478509    0.0900033434913977    0.12118136506138798    0.1474894071078482    
  0.15792827383399471    0.14748945176904593    0.12118124967505761    0.09000343984045567    0.06330087218281108    
  0.04466531094755254    0.033114627487779776    0.02616530536706213    0.0217107741322819    0.018487689516276957    
  0.01590991165574901    0.013814561758571426    0.01220860162749312    0.011098726370381248    0.010467239889604185    
  0.010267418930136146    0.012896533270013761    0.013077503203572417    0.013668417450812067    0.014761565054224043    
  0.016393328224149864    0.018487600667702327    0.020848238946071112    0.023243093162258328    0.025720862480744545    
  0.02873384573881464    0.03311478163762215    0.039805307289682595    0.049037910371312186    0.059477311128415054    
  0.06812286403374862    0.07153444917654278    0.06812284540671763    0.059477370372698644    0.04903781630471584    
  0.039805417377012674    0.033114652473726094    0.028733955883045545    0.025720787525778496    0.023243191053171353    
  0.02084814603951927    0.01848765980752261    0.016393260282006057    0.01476161749923378    0.013668372360981904    
  0.013077523968836493    0.012896533270013761    0.019152779741243357    0.0191310614274906    0.019169858107733456    
  0.01953255828097263    0.020390939907719095    0.02171088143973454    0.023243090485405023    0.02454787932061528    
  0.025336647245014714    0.025720895498317808    0.026165152593626707    0.0272175174048212    0.029085108562949148    
  0.03146368916732201    0.03353558259783412    0.03436075259084748    0.03353561860442423    0.03146364249370567    
  0.029085164291392115    0.027217414562032135    0.02616524358873266    0.02572078840120945    0.025336779471843245    
  0.024547760784341618    0.02324318847936759    0.02171080518540311    0.020391008146029534    0.01953248353279666    
  0.019169897925709754    0.01913105103380143    0.019152779741243357    0.034360683605021224    0.033535612755541316    
  0.03146366662101627    0.02908511885065114    0.02721749736362666    0.026165134042734434    0.025720897556878158    
  0.025336643117068583    0.024547876971415788    0.02324305934586398    0.021710916925820747    0.02039089872208599    
  0.019532608762599615    0.019169797441385906    0.019131127148910264    0.01915274066881128    0.019131101966406567    
  0.019169845154575444    0.019532542022215563    0.02039097161147598    0.02171084303692301    0.023243151032164188    
  0.02454777842274677    0.025336758890658794    0.025720793461009597    0.02616524388069906    0.027217403650270786    
  0.0290851721918282    0.03146362038853187    0.033535649050841554    0.034360683605021224    0.07153444358453283    
  0.0681228712972534    0.05947732068320274    0.04903792046833968    0.0398053021481553    0.03311478837318935    
  0.02873382113842348    0.025720909286624235    0.023243041378424065    0.020848308105066132    0.01848754138551982    
  0.016393387824356193    0.01476150492076963    0.013668474726186038    0.013077440839486058    0.012896591410874745    
  0.0130774505424081    0.013668449557941853    0.014761551675429552    0.016393321278984664    0.018487613999841508    
  0.020848201441491968    0.023243158025790307    0.025720824017451956    0.0287339041376227    0.03311467704315304    
  0.039805402869577275    0.049037839349525617    0.05947737729859615    0.06812285587326158    0.07153444358453283    
  0.1579282899079565    0.1474893289406295    0.12118141973070894    0.09000327012363338    0.06330105758837826    
  0.04466513197440637    0.0331148167578299    0.026165119754404498    0.021710946602911767    0.018487524985558404    
  0.015910076891528475    0.01381443234841461    0.012208713014053239    0.011098615489579668    0.010467329422783079    
  0.010267344388588572    0.010467314541676442    0.01109864323570958    0.012208674823016932    0.013814489871622627    
  0.015910004277143654    0.018487603754426263    0.021710848943780482    0.026165224132131196    0.03311470561784011    
  0.044665235267691956    0.06330093830202196    0.09000340009130005    0.1211813272415838    0.1474893721571148    
  0.1579282899079565    0.32346371853072986    0.3008215716885014    0.24065886079731738    0.16671576046200912    
  0.1044198733845805    0.06330107389545322    0.03980525666449339    0.027217557347890053    0.020390867072363855    
  0.01639340321499769    0.013814426192398673    0.012010302383307456    0.01072738025139549    0.009870233626905513    
  0.009381276228356753    0.009228088839090985    0.009381291830038807    0.009870210237443722    0.010727409078569046    
  0.012010242904240565    0.013814494343122586    0.01639331628851329    0.020390963549812766    0.02721744504925656    
  0.039805374321767395    0.06330091917778514    0.10442002662885168    0.16671565883975908    0.24065895761449657    
  0.30082161929025086    0.32346371853072986    0.4895626437699822    0.47500276898288557    0.40656339383642875    
  0.28408252770167014    0.1667158319509967    0.09000320874309452    0.04903798002761669    0.029085046761810437    
  0.019532629992137868    0.01476147143684918    0.012208723716986414    0.010727364392312052    0.009823086842566255    
  0.009275236784283034    0.008978431305779435    0.008885075101363616    0.008978421403108441    0.009275265085050473    
  0.009823042609518854    0.010727415404980744    0.012208661767959799    0.014761556513387153    0.019532543530629554    
  0.029085162213626187    0.0490378470191079    0.09000337487641043    0.16671561604523547    0.2840826608738854    
  0.406563256648204    0.47500290695394515    0.4895626437699822    0.4015576149717071    0.4508482894671126    
  0.5014054628225988    0.40656352421631975    0.2406588613322729    0.12118150177648548    0.059477244249471845    
  0.0314637628477401    0.019169778970712613    0.01366849485880374    0.011098600986125204    0.009870246726103545    
  0.00927524921789283    0.009006319696511965    0.008887504509169841    0.008857718084165897    0.008887501826914265    
  0.009006311005051613    0.009275273817579179    0.009870192683859944    0.011098666489780997    0.013668429058453878    
  0.019169868899373648    0.0314636489595607    0.05947738068339012    0.12118132556074913    0.24065903445387704    
  0.4065631910955572    0.5014055443251041    0.4508482048988511    0.4015576149717071    0.17687079963794586    
  0.25915884221573166    0.45084833465339813    0.47500279358986963    0.3008217041265342    0.14748921072515628    
  0.06812295581049671    0.03353552381092106    0.01913114910928788    0.013077426335440602    0.010467335260382325    
  0.009381273369217586    0.00897843527017587    0.008887479364633898    0.008892728105514737    0.008909389567124722    
  0.008892706401263922    0.008887509275469396    0.00897840567305916    0.009381308511596539    0.010467279098125025    
  0.013077480371101355    0.019131069876744258    0.03353565088858899    0.06812280918907712    0.14748938607846046    
  0.3008215302585753    0.4750029752213409    0.45084805011533724    0.25915892125805273    0.17687079963794586    
  0.10100193136783558    0.17687084232542863    0.4015575850553129    0.4895626981168988    0.32346369472141895    
  0.15792842541348226    0.0715343484582538    0.03436079550144639    0.019152699187553367    0.01289661160666381    
  0.010267327087852784    0.009228101120039689    0.008885059204702839    0.008857720293221414    0.008909395927990622    
  0.008944810701449105    0.008909405732946624    0.008857704189143601    0.00888509583502197    0.009228050167135425    
  0.010267378245271975    0.012896545124027185    0.01915278128722565    0.03436068865782073    0.07153449780655621    
  0.15792824862523366    0.32346391623120063    0.4895624635115118    0.40155767149824195    0.1768707553555492    
  0.10100193136783558    0.17687089236746606    0.25915872556899977    0.4508483729840685    0.47500265813044756    
  0.30082183383912325    0.1474891692816507    0.0681229973917097    0.033535512110289226    0.019131171225833073    
  0.013077397936052414    0.010467348119325015    0.009381253930650417    0.008978442147300165    0.008887464574223295    
  0.008892738274089538    0.00890937568960753    0.008892721578303786    0.008887495021724236    0.008978424706986093    
  0.00938129577010949    0.01046730103503646    0.013077450425000787    0.019131095371252852    0.03353561137531278    
  0.06812286768160147    0.14748936532106555    0.3008216130054811    0.4750028623397367    0.4508482396047112    
  0.2591587813282141    0.17687089236746606    0.2591588271501644    0.3373684068263459    0.4842185294256782    
  0.4579882301843436    0.28301584274346625    0.1412042582537805    0.06763872925880292    0.03483064936462038    
  0.020706882756944617    0.014498722795974051    0.011626463299125839    0.010256397451491525    0.009574284778619015    
  0.009235055988432475    0.009036193687031168    0.00889273146595242    0.008753936311318045    0.00864799931569244    
  0.008639978285600767    0.008931947264117562    0.009872204152409313    0.012246458905267384    0.017824700766744368    
  0.031095215574119945    0.0628112916853978    0.13527076424796664    0.27661400297747224    0.4528031065453071    
  0.4815717882107126    0.33649714095404715    0.2591588271501644    0.45084819275290305    0.48421860894905094    
  0.49756598050024325    0.38751376461426223    0.2309507978034952    0.12077345036203216    0.06282685777897117    
  0.03553962945665561    0.022921423940959945    0.016809995613080303    0.013580903521019039    0.011705795943123902    
  0.010523705904372497    0.009751254691464274    0.009235041288803442    0.008887496857065335    0.008647998550378245    
  0.00850952007166443    0.008516194892865933    0.008814106975630195    0.009700814112422202    0.011826441434067327    
  0.016644645132143854    0.027651119835560886    0.052970466559375005    0.10897657562057421    0.2183013275842509    
  0.37656719114126136    0.4908401995124408    0.4815718245761221    0.45084819275290305    0.4750030504969464    
  0.4579879805961573    0.3875138338356748    0.2730843129340945    0.16628167419874415    0.09566565370249618    
  0.05668400135710718    0.036681133578350206    0.026287570993208678    0.020368969844634453    0.016568498630423048    
  0.013878868882245633    0.011917521652253711    0.010523666576745663    0.009574309499240763    0.008978411534497185    
  0.008639990927490201    0.008516192691836427    0.008605257236918292    0.008990950395581173    0.00988170096988414    
  0.011758477741788996    0.015667768468191866    0.023941870414182175    0.04170802526221355    0.07873286024114584    
  0.14878914439376406    0.25755388718542366    0.3765673281181214    0.45280307888774035    0.4750030504969464    
  0.3008214826747849    0.28301605993187806    0.23095056045483608    0.1662817168403618    0.11121929220970103    
  0.07400012874170994    0.051827064728839085    0.039081979334802834    0.03114765816898825    0.025387010111456672    
  0.020733777132875806    0.0168859275206684    0.013878847746910882    0.011705835558548037    0.010256358862436367    
  0.009381290687672785    0.008931916059227153    0.008814118997608153    0.008990945375733476    0.009477178215514831    
  0.0103864559774996    0.012014579232058118    0.015007583394474704    0.020703740775019717    0.0318122552554416    
  0.05312496738403518    0.09097828096538103    0.14878919644899075    0.21830119250577515    0.27661409960964406    
  0.3008214826747849    0.14748946055799775    0.14120400652597387    0.12077365000635273    0.0956655828142025    
  0.07400019203801102    0.05882190028379243    0.04919301936022837    0.04271143271998945    0.037197892828836725    
  0.03159511135456604    0.025923387400770697    0.020733766081159625    0.0165685347264822    0.013580857575832385    
  0.011626529914611305    0.010467276252025154    0.0098722225877078    0.009700796503873819    0.009881713877446253    
  0.010386457742982988    0.011243762738968285    0.012579541348565579    0.014709241047491937    0.018290103206382784    
  0.02452840789305733    0.0353652305182007    0.05312499657719574    0.07873278090176539    0.10897664971122305    
  0.13527065433931634    0.14748946055799775    0.06812275493390522    0.06763894176520537    0.06282666638081309    
  0.05668413652854345    0.051826983320701375    0.049193043642713485    0.04796161513235298    0.04645146686575952    
  0.04324713307259497    0.038010246052901125    0.031595084561694395    0.025387046651778544    0.020368917413660988    
  0.01681007545791451    0.014498645517970253    0.013077490996254904    0.012246435017746499    0.011826469842436276    
  0.011758454366274136    0.012014601270752105    0.012579534783806252    0.013474730159824626    0.01476956201422324    
  0.016701437499546706    0.01972863231773579    0.02452843406430918    0.03181222018398965    0.041708096765874135    
  0.052970331272225966    0.06281142953752424    0.06812275493390522    0.03353572372378985    0.03483044192982019    
  0.035539776079813255    0.03668099684534095    0.03908209264159024    0.04271133794182048    0.04645151873902049    
  0.04851473088557847    0.04747443521958128    0.04324710098116558    0.037197949407314176    0.031147599486151315    
  0.026287678561243134    0.022921323893660632    0.0207070074270359    0.019131046037658046    0.017824754773819756    
  0.016644594250651998    0.015667808804755434    0.01500754190381668    0.014709259241968413    0.014769536729615075    
  0.015112905220370718    0.015717385500304857    0.016701469805887752    0.018290073514690735    0.020703789819573364    
  0.02394178051257587    0.027651205479712757    0.03109510925200783    0.03353572372378985    0.019130986795097917    
  0.02070704882103197    0.022921264015827756    0.026287708666072114    0.031147562836932992    0.03719795298544617    