#     DFTpy    
  CRYSTAL 
    
  PRIMVEC    
  6.236413793103448    0.0    0.0    
  0.0    6.236413793103448    0.0    
  0.0    0.0    3.435862068965517    
  PRIMCOORD    
  4    1    
  Si    0.0    0.0    0.0    
  Si    3.118206896551724    3.118206896551724    1.7179310344827585    
  Si    0.0    3.118206896551724    0.8589655172413793    
  Si    3.118206896551724    0.0    2.5768965517241376    
  BEGIN_BLOCK_DATAGRID_3D    
  3d_datagrid_density    
  BEGIN_DATAGRID_3D#0    
  27    27    15    
  0.0    0.0    0.0    
  6.236413793103448    0.0    0.0    
  0.0    6.236413793103448    0.0    
  0.0    0.0    3.435862068965517    
  0.08414839646444267    0.14770292547886024    0.34267752425850406    0.4393553571183017    0.31576844220951017    
  0.17939784258483082    0.10865639900075694    0.08645500336695647    0.097043156168781    0.13859534830504627    
  0.21113985452654443    0.2980260524106364    0.36371413839166117    0.3863215278774399    0.3637141816603644    
  0.29802611759347264    0.21113976146196647    0.13859533506975785    0.09704315087495484    0.0864550194876998    
  0.10865637726359012    0.1793978369375947    0.3157685556940932    0.4393554901211298    0.34267740729045276    
  0.14770294274566417    0.08414839646444267    0.1477028923266744    0.21754133252842586    0.3877784131784573    
  0.42959235603530016    0.29548228879705357    0.16795610315498918    0.10270633372908673    0.08213525461089322    
  0.09192695729626232    0.1303378516864291    0.19743155406077428    0.27885729381687757    0.3426789236142929    
  0.3656200718828417    0.3426789570534532    0.27885728549465777    0.19743153562909596    0.13033784308562665    
  0.09192696981592768    0.08213526738895148    0.10270633619153025    0.16795608637914508    0.29548227492114104    
  0.4295923205876826    0.38777837226890643    0.21754130609148914    0.1477028923266744    0.3426774090746509    
  0.38777835278374373    0.4429773595012648    0.3766308900228054    0.2404193332261656    0.1384435902100154    
  0.08738224595451272    0.0710959705928766    0.07894532635550283    0.10925953192045634    0.16191991853510737    
  0.2271859300816179    0.2814847027132969    0.3023389224018314    0.28148476757263197    0.22718591821629883    
  0.16191995917121724    0.10925948447401194    0.07894532801139245    0.071095959231106    0.08738223706527226    
  0.13844359732132247    0.24041929937290626    0.37663089787671594    0.442977388644866    0.3877782828755675    
  0.3426774090746509    0.4393553268756423    0.42959236761542546    0.3766309041177893    0.27391840353614816    
  0.17097136455363582    0.10286794792317085    0.06859442156621591    0.057402285363533756    0.06288399304619503    
  0.08351737877815726    0.11868189915214486    0.16226618254611055    0.19948114987081253    0.21421800672361507    
  0.1994811346093741    0.16226619207523907    0.11868185796786326    0.08351733321637368    0.0628840020171193    
  0.05740229060738675    0.06859443109570185    0.10286791382207043    0.17097138192904798    0.2739184190366874    
  0.3766309122580569    0.42959241515524316    0.4393553268756423    0.315768454700598    0.2954822969944364    
  0.2404193869367018    0.170971339133323    0.1113307334612715    0.07220642760705172    0.05173281450405496    
  0.044787233857066254    0.04811535798141705    0.06057126117626552    0.08115654717024404    0.10594182816953522    
  0.12689279707721732    0.13522498409863037    0.12689279753166316    0.10594185392585816    0.08115653123022211    
  0.06057124703685973    0.04811535718405529    0.04478722890330837    0.05173281140499582    0.07220642152447558    
  0.11133076592529641    0.17097135115622183    0.2404193796996888    0.29548229004103554    0.315768454700598    
  0.17939782541630184    0.16795613198126522    0.13844358498352666    0.10286788772519687    0.07220643761766182    
  0.051125898083799824    0.039489189580553564    0.03534914604610857    0.03713686231806468    0.04405741332490428    
  0.05512402425888622    0.06790576302723887    0.07842884851142094    0.08257011171279206    0.07842883646537671    
  0.067905791426917    0.05512400927454418    0.04405741032168286    0.03713686427385368    0.03534916520834908    
  0.03948918488275026    0.05112589572764924    0.07220644387026401    0.1028678910139175    0.13844359956533334    
  0.1679560936532214    0.17939782541630184    0.10865633616660636    0.1027063607106743    0.08738225623678546    
  0.06859441578296406    0.05173281640703528    0.0394891888989384    0.032308468875390114    0.029519243442161627    
  0.030323307539429654    0.03410502117937601    0.04002869617112494    0.046658982148192946    0.05196938705689371    
  0.05400527173129471    0.05196937227848823    0.04665901185475062    0.04002869015981649    0.03410501340761628    
  0.030323316971741465    0.029519241157043574    0.032308459394168515    0.039489172394142534    0.05173282488240598    
  0.06859442900983351    0.08738225456343413    0.10270631989959629    0.10865633616660636    0.0864549804055909    
  0.08213527307979007    0.07109596209220716    0.05740226718942497    0.044787249078365114    0.03534914474722907    
  0.02951923818651221    0.02694628380112384    0.02710031457766993    0.029405495318881692    0.03310196630430109    
  0.03719195775973841    0.04040409830542875    0.04160505196991422    0.040404098022537235    0.03719196496291834    
  0.03310196116993345    0.029405481576527937    0.027100317191199326    0.02694629292858243    0.02951923517968432    
  0.03534914976730167    0.04478725355965638    0.05740227290177224    0.07109596962038053    0.08213526308156775    
  0.0864549804055909    0.09704312783787171    0.09192697568653181    0.07894532716993967    0.06288399434958324    
  0.048115375477382136    0.03713685743935318    0.030323316370774473    0.027100309479155534    0.02675369379794863    
  0.028600758483530095    0.031840565563664124    0.03546290320816457    0.03830403419110565    0.039370705069916516    
  0.038304025637754445    0.035462919707219064    0.03184055832747409    0.028600744131216396    0.02675369622409635    
  0.02710031538801523    0.03032331721589919    0.03713684830191353    0.04811537182444095    0.06288399734394005    
  0.07894534442673866    0.09192694508962909    0.09704312783787171    0.1385952991231978    0.13033786919718499    
  0.10925947607415408    0.0835173175039265    0.060571235680838324    0.04405739031351326    0.0341050034839351    
  0.02940546968890782    0.02860074227692443    0.03064673635995965    0.03455373100977491    0.03905253477303612    
  0.04264758018676369    0.04402502645430763    0.042647564494383075    0.039052545152593626    0.03455373643184114    
  0.03064672653832091    0.028600759355940624    0.029405475223265573    0.03410500923372523    0.044057373040132124    
  0.060571253354237055    0.08351732367264195    0.10925951277823634    0.1303378328107959    0.1385952991231978    
  0.21113978544260506    0.19743161318411298    0.16191999204146929    0.11868184055504687    0.0811565337560491    
  0.05512404672507514    0.040028694401730736    0.03310197398196117    0.031840551604970777    0.03455376019037725    
  0.039938321833615585    0.04633975395822254    0.051562597810650763    0.05358957627125923    0.05156262108501739    
  0.046339773937771625    0.03993832371563323    0.034553742521876374    0.03184056137861722    0.03310198292520372    
  0.04002868524489666    0.055124033658368154    0.08115655372158476    0.11868186531895658    0.16191999419298836    
  0.19743158833836838    0.21113978544260506    0.29802606355420913    0.27885734132085244    0.22718603648976718    
  0.16226621937420513    0.10594183230841697    0.06790579655244494    0.04665902432996312    0.03719197239431279    
  0.035462905759809114    0.039052585106505104    0.04633978111356239    0.05518701787346719    0.06251044131815299    
  0.06537455963951685    0.06251046750422758    0.055186996001471304    0.04633977450674455    0.039052575085400644    
  0.03546291933091689    0.037191964067308625    0.04665901069489406    0.06790579528873443    0.10594184547917926    
  0.1622661929234101    0.22718603499798942    0.2788573826572383    0.29802606355420913    0.36371412625376753    
  0.34267897921591794    0.2814846971619248    0.19948107580479793    0.12689280077205106    0.07842883823918971    
  0.05196939156870398    0.04040408336858217    0.03830401495729301    0.04264758162643619    0.051562591780663566    
  0.06251044046191213    0.07166561746040434    0.07527836064348677    0.07166560931867622    0.06251046984093245    
  0.051562607736472726    0.0426475472549658    0.038304025033086574    0.040404096005771786    0.051969364019462824    
  0.07842882207862945    0.12689281492176402    0.19948111526019655    0.2814846961827337    0.3426789474581227    
  0.36371412625376753    0.38632143142579217    0.3656200088679394    0.3023389664335109    0.21421798414508417    
  0.13522493105850655    0.08257009482658524    0.05400527610693193    0.041605029894676834    0.03937067326094747    
  0.04402501822042072    0.05358957175314801    0.06537453523853592    0.07527837387192171    0.07920387846652703    
  0.07527838293538508    0.06537453941491495    0.0535895431739785    0.04402503611644707    0.039370689877118004    
  0.041605035545184695    0.054005267500934616    0.08257010665133782    0.1352249864528097    0.21421805002623712    
  0.3023388831979003    0.36562017723402274    0.38632143142579217    0.363714056242825    0.34267897193853003    
  0.2814847505716838    0.19948113980536594    0.12689277944298055    0.0784288364061393    0.05196937411239411    
  0.04040408092779891    0.03830401285965253    0.042647581543818334    0.051562608199043486    0.06251045777074032    
  0.0716655883802273    0.07527837252660417    0.07166561126831375    0.06251045925112975    0.05156258185448788    
  0.04264756970991607    0.038304034439439374    0.040404076470817084    0.051969372681226866    0.07842883251174622    
  0.126892764024394    0.19948106168587268    0.28148466954640616    0.3426790448546533    0.363714056242825    
  0.29802606591826225    0.2788573170430992    0.2271859959680073    0.1622662670786468    0.10594185254321828    
  0.06790579140310132    0.04665901583967212    0.03719197281847487    0.03546291619709044    0.03905257126796664    
  0.046339770610726874    0.05518698069349412    0.06251049160731627    0.06537450110562448    0.0625105045881214    
  0.0551870102986859    0.04633980077397938    0.03905255749858184    0.03546292210792941    0.03719197084662658    
  0.046659003657988626    0.0679057829060718    0.1059418413895588    0.1622661926879243    0.22718597873427845    
  0.27885739877102167    0.29802606591826225    0.2111397569367086    0.19743156904664683    0.16191993601137508    
  0.1186818669086073    0.08115651785450692    0.05512405264964221    0.04002869317704028    0.03310197558329395    
  0.0318405564074331    0.03455377075726431    0.0399383126210369    0.04633977397097792    0.05156261519529843    
  0.05358956112326232    0.05156258990318585    0.046339746545879995    0.039938321198407276    0.03455374966845962    
  0.03184055408319554    0.033101987331733564    0.04002869455823037    0.05512402409300477    0.0811565542751034    
  0.1186818528268836    0.16191995805209358    0.19743162017020952    0.2111397569367086    0.13859527136465882    
  0.1303378526236941    0.10925950015694116    0.08351731916696184    0.06057123023808356    0.044057401685139455    
  0.034105004694272044    0.02940547503256786    0.028600746268404736    0.03064672835824228    0.03455374137445805    
  0.039052538176965544    0.04264759053861949    0.04402502572148459    0.042647581343786684    0.039052569631279475    
  0.03455374350834404    0.030646723870338323    0.028600744511650514    0.02940547671930217    0.034105015784758545    
  0.04405738188875125    0.060571248193057585    0.08351733915285146    0.1092595499319478    0.13033785141350593    
  0.13859527136465882    0.0970431241457675    0.09192697794597297    0.07894532654346871    0.06288398655043236    
  0.048115357352537844    0.037136864305239485    0.030323322132097725    0.02710031218184089    0.026753697285228247    
  0.028600752354223432    0.03184056242308215    0.035462902964791786    0.03830402539430112    0.03937070143401037    
  0.03830402063628771    0.03546290246215796    0.031840570169592367    0.028600746260574048    0.026753701502302024    
  0.027100325274968293    0.030323313398815336    0.037136845179352285    0.04811535368354739    0.06288397641964111    
  0.07894533345146235    0.09192696614813978    0.0970431241457675    0.08645497100218069    0.08213527718812023    
  0.07109596934588834    0.05740226467740452    0.044787240494069534    0.035349149079464876    0.02951924564593349    
  0.02694629178894481    0.02710031765097291    0.029405480761036665    0.03310196815111668    0.037191947169690924    
  0.04040411304102867    0.04160504065667994    0.04040409760360713    0.03719194749351196    0.03310197057820089    
  0.029405487145077142    0.027100318720729672    0.02694628805861116    0.029519234361482214    0.035349144703622264    
  0.04478725274419694    0.057402267370618286    0.07109596540789538    0.08213524873152901    0.08645497100218069    
  0.10865633856596559    0.10270635721265903    0.08738224497497163    0.06859442854372606    0.05173280839279265    
  0.039489191393678146    0.03230846850651475    0.029519241135559867    0.030323313891109937    0.03410501262123186    
  0.0400286857511009    0.04665899173336409    0.05196941185724032    0.05400527803699891    0.05196939174700497    
  0.0466590084726061    0.040028689366364736    0.03410501071826838    0.030323310781881104    0.02951923913513805    
  0.0323084621971005    0.03948918111270708    0.051732805620427896    0.06859441673176969    0.08738225820035402    
  0.10270632544876421    0.10865633856596559    0.17939782932904494    0.167956101343803    0.13844359345669233    
  0.10286791487568454    0.07220643276595125    0.05112588427044903    0.039489197531826496    0.03534914563368348    
  0.037136854448372725    0.04405740578545605    0.05512400722760859    0.06790576821431554    0.07842885001381894    
  0.08257012927982373    0.07842885179361422    0.06790579130798485    0.05512402457097551    0.04405741104693407    
  0.03713686464714133    0.035349153273421564    0.03948917599897729    0.05112588797857701    0.07220643117167803    
  0.10286789932744365    0.13844361851440196    0.16795612203630755    0.17939782932904494    0.3157684204077072    
  0.29548233838624716    0.2404192931229639    0.17097133765791597    0.11133076623433392    0.07220643000064073    
  0.051732804402484296    0.04478723466094964    0.04811536245971235    0.06057124867048084    0.08115653161061623    
  0.10594181209843552    0.12689283610469607    0.13522497005515072    0.12689281731068902    0.1059418188561904    
  0.08115652052546293    0.0605712418677538    0.048115378040647215    0.044787245404178645    0.051732811933572466    
  0.07220640614193354    0.11133074805816884    0.17097135998594323    0.24041934704538295    0.2954822967158758    
  0.3157684204077072    0.4393553842977238    0.4295923146439457    0.3766309266103136    0.2739183879505159    
  0.17097134242121093    0.10286794237378045    0.06859443883695943    0.057402283237665414    0.06288398314126506    
  0.0835173443796942    0.11868188076352544    0.1622662000013314    0.19948113337929793    0.21421804222950386    
  0.19948112132861692    0.16226617179786632    0.11868190228831829    0.08351735310530971    0.06288400396381001    
  0.057402290436062216    0.06859444468481213    0.10286791059158606    0.17097136083866243    0.2739184572515278    
  0.376630965344939    0.4295923586973359    0.4393553842977238    0.3426774844462373    0.38777831500078924    
  0.4429772868734901    0.37663084328245305    0.24041931140599626    0.1384436300281704    0.08738226295804173    
  0.07109595160458587    0.07894535151146545    0.10925954392199423    0.16191991972268122    0.227185912235911    
  0.28148469416865474    0.30233887204235405    0.28148471573754635    0.22718592811247618    0.16191995281270571    
  0.1092595270331152    0.07894532833871891    0.07109596826892556    0.08738222512785848    0.13844361454792298    
  0.24041932860378343    0.376630846868604    0.4429773005239359    0.3877784648766392    0.3426774844462373    
  0.14770287510566246    0.21754134579080994    0.3877783831827617    0.4295922396734177    0.2954822746618303    
  0.1679560860793797    0.10270635130007065    0.0821352533394463    0.09192692604988549    0.13033785793965233    
  0.19743157991366672    0.2788572733791414    0.3426789123102864    0.36562007194246804    0.3426789801763608    
  0.27885732754672127    0.19743153003329725    0.13033788049243045    0.09192696288664166    0.08213524453691258    
  0.10270632995134474    0.16795607912634813    0.295482241088111    0.42959233751259807    0.3877783419451911    
  0.21754135722279727    0.14770287510566246    0.08414839646444267    0.14770292547886024    0.34267752425850406    
  0.4393553571183017    0.31576844220951017    0.17939784258483082    0.10865639900075694    0.08645500336695647    
  0.097043156168781    0.13859534830504627    0.21113985452654443    0.2980260524106364    0.36371413839166117    
  0.3863215278774399    0.3637141816603644    0.29802611759347264    0.21113976146196647    0.13859533506975785    
  0.09704315087495484    0.0864550194876998    0.10865637726359012    0.1793978369375947    0.3157685556940932    
  0.4393554901211298    0.34267740729045276    0.14770294274566417    0.08414839646444267    0.15163695226435114    
  0.22197422061118746    0.3918968143935492    0.4315782852977529    0.29473843025033586    0.16430947935947024    
  0.09568720056158832    0.06983340198589787    0.0695314917973522    0.08857015430515372    0.12462415143707342    
  0.17069448331408135    0.2105909545430603    0.2265357875797008    0.21059095936581745    0.1706945079737587    
  0.12462410739097013    0.08857015465503501    0.06953147271526311    0.06983340685511565    0.09568720023482741    
  0.16430952167123253    0.2947385232079032    0.43157835304855535    0.39189669352124024    0.22197425746199054    
  0.15163695226435114    0.22138759631310803    0.2886777321501937    0.421828455743022    0.41601562053273666    
  0.2751595506509238    0.15393533481859414    0.090719079616681    0.06676031780909726    0.06647313001358213    
  0.0841332310387839    0.11746262045868115    0.15996665757865347    0.19683455158782054    0.2116067694703165    
  0.19683458369229243    0.15996670732899654    0.11746261212123896    0.08413323614127101    0.06647313760211969    
  0.06676033092319059    0.09071907765665901    0.15393532681312594    0.27515958146005853    0.4160155376980251    
  0.4218284762890108    0.2886777402851509    0.22138759631310803    0.3893311649146967    0.4200918797082811    
  0.4405268486407752    0.355536791261675    0.22335690247493284    0.12740118058453487    0.07786446979801952    
  0.058770961948367735    0.05857306251080551    0.07270759194903859    0.09906673221592514    0.13240122834816898    
  0.16130532692505445    0.17292688215062707    0.16130533677638345    0.13240124837575276    0.09906677186421924    
  0.07270757403081728    0.058573072623186735    0.058770944460636874    0.0778644563362166    0.12740119385365137    
  0.22335687745571692    0.35553676403831974    0.44052678142804974    0.4200918455832038    0.3893311649146967    
  0.4284134774405311    0.4138131220789961    0.35482893154093303    0.2552371316315118    0.15937808863926775    
  0.0955117289124509    0.06201596249325828    0.04872003869822612    0.04860789831544633    0.05850861417083157    
  0.07660433165046276    0.09903436590440598    0.11825257140625021    0.12595564997859957    0.11825259752607412    
  0.09903442081992554    0.07660433861180799    0.0585085873390588    0.048607906795676455    0.048720044273983805    
  0.06201596969181732    0.09551170303361099    0.15937811312035322    0.25523716166256183    0.3548289976367415    
  0.4138131008064105    0.4284134774405311    0.2958876320261597    0.2766215850039508    0.2249163866375548    
  0.16051349042622334    0.10514058892172853    0.06808068064404724    0.047779281459348136    0.03939944946630491    
  0.03928549352519994    0.04550721447346547    0.05664265763733698    0.07000105810463914    0.08117025029969588    
  0.08560144470584127    0.08117024330459333    0.07000109487010314    0.05664265732060211    0.04550720754052792    
  0.039285491001712615    0.039399454820278304    0.04777927736914486    0.06808066646812462    0.10514060948028903    
  0.16051350470762604    0.22491636888939515    0.2766215576591829    0.2958876320261597    0.1725001439111368    
  0.161608658612518    0.13353668041879957    0.09962993715080916    0.07016955807487572    0.04952680258719791    
  0.037596241452742256    0.032446716433672626    0.03227638197564524    0.0359477119246242    0.04240591905832015    
  0.049908196319917164    0.05600270828417655    0.05836879263342606    0.05600271994072957    0.04990821162914384    
  0.04240590991551257    0.03594769462151548    0.032276382425126406    0.032446732010324754    0.03759623780155387    
  0.04952679895473048    0.07016956277990458    0.09962994094036717    0.1335366853759124    0.16160864556746626    
  0.1725001439111368    0.11292773896006776    0.10664790133876968    0.09051036166581021    0.07071551964052865    
  0.05293338160831507    0.03993494188098262    0.03202537673486775    0.028386893166863193    0.028083683985871345    
  0.03033393608815718    0.0342729959282597    0.038759426088376486    0.04230951296396879    0.043638551997872    
  0.04230949827500364    0.03875945242186808    0.03427298273381463    0.03033393660877485    0.02808369778558776    
  0.028386895037223255    0.03202536785364721    0.03993493016949083    0.05293340195470669    0.07071553464791798    
  0.09051036634367127    0.10664784948231641    0.11292773896006776    0.10171032524362952    0.09624562545345776    
  0.08231208026953382    0.06514859374226202    0.04951228976255002    0.037921626491603876    0.030695626907278173    
  0.027191062044786198    0.02663671921029828    0.028293854213012337    0.031331592126101204    0.03478459801545444    
  0.03749405658295246    0.0384939668331741    0.0374940402364627    0.03478460681483254    0.03133158959714459    
  0.028293841406470874    0.026636724659517795    0.02719107290764864    0.03069562219877985    0.03792161705190642    
  0.04951229433290032    0.06514859988115082    0.08231208470342433    0.09624559881103877    0.10171032524362952    
  0.13054165245252763    0.12284624761319987    0.10332428045546778    0.07954072571919037    0.05820494851176517    
  0.042683583711438114    0.03321265307857335    0.02863025527893421    0.027661339675452323    0.029318180196689272    
  0.032656124699487005    0.036517162421346706    0.039598609447759864    0.04077660242711877    0.039598596680545405    
  0.03651717759689564    0.032656121039416515    0.02931816616181974    0.02766134664696326    0.028630256916599376    
  0.03321265255226217    0.04268356709107766    0.05820494545657699    0.0795407450763487    0.10332430107849538    
  0.12284621598376222    0.13054165245252763    0.20591524787852616    0.192465235626204    0.15788958426196756    
  0.11599445286829209    0.07957358620932434    0.05417931574874637    0.039332060248939406    0.03234448500279376    
  0.030745005133401244    0.03290202404600851    0.03755279998053147    0.04310441593269259    0.047645640117717145    
  0.04942753463488711    0.04764564629697886    0.043104430591229155    0.037552812603123424    0.03290201025403749    
  0.030745022181761526    0.03234448220376013    0.039332060713052806    0.05417930416229462    0.07957359434571856    
  0.11599449362544621    0.15788963641634912    0.19246520465037564    0.20591524787852616    0.32289377353239757    
  0.3027508271116273    0.247177332632378    0.17586747785800105    0.11362149554916105    0.07171151505411655    
  0.04831053467398212    0.03766792359691808    0.035224315432786917    0.03828539063871131    0.04510286373834158    
  0.053504835567603125    0.06051907376891173    0.06329220818681612    0.060519109726082605    0.05350485477448798    
  0.04510287805904825    0.038285391967314314    0.03522431472534247    0.037667932486075834    0.04831052369065614    
  0.07171149295713693    0.11362151574237156    0.17586751321035482    0.24717732416235885    0.3027507907147949    
  0.32289377353239757    0.4232459704476745    0.40689991427899225    0.3460753749052536    0.24800639485094356    
  0.1546614547836108    0.09201616500065257    0.058283391591940056    0.04343294002428745    0.040056150206605384    
  0.04421147724060436    0.053621271681509125    0.06544809316483317    0.07544704713151762    0.079417858981427    
  0.07544706673972301    0.06544809367409281    0.05362124180961556    0.04421147532209384    0.04005613912637357    
  0.04343293730306347    0.058283380775051824    0.0920161410254942    0.15466150294836226    0.24800639026355337    
  0.3460753402530888    0.40689999125472703    0.4232459704476745    0.44524314215377686    0.4468007944647831    
  0.41045167405842325    0.3060202101303029    0.18929006131827486    0.10888154896473252    0.06629070877615248    
  0.04793956833157179    0.04381722508508897    0.048906511953885845    0.06049104977119079    0.07518908565026722    
  0.08774371823170768    0.09276321781904942    0.08774371511700244    0.07518911243883587    0.060491042576687734    
  0.048906491662879616    0.04381724071292205    0.047939573481199704    0.06629069292493    0.10888150754449032    
  0.1892900630522851    0.30602022039979054    0.4104516535728795    0.44680089632395137    0.44524314215377686    
  0.4355005893583385    0.4474420582810486    0.42893048282192253    0.32762983000361173    0.202964889259187    
  0.11553579193021869    0.069371236065459    0.049628229779883896    0.045227015391145105    0.050692627914985786    
  0.06313137721935648    0.07896999069591447    0.09256608230684875    0.09803540645825368    0.09256610857789165    
  0.07897001358016689    0.06313134369769323    0.05069263937207062    0.04522702681150997    0.049628254057284854    
  0.06937121921241765    0.11553580680556572    0.2029649113932713    0.32762991597457997    0.42893042596836223    
  0.44744217944241566    0.4355005893583385    0.4452431505049667    0.4468009589315455    0.410451644151492    
  0.30602022747930596    0.18929006520695965    0.1088815409314128    0.06629070394656783    0.047939554008746256    
  0.04381721029565467    0.04890651265738882    0.06049103259196142    0.0751891109754671    0.08774371069600616    
  0.09276319892082634    0.08774374408370189    0.07518909899380613    0.06049105607669096    0.04890650797111462    
  0.043817240818251425    0.04793956746426187    0.06629068248094758    0.10888154137793049    0.18929007169509368    
  0.30602022083830976    0.4104516038341438    0.44680091514892445    0.4452431505049667    0.42324595850705443    
  0.4068998424745568    0.3460753510708428    0.24800651242997546    0.15466150141879986    0.0920161532360587    
  0.058283383177081864    0.04343294835506068    0.04005612933637764    0.04421148761766501    0.053621261392683285    
  0.06544806425149448    0.0754470680855268    0.07941780513360987    0.07544708028436219    0.06544810548338938    
  0.05362127179557629    0.04421147645529899    0.04005615134442366    0.043432940643827515    0.05828337724586959    
  0.09201615015870568    0.1546615188339026    0.24800641937084847    0.346075337378016    0.406899956537397    
  0.42324595850705443    0.32289375663380937    0.3027507832720008    0.2471772469128932    0.17586748508169825    
  0.1136214933347753    0.07171151812510305    0.04831053559145458    0.03766793255743178    0.03522430927722181    
  0.03828539842465727    0.045102878892675106    0.05350485685130326    0.06051906618257729    0.06329222996624387    
  0.060519040045823036    0.05350484111132934    0.04510287604326792    0.03828537741454915    0.03522431305477981    
  0.037667929493763436    0.048310535104498877    0.07171150452162492    0.11362151314796046    0.17586753150721554    
  0.24717730198194282    0.302750835615468    0.32289375663380937    0.2059152217845636    0.19246524498440729    
  0.15788959587055423    0.11599444334417287    0.07957357496183654    0.054179327237767985    0.03933205453603977    
  0.03234448440560926    0.0307450024247501    0.032902020256143534    0.037552803715788355    0.04310443037272098    
  0.04764564246977442    0.049427526276495874    0.047645632892594846    0.043104436824285046    0.03755281155473392    
  0.032902013747410905    0.030745011187410957    0.032344488383184405    0.03933206133225784    0.05417931556629527    
  0.07957360313469718    0.11599446814152058    0.1578896475266939    0.19246524611195803    0.2059152217845636    
  0.13054166673027337    0.12284623038868508    0.10332429613608034    0.07954072194511103    0.058204925246057394    
  0.04268359335344847    0.03321265828548456    0.028630251565534927    0.027661338944380928    0.029318180352050863    
  0.03265612332310384    0.036517160497851524    0.03959859593057546    0.040776604527289796    0.03959859193155575    
  0.036517166432333284    0.03265612650507691    0.029318173140547295    0.027661345924957205    0.028630263883148814    
  0.033212651387065605    0.04268358817171686    0.05820493038315676    0.07954072539828021    0.10332429300919056    
  0.12284624272365462    0.13054166673027337    0.10171029802392396    0.09624563443097503    0.08231208067963079    