#     DFTpy    
  CRYSTAL 
    
  PRIMVEC    
  4.592629138624973    -2.5232800000000003e-10    4.782695172413793e-10    
  -2.5232800000000003e-10    4.592629138358108    2.3045337931034486e-10    
  8.739772413793104e-10    4.2119448275862074e-10    8.413785590014731    
  PRIMCOORD    
  4    1    
  Si    2.296314569224988    2.2963145704427883    2.5855079286012628    
  Si    8.515326906547072e-10    -7.880821553545563e-10    1.6213848635777952    
  Si    1.3060509984345862e-10    5.951902253605871e-10    6.792400721664571    
  Si    2.2963145699134744    2.296314568698272    5.828277666894554    
  BEGIN_BLOCK_DATAGRID_3D    
  3d_datagrid_density    
  BEGIN_DATAGRID_3D#0    
  21    21    37    
  0.0    0.0    0.0    
  4.592629138624973    -2.5232800000000003e-10    4.782695172413793e-10    
  -2.5232800000000003e-10    4.592629138358108    2.3045337931034486e-10    
  8.739772413793104e-10    4.2119448275862074e-10    8.413785590014731    
  0.08834469107121833    0.0832416242841981    0.0701689333403438    0.05402335528559004    0.0392717932500389    
  0.02809554846479128    0.020599379078861155    0.016014793175414124    0.013444693163972187    0.012180389753369027    
  0.011805706715352688    0.012180385291708848    0.013444696478785935    0.016014779121465466    0.020599372875408424    
  0.028095543416612898    0.03927180903495677    0.054023360056747564    0.07016892259137388    0.08324161430245546    
  0.08834469107121833    0.0832415953242129    0.07848398321594324    0.06631469231316613    0.05127314022865342    
  0.037491728257989916    0.027014287839369926    0.019962581451138266    0.015635752550649633    0.013204494407726584    
  0.012006886749058228    0.011651121779760363    0.012006879353839265    0.013204495901616016    0.015635752135947846    
  0.019962582804889998    0.027014289106617132    0.03749173089123286    0.051273104824784276    0.0663146773164269    
  0.07848396293304742    0.0832415953242129    0.07016893427542144    0.06631466270888295    0.056450256772715736    
  0.0442044553706933    0.03287984752950441    0.02418121249116523    0.01827033032358544    0.014613156776500102    
  0.012552959405071217    0.011542490428073865    0.011241692327148119    0.011542497414951511    0.012552970876907562    
  0.01461314564201651    0.018270318663649573    0.024181205600833446    0.03287986651614846    0.04420444057067692    
  0.0564502567163724    0.06631468549517645    0.07016893427542144    0.054023350308980526    0.051273137372018544    
  0.04420446462366421    0.03534594540069348    0.027031921202460736    0.02053821428539029    0.016061476481352657    
  0.013269520983640684    0.011704231761000486    0.01094242032102552    0.010716069674463589    0.010942420429470166    
  0.011704225783078266    0.013269507953308026    0.01606147203828492    0.0205382200704581    0.027031929168887702    
  0.03534594058603914    0.04420447144367922    0.05127313931898051    0.054023350308980526    0.039271790517580174    
  0.037491733118513296    0.032879851728448435    0.027031902929586234    0.021449474835686693    0.017006769235959156    
  0.013909976487149233    0.011982018584271455    0.010917867936721146    0.0104124603723766    0.010263548401645855    
  0.01041246319327291    0.010917872944050961    0.011982012189567142    0.013909970094679574    0.017006768681347494    
  0.02144946669918922    0.02703192975920234    0.032879860086109484    0.03749174216090755    0.039271790517580174    
  0.028095540722919973    0.02701428166787038    0.02418120193157376    0.020538205991018833    0.017006753173612187    
  0.014164186020556694    0.01219161623303783    0.01099629318848999    0.010373810222322602    0.010107838065413955    
  0.010037499297385025    0.010107827560297676    0.010373809711346098    0.010996293447108925    0.012191615705614377    
  0.014164187354178652    0.017006754886649034    0.020538204484350252    0.024181204254463136    0.02701428683055692    
  0.028095540722919973    0.020599366484424078    0.019962586727342715    0.018270331334927937    0.016061470941353576    
  0.013909972135001843    0.012191621343667778    0.011044064214223555    0.01041083990089027    0.010144853489863406    
  0.010082475318465185    0.010082392258422782    0.010082474650234523    0.010144854403452936    0.010410840657334339    
  0.011044065090583272    0.012191624678072221    0.013909971906487064    0.016061471157070982    0.01827032215713071    
  0.019962598983328486    0.020599366484424078    0.01601478704208841    0.015635749902024768    0.014613155695993009    
  0.013269513260278516    0.011982016983342914    0.010996301655901116    0.010410844960322383    0.010189478467158392    
  0.010203515702997108    0.010300337645514584    0.010352918035041767    0.010300349148158555    0.010203509945884433    
  0.010189475114286976    0.01041084206910113    0.010996301454184138    0.011982018148595237    0.013269510026861869    
  0.014613141100012066    0.015635758701001822    0.01601478704208841    0.013444695252577198    0.013204494195148448    
  0.012552970315462287    0.011704229574975368    0.010917867836267808    0.010373815275748797    0.01014486360994642    
  0.010203524716360005    0.010422255124995419    0.010641486178573828    0.010729118145233363    0.010641497854786644    
  0.010422255797054372    0.010203519453631795    0.010144857356310462    0.010373816630359613    0.01091787230697893    
  0.011704225758671343    0.012552962335619693    0.013204504329005504    0.013444695252577198    0.01218038774390711    
  0.012006882608872024    0.011542496481841956    0.0109424180462103    0.010412456977200231    0.010107833082848707    
  0.010082476998829753    0.010300340385553457    0.010641490899282343    0.010933690190224518    0.011047833778210914    
  0.010933684948436231    0.010641492281761809    0.010300335168654218    0.010082471213685884    0.010107837081197179    
  0.010412462421541632    0.01094242543662165    0.011542491262261418    0.012006890336399496    0.01218038774390711    
  0.011805690807965239    0.011651124700090174    0.011241681920018058    0.01071606953723688    0.010263543325383921    
  0.010037504977488228    0.010082385708537022    0.010352921846638177    0.010729127847944634    0.011047839947394613    
  0.011168342243798769    0.011047836914017952    0.010729126648594168    0.010352911153813715    0.010082384287354963    
  0.010037497963165118    0.010263546494994853    0.010716073389353663    0.011241684944214025    0.011651121232820642    
  0.011805690807965239    0.01218038334265009    0.012006887081073543    0.011542489780200125    0.010942420198904396    
  0.0104124599781867    0.010107829250589275    0.010082471829490517    0.010300352837545684    0.010641497076314083    
  0.010933685851140832    0.011047836154560207    0.010933681877093131    0.010641494342151175    0.01030034054416652    
  0.010082468366681611    0.010107837753002903    0.010412457317557662    0.010942420897501564    0.011542490882901681    
  0.012006892638922248    0.01218038334265009    0.013444688732652628    0.013204498982759662    0.012552966566596581    
  0.011704229957366915    0.010917869772825864    0.010373816562239102    0.010144864367449935    0.010203521023607241    
  0.010422257455556062    0.010641484820378395    0.010729129887863361    0.01064148934003112    0.010422250900352883    
  0.010203505797583742    0.010144854966470877    0.010373814161511858    0.010917876876909583    0.011704230500109165    
  0.012552964007654684    0.01320450138656073    0.013444688732652628    0.016014790455110645    0.015635751411835392    
  0.014613153916868153    0.01326951315529248    0.011982015621781115    0.01099630161794386    0.01041084716707877    
  0.010189489513681708    0.010203498010861543    0.010300334462721656    0.010352911593474798    0.010300356761193228    
  0.010203520783098514    0.010189482419440272    0.01041083789773737    0.010996300643491056    0.01198202305413779    
  0.013269512411231513    0.014613144766789935    0.015635764151715973    0.016014790455110645    0.020599356651869818    
  0.01996258238228376    0.018270321421826132    0.01606147565173331    0.01390997756053752    0.01219162236610322    
  0.01104406007899864    0.010410844475789837    0.010144859299052919    0.010082480207753928    0.01008239458196443    
  0.010082475399426844    0.010144859110474198    0.010410835712111648    0.011044058960553462    0.012191628667206826    
  0.013909980167895637    0.016061474306998908    0.018270325885817014    0.01996258743045761    0.020599356651869818    
  0.028095537733401163    0.0270142845508849    0.02418120108787151    0.020538209805627275    0.017006752268256105    
  0.01416418677444293    0.0121916127518801    0.010996296950052512    0.010373809770985107    0.010107832944891874    
  0.010037503627999371    0.010107835932109007    0.010373818611382167    0.010996290600533375    0.012191615315381401    
  0.014164180542080263    0.017006763757498836    0.020538204271404067    0.02418120336307362    0.02701428460428905    
  0.028095537733401163    0.03927181051641569    0.0374917351895806    0.03287985827271651    0.027031926178905524    
  0.021449466378060965    0.01700676178923351    0.0139099662488005    0.011982013736594991    0.01091786583387294    
  0.010412460098452083    0.010263540560161731    0.010412456678205322    0.010917874488483727    0.011982010422391944    
  0.01390996989795236    0.017006753733803535    0.02144946927156523    0.027031926812350178    0.032879862621385    
  0.03749174824908786    0.03927181051641569    0.05402336485396867    0.05127312553993049    0.04420445192641538    
  0.03534596139559157    0.027031921724262758    0.020538224934637694    0.016061467129781324    0.013269513047484416    
  0.011704227275597367    0.010942419484171916    0.010716069471897904    0.010942422262229752    0.011704234545133595    
  0.013269514643664493    0.016061473992677735    0.02053821701970866    0.027031926290341943    0.035345943193205366    
  0.04420445188479242    0.051273136883362616    0.05402336485396867    0.07016892078236969    0.06631467311096371    
  0.056450265475452635    0.044204458155165    0.03287986236781041    0.02418121305362537    0.018270326536359675    
  0.014613153268160508    0.012552968158498946    0.011542496595279582    0.011241681106802846    0.011542501168090996    
  0.012552967268004258    0.014613145836829988    0.01827031761063397    0.024181209561882702    0.03287986696443343    
  0.04420445638156304    0.05645023709386313    0.06631469980107588    0.07016892078236969    0.08324158199434649    
  0.07848395263853862    0.0663146642440265    0.05127311826434887    0.03749172216375723    0.027014296710614803    
  0.019962585066481648    0.01563574759513936    0.01320449467515284    0.012006889686965928    0.011651118265091834    
  0.012006883809883956    0.01320449074037914    0.015635748965657566    0.019962579909030942    0.027014290536426556    
  0.03749172345469863    0.05127313002272798    0.0663146746902715    0.07848397584898549    0.08324158199434649    
  0.08834469107121833    0.0832416242841981    0.0701689333403438    0.05402335528559004    0.0392717932500389    
  0.02809554846479128    0.020599379078861155    0.016014793175414124    0.013444693163972187    0.012180389753369027    
  0.011805706715352688    0.012180385291708848    0.013444696478785935    0.016014779121465466    0.020599372875408424    
  0.028095543416612898    0.03927180903495677    0.054023360056747564    0.07016892259137388    0.08324161430245546    
  0.08834469107121833    0.11133678513154822    0.10449955034860998    0.0870656258373503    0.06573180438377768    
  0.04647428770949017    0.03212090623839128    0.02272118575258746    0.017104241641869283    0.013992255075244752    
  0.012467425974912578    0.012014860793539351    0.012467415239203194    0.013992257116127527    0.01710422744715923    
  0.022721189756792097    0.03212090447953439    0.04647430511419295    0.06573180802469301    0.08706564526620535    
  0.10449952634958205    0.11133678513154822    0.10449949603318046    0.09816343448151996    0.08199648161499395    
  0.06217551984902552    0.044223789525040774    0.030792063454735008    0.021961932412381212    0.016666827865295348    
  0.013724636033441926    0.012281578014565798    0.011853235431398306    0.012281574182556121    0.013724638218993862    
  0.016666826357641565    0.02196193647281421    0.030792061501005847    0.04422379106438857    0.062175503765332873    
  0.08199647276546129    0.09816345157472826    0.10449949603318046    0.08706566305013518    0.08199645482705085    
  0.06902102783015449    0.05301496022223874    0.038383191166818785    0.02731595638786441    0.019959616940058458    
  0.015505555621592435    0.013018763127269802    0.011799067534745697    0.011438841586155393    0.011799071932640681    
  0.013018771370243617    0.015505543093285355    0.01995960566505217    0.02731595005388568    0.03838319629479127    
  0.053014965956077624    0.06902104004851906    0.0819964914590244    0.08706566305013518    0.06573181339929084    
  0.06217551390796102    0.05301499634741225    0.04159109875280876    0.031002218418160313    0.02286767547862665    
  0.017374107246527614    0.014007112536166664    0.012120797618459536    0.011201867712740735    0.010931531557808832    
  0.011201869852534204    0.012120793000600438    0.014007096121816935    0.01737410269156689    0.02286766463782315    
  0.031002227412342796    0.041591083835057184    0.053014980047307605    0.06217555973631019    0.06573181339929084    
  0.046474293047119405    0.04422378029407799    0.038383186783186536    0.031002198692619033    0.02404711551789585    
  0.01860898732198007    0.014880005252245958    0.01257887042753245    0.011303446067578606    0.010695621845240451    
  0.010520672789062576    0.010695623988202806    0.011303444933730632    0.012578865626188502    0.014880003221439932    
  0.018608981188541512    0.024047114799391242    0.03100221059040754    0.038383187701195504    0.04422380902555248    
  0.046474293047119405    0.03212089525677009    0.030792056125613726    0.02731595072549849    0.022867653057951375    
  0.01860896939054704    0.015231144700327012    0.012906240214286718    0.011497332569301858    0.010759796340229328    
  0.010442149449767625    0.01035835955530921    0.01044214455516164    0.010759788677343585    0.011497337280765922    
  0.012906240830506349    0.015231138388944368    0.018608978352000028    0.022867657660472534    0.02731594373623718    
  0.030792068455081    0.03212089525677009    0.02272118646721598    0.02196193732402038    0.01995962156532784    
  0.017374099579057854    0.014880004766159926    0.012906248611918298    0.011591638965029257    0.01086942260785356    
  0.010572290118916186    0.010503074746578309    0.010500587619305246    0.01050306468225724    0.01057229092112269    
  0.010869406376033239    0.011591646174773387    0.012906250091598787    0.014880000886448988    0.017374096931147755    
  0.019959605493740817    0.021961948269126626    0.02272118646721598    0.01710424142269299    0.016666830090178684    
  0.015505553793108218    0.014007105169649533    0.012578874230974993    0.011497341567129669    0.010869415231668615    
  0.010651688407293828    0.010698869078889764    0.010831325415843286    0.010894444130107378    0.010831335150776276    
  0.010698873680211345    0.01065169208261428    0.010869416214753368    0.011497341125334496    0.012578873318218988    
  0.014007097974355788    0.015505538941322646    0.016666831868758357    0.01710424142269299    0.013992255637476976    
  0.01372463908646298    0.013018770371495876    0.012120794336588966    0.011303443334839059    0.010759794617156442    
  0.010572289278924361    0.010698880169933665    0.010998222730156658    0.011282585299141924    0.011399474509054569    
  0.01128259386241585    0.010998222688477563    0.010698878244709432    0.01057228633149504    0.010759800847656759    
  0.011303443192801688    0.01212078879542179    0.013018763490217829    0.013724648248106642    0.013992255637476976    
  0.012467418591337128    0.01228157464177325    0.011799067281044476    0.011201866576525806    0.010695617242169029    
  0.010442147571057213    0.010503058156107527    0.01083133043220225    0.011282594113716593    0.011665986521694328    
  0.01181343183057659    0.011665984815376968    0.01128258666004184    0.010831325447978754    0.010503069263228916    
  0.010442159838127662    0.010695622726467957    0.011201870418423998    0.011799063175624229    0.012281584155370793    
  0.012467418591337128    0.012014850020793172    0.011853238437670022    0.011438832136343878    0.010931531772804605    
  0.010520671441583801    0.010358360750141451    0.010500582476119777    0.01089444462178238    0.011399468231075092    
  0.011813436773191474    0.01197392201409223    0.011813424498001632    0.011399464746282577    0.010894442342122822    
  0.010500574012314008    0.010358362713327194    0.010520673222805131    0.01093153548597192    0.01143883988799539    
  0.011853234981441628    0.012014850020793172    0.012467412583148263    0.012281581535942762    0.011799067263638533    
  0.011201868799643232    0.010695627330248423    0.010442147164333752    0.010503072712298743    0.010831336776208789    
  0.011282591743388066    0.011666000391533515    0.011813437844542082    0.011665981265702962    0.011282598108386417    
  0.010831327402155002    0.010503061239577392    0.010442149780239038    0.010695622753004425    0.0112018676423131    
  0.011799065537394569    0.012281587033169688    0.012467412583148263    0.013992253116024164    0.013724643171281957    
  0.013018770273895383    0.012120795742112356    0.01130344316445566    0.010759798482074995    0.010572289985752856    
  0.010698877831293271    0.01099821677060934    0.011282587154806572    0.011399472160864406    0.011282594768304737    
  0.010998223597271933    0.010698871938343832    0.010572292963046867    0.010759799352171695    0.01130345244262847    
  0.012120794155187253    0.013018765947935905    0.013724643327815507    0.013992253116024164    0.017104236554656475    
  0.016666827459416313    0.015505546650481003    0.014007098117584231    0.012578866096395178    0.011497339481945522    
  0.010869420433840786    0.010651691467818575    0.010698868681516099    0.010831327555153465    0.01089445221411958    
  0.010831338465082883    0.010698879894329917    0.010651693908438745    0.01086941701249658    0.011497346119163695    
  0.01257887494257301    0.014007097500904371    0.015505544689032742    0.016666839342142126    0.017104236554656475    
  0.022721171564165303    0.021961926077859198    0.019959608918745934    0.01737410101257889    0.014880003474025278    
  0.012906245212453574    0.01159164434941213    0.010869416664728196    0.010572296829450203    0.010503077152826078    
  0.01050057957042735    0.010503066123166897    0.010572291106850954    0.010869412265182288    0.01159163497966813    
  0.012906251926455633    0.01488000703560099    0.017374104810047992    0.01995961440241886    0.021961936530133473    
  0.022721171564165303    0.032120891620083775    0.03079206228245389    0.02731593942744594    0.02286766423674715    
  0.01860897156787579    0.015231148116082236    0.012906240352404176    0.011497334838850907    0.010759791474563444    
  0.010442142929652279    0.01035836226594785    0.010442145986745286    0.010759796125047703    0.011497336851173256    
  0.012906241723829483    0.015231143101039612    0.018608980147968725    0.0228676560853804    0.027315943041979065    
  0.0307920712740281    0.032120891620083775    0.04647430467633014    0.044223794106063155    0.03838319993902687    
  0.03100221501309306    0.024047124660502586    0.01860897477900874    0.014879997276050473    0.01257886506939196    
  0.011303445221540313    0.01069562328155298    0.01052066720168233    0.01069561773356804    0.011303449459541226    
  0.012578860731654215    0.014880000328786723    0.01860896856478555    0.024047128444179007    0.031002217167313065    
  0.038383195481965796    0.044223803778775016    0.04647430467633014    0.06573181924534785    0.062175528231894    
  0.05301496425001361    0.04159110969166645    0.031002208608345176    0.0228676733785407    0.017374098740260007    
  0.014007102532931526    0.012120793107517958    0.011201868622110213    0.010931531160914885    0.011201867457981008    
  0.012120800803394269    0.014007104744743528    0.01737409664151459    0.02286765916194708    0.03100222309671866    
  0.04159109728691575    0.05301496816498388    0.06217555700874402    0.06573181924534785    0.08706565430463417    
  0.08199645672650067    0.06902102503449005    0.05301496440969277    0.03838319085698621    0.027315959514062464    
  0.01995961784596204    0.015505553285133507    0.013018774061711787    0.01179907237004255    0.011438831710619135    
  0.011799072741328706    0.013018771706077539    0.015505543069110544    0.019959605536680317    0.02731594697255096    
  0.03838319609995138    0.0530149531458129    0.06902103802225935    0.08199648896355151    0.08706565430463417    
  0.10449952924339145    0.09816344688855726    0.08199646201324948    0.06217551130710708    0.04422378360077645    
  0.030792078236413292    0.021961930391774645    0.01666682324526849    0.013724638510735852    0.012281587038887834    
  0.011853233946758026    0.01228157931494289    0.013724632429545093    0.016666823862178142    0.021961933285812182    
  0.030792074177234223    0.04422377655482174    0.06217552827911476    0.08199645952525603    0.09816346571265502    
  0.10449952924339145    0.11133678513154822    0.10449955034860998    0.0870656258373503    0.06573180438377768    
  0.04647428770949017    0.03212090623839128    0.02272118575258746    0.017104241641869283    0.013992255075244752    
  0.012467425974912578    0.012014860793539351    0.012467415239203194    0.013992257116127527    0.01710422744715923    
  0.022721189756792097    0.03212090447953439    0.04647430511419295    0.06573180802469301    0.08706564526620535    
  0.10449952634958205    0.11133678513154822    0.19460829974561683    0.18154003632017124    0.14800090360811397    
  0.10720294524664434    0.0712417541112175    0.0454896660762961    0.029490638490183938    0.020418464317376088    
  0.015590735558199703    0.013285273124541117    0.012608097027513851    0.013285262241314065    0.015590738990596015    
  0.020418449832434224    0.029490640395726173    0.04548966065040805    0.0712417902673374    0.1072029294083937    
  0.14800092803944456    0.1815400552440009    0.19460829974561683    0.18154001256178548    0.16943660460943843    
  0.13838301127492283    0.10060972518053968    0.06726382379950169    0.04329344826070259    0.028331171306457247    
  0.019812277372460364    0.015263420158096987    0.013085161987675016    0.012446441092607055    0.013085155060788126    
  0.015263421561454032    0.01981227608583318    0.02833117895837932    0.04329345482605051    0.0672638288529193    
  0.10060973214292761    0.13838300703856407    0.169436576194466    0.18154001256178548    0.1480009114960396    
  0.138382982257778    0.1137214304961404    0.08367508179892877    0.05699295409596986    0.037596456086120576    
  0.025320392571085457    0.01824332012852395    0.014422840365756376    0.012582840708573835    0.012043730118176593    
  0.012582849321519048    0.014422849748791626    0.018243308757171714    0.02532038557239376    0.03759643985705773    
  0.05699297889145111    0.08367509189849116    0.1137214032541968    0.13838305623610514    0.1480009114960396    
  0.10720295606495488    0.10060972199860259    0.08367511853215379    0.06290449584085832    0.044234529885494096    
  0.030425072880222264    0.021504690809374172    0.016261870303663047    0.01339399133395656    0.012007187585493679    
  0.011604431902253314    0.012007190136851788    0.013393987394619862    0.016261861561437083    0.021504684683605033    
  0.03042506040142836    0.044234540278831246    0.06290448788397411    0.08367510413599127    0.10060977911724958    
  0.10720295606495488    0.0712417545444283    0.0672638321175859    0.05699297430985398    0.04423451330955807    
  0.032552245372516116    0.023731366052543577    0.01790394817961251    0.014420515776466624    0.012513479900146533    
  0.01160884382511974    0.011350126846355316    0.011608847472917688    0.012513479797802311    0.014420506425889712    
  0.017903943361046403    0.023731362410060484    0.032552247966448226    0.04423452926264595    0.056992953800386076    
  0.06726384398628078    0.0712417545444283    0.045489649763259435    0.04329344534089766    0.037596437325110185    
  0.03042504858277251    0.023731346833444245    0.01858040573189963    0.01513222070826491    0.013088638560797495    
  0.012031321610433115    0.011574364666174735    0.011453579418459967    0.011574358665020539    0.012031314924023744    
  0.013088637566843208    0.015132223830061955    0.018580406711144533    0.02373135289218432    0.030425049723201945    
  0.03759644840931775    0.04329345283551517    0.045489649763259435    0.029490637726140606    0.028331176801067778    
  0.025320390705142595    0.02150468520446403    0.017903952330100996    0.015132228759821778    0.01333812388744876    
  0.012391601985256566    0.012037908324540375    0.011977117888431782    0.01198034472144598    0.011977115651987504    
  0.012037914514473487    0.01239159791482154    0.01333812977097636    0.015132229155388028    0.017903944015784087    
  0.021504676877452677    0.025320381103610158    0.02833119056747736    0.029490637726140606    0.020418468833171013    
  0.019812275395178332    0.01824331900636263    0.01626186890694354    0.01442051290484007    0.013088649591578742    
  0.012391597715164253    0.012247180900522816    0.012453080072455599    0.01273378563574354    0.012856371849482637    
  0.012733795881233892    0.012453084653850166    0.012247184482243047    0.012391600730352451    0.013088647715024259    
  0.014420512620169341    0.01626185488591468    0.018243304522503386    0.019812282149128047    0.020418468833171013    
  0.015590734991094552    0.015263422132721825    0.014422848431804552    0.01339398615802926    0.012513481269157056    
  0.01203131977537557    0.01203791445503359    0.012453086374284305    0.013074604139258535    0.01363038554852772    
  0.01385252369641475    0.013630390717303119    0.013074603910277613    0.012453083811986138    0.012037904309729354    
  0.012031323653496498    0.012513481804904025    0.01339398480394971    0.01442284127784911    0.015263433607663178    
  0.015590734991094552    0.013285269926925929    0.013085155403914155    0.012582842412294282    0.01200719033319869    
  0.011608840930282364    0.01157436227639941    0.011977109375466498    0.012733780875031674    0.01363038712831383    
  0.014363311382547723    0.014648518434425176    0.01436331123852465    0.013630379736298258    0.012733770326090802    
  0.011977111690237447    0.011574371601383074    0.011608843856841824    0.012007193834071667    0.012582838385257436    
  0.013085164466415798    0.013285269926925929    0.012608085585210344    0.012446441552588061    0.012043721304965904    
  0.011604430755186457    0.011350119330656034    0.01145358236059294    0.011980340454537906    0.01285636664268152    
  0.013852533060609594    0.014648527405001022    0.014950900935258856    0.014648518244655842    0.013852517614438769    
  0.012856366494757392    0.011980346437511011    0.011453575249475658    0.011350123534369991    0.011604433183147503    
  0.012043726283439428    0.012446442233219376    0.012608085585210344    0.01328526521741211    0.013085163748431747    
  0.012582845407896882    0.012007190155081914    0.011608843416077031    0.011574360146958276    0.011977113137108086    
  0.01273379386824566    0.013630388939970178    0.014363317918936485    0.014648524368100513    0.01436331596500264    
  0.013630383175112832    0.01273378460861457    0.011977107624339336    0.011574367135315615    0.011608846783197966    
  0.01200719283464985    0.012582839445495    0.013085165117250063    0.01328526521741211    0.015590730579104465    
  0.015263426578311829    0.014422852246088455    0.013393993049681694    0.01251347892575828    0.01203132814975555    
  0.012037912681737721    0.012453089110973902    0.01307460345240703    0.013630384641561268    0.013852529633580933    
  0.013630392004394528    0.013074610233778547    0.01245307319073912    0.012037910085696277    0.012031322237832182    
  0.012513487184722201    0.013393991796232217    0.014422844106247126    0.01526342811826656    0.015590730579104465    
  0.020418459695730477    0.019812276808879804    0.018243314060553465    0.01626186552132892    0.014420513085367348    
  0.013088645776790477    0.012391598640264241    0.01224718616056393    0.012453081817939403    0.012733782832373    
  0.012856371433612563    0.012733789601803576    0.012453088149730562    0.012247189207939822    0.012391604559630613    
  0.013088650573565995    0.014420519946073573    0.016261857798969912    0.018243309697552626    0.01981228817973057    
  0.020418459695730477    0.029490619812409698    0.02833117485331535    0.025320385253522808    0.02150468971174916    
  0.017903952614401458    0.015132226990368753    0.013338134052681644    0.012391593551300083    0.01203791667632309    
  0.011977114520299726    0.011980344691497448    0.011977109901007246    0.01203790598961772    0.01239159074460761    
  0.013338126621093805    0.015132233704159125    0.017903955814445965    0.02150468274100034    0.025320389297483176    