#     DFTpy    
  CRYSTAL 
    
  PRIMVEC    
  2.870393211640608    -1.5770500000000003e-10    2.9891844827586207e-10    
  -1.5770500000000003e-10    2.8703932114738175    1.4403336206896555e-10    
  5.46235775862069e-10    2.63246551724138e-10    5.258615993759207    
  PRIMCOORD    
  4    1    
  Si    1.4351966057656174    1.4351966065267427    1.6159424553757893    
  Si    5.32207931659192e-10    -4.925513470965976e-10    1.013365539736122    
  Si    8.162818740216164e-11    3.71993890850367e-10    4.245250451040357    
  Si    1.4351966061959214    1.43519660543642    3.642673541809096    
  BEGIN_BLOCK_DATAGRID_3D    
  3d_datagrid_density    
  BEGIN_DATAGRID_3D#0    
  13    13    23    
  0.0    0.0    0.0    
  2.870393211640608    -1.5770500000000003e-10    2.9891844827586207e-10    
  -1.5770500000000003e-10    2.8703932114738175    1.4403336206896555e-10    
  5.46235775862069e-10    2.63246551724138e-10    5.258615993759207    
  0.8242178223484293    0.7546762658230327    0.5837741044561873    0.3965435259397289    0.2570437470599986    
  0.17971275074448229    0.15584962147686904    0.17971274825750239    0.2570437296088937    0.3965435262682413    
  0.5837740858243785    0.7546762441503457    0.8242178223484293    0.7546762326214002    0.6933956871039045    
  0.5425007067234978    0.375752548481063    0.24977039372136003    0.17875283970037578    0.1565489975319605    
  0.17875283748319873    0.24977041200144273    0.37575252803352865    0.5425007262860885    0.6933956722598223    
  0.7546762326214002    0.5837741146015101    0.5425007209292713    0.4398108903752206    0.3229613868740807    
  0.2304822461389702    0.17568439577110623    0.15793938148263575    0.17568439452276782    0.23048223223525777    
  0.32296139810373625    0.4398109260358748    0.5425007303269841    0.5837741146015101    0.3965435334792104    
  0.37575249507183    0.3229613877956641    0.25953232854334185    0.20516485277254026    0.17040024504515183    
  0.1586027731832389    0.17040025232655948    0.2051648506819322    0.25953230070858785    0.3229614109188265    
  0.3757524913029619    0.3965435334792104    0.25704370988020336    0.24977040566821343    0.23048221491080642    
  0.20516482202655476    0.1809100590358578    0.1638626115028571    0.15775682227068186    0.1638626309370244    
  0.18091003911806097    0.20516481742589388    0.23048225113770196    0.24977038690433356    0.25704370988020336    
  0.17971276412762868    0.178752842293455    0.17568439819747558    0.170400275391756    0.1638626295795492    
  0.15836815886816724    0.15622287613070435    0.15836814051733128    0.16386264879383838    0.1704002528241233    
  0.1756844019061911    0.1787528361721473    0.17971276412762868    0.15584963063327112    0.1565489931064513    
  0.1579393657246588    0.1586027702535395    0.1577568222665533    0.15622287282183406    0.15548328843841872    
  0.15622287709030158    0.15775682497903623    0.15860277606498527    0.15793936953415635    0.15654900211999043    
  0.15584963063327112    0.1797127717060049    0.17875284015989698    0.17568439941772487    0.1704002633813481    
  0.16386264486070987    0.15836816117677244    0.15622289030144318    0.15836816260132672    0.1638626316977662    
  0.17040027700888336    0.17568440864036333    0.17875283260971608    0.1797127717060049    0.2570437266695342    
  0.24977040327297642    0.23048223230850745    0.20516483243336542    0.18091005651439676    0.16386263079143226    
  0.1577568231949352    0.1638626252172914    0.18091005335741542    0.20516481401518058    0.23048224842031817    
  0.24977039198821904    0.2570437266695342    0.396543506507853    0.3757525308521241    0.32296139039448896    
  0.2595323201058223    0.20516483992954382    0.17040027301587407    0.15860277484259988    0.17040027685345346    
  0.20516483198571323    0.25953233222024297    0.32296141080802077    0.3757525108854061    0.396543506507853    
  0.5837741199108477    0.5425007202708968    0.43981091229705915    0.322961390243599    0.23048225926016885    
  0.17568435736750398    0.1579393756763038    0.17568438057297428    0.2304822546098147    0.32296139887703434    
  0.43981091158806407    0.5425007269836869    0.5837741199108477    0.7546762135569002    0.6933956667203506    
  0.542500705764519    0.37575252593720926    0.2497703889787952    0.17875285786110345    0.15654900917308226    
  0.1787528404731313    0.24977040236194498    0.3757525298085368    0.5425007576851189    0.6933956681921641    
  0.7546762135569002    0.8242178223484293    0.7546762658230327    0.5837741044561873    0.3965435259397289    
  0.2570437470599986    0.17971275074448229    0.15584962147686904    0.17971274825750239    0.2570437296088937    
  0.3965435262682413    0.5837740858243785    0.7546762441503457    0.8242178223484293    0.723989265544409    
  0.6844984596142374    0.5655431076837246    0.40551811080877115    0.27108578960510354    0.1928851408064411    
  0.16847113483216533    0.19288514628016148    0.27108577780350585    0.40551813478568194    0.5655431100945626    
  0.6844984373417715    0.723989265544409    0.6844984237727304    0.6456600067254463    0.5336982651956773    
  0.38762358646548084    0.2652259816532521    0.19316125769584536    0.17039960376471    0.19316124911904606    
  0.26522598429070127    0.3876235732967034    0.5336982597021379    0.6456600269541363    0.6844984237727304    
  0.565543110749255    0.533698274914574    0.4478598267775447    0.3402860155060677    0.24890878969950223    
  0.19293844884743122    0.1746986947208341    0.19293844442183394    0.2489087970034718    0.34028603049633405    
  0.44785985857116273    0.5336982615832223    0.565543110749255    0.40551812338209786    0.38762355901197504    
  0.3402860277630641    0.28021479516313286    0.22619095737170206    0.19068093585460438    0.17855430459577312    
  0.19068095087713616    0.22619097090433402    0.2802147760252731    0.3402860348447397    0.3876235299709016    
  0.40551812338209786    0.27108577104451254    0.2652259945133335    0.2489087917720053    0.22619094886791397    
  0.2032830785217768    0.1864885081576463    0.18033522211073905    0.18648852998391122    0.2032831038088893    
  0.22619093659919404    0.24890880464107057    0.2652259776585628    0.27108577104451254    0.19288514960488182    
  0.19316125931707379    0.1929384524290854    0.19068097215232938    0.18648852720468473    0.18225039164249965    
  0.18043015961387537    0.18225035467556075    0.18648855464255115    0.19068095797228032    0.19293844727743645    
  0.1931612543580345    0.19288514960488182    0.16847114505194208    0.17039959543717503    0.17469869044088843    
  0.1785543140385359    0.18033521046293294    0.18043015075218916    0.18020637412418866    0.18043015563164003    
  0.18033521858103957    0.1785543216968562    0.1746986817833327    0.17039959483687406    0.16847114505194208    
  0.1928851528869939    0.19316128157274812    0.1929384480736118    0.19068096514080704    0.18648853907032242    
  0.18225036743444492    0.18043016815361984    0.18225037999760185    0.1864885187548702    0.190680971769426    
  0.1929384559177044    0.1931612645990663    0.1928851528869939    0.27108576823195446    0.26522599770251976    
  0.24890878139541767    0.22619096119451554    0.20328309679270554    0.18648853504851834    0.18033520474162873    
  0.186488522160877    0.2032830988789025    0.2261909563278769    0.2489088037160524    0.2652259787802977    
  0.27108576823195446    0.4055181295445369    0.3876235757254531    0.3402860254055308    0.2802147826871445    
  0.22619095999901256    0.1906809625310525    0.17855431388799728    0.19068095403557864    0.22619095494743843    
  0.2802147877421039    0.34028604813249014    0.38762355777438795    0.4055181295445369    0.5655431321347958    
  0.5336982575074097    0.4478598144036589    0.3402860444987205    0.24890880198097778    0.19293841888159724    
  0.17469868621860105    0.19293844626569365    0.24890881811926885    0.34028603307681754    0.44785982003873087    
  0.5336982743280044    0.5655431321347958    0.6844984235616373    0.6456600255061116    0.5336982562354713    
  0.38762357409345516    0.2652259747966825    0.19316127343759007    0.17039960706020402    0.19316125340470178    
  0.2652259907230764    0.38762353664248594    0.5336982887572557    0.6456599818705312    0.6844984235616373    
  0.723989265544409    0.6844984596142374    0.5655431076837246    0.40551811080877115    0.27108578960510354    
  0.1928851408064411    0.16847113483216533    0.19288514628016148    0.27108577780350585    0.40551813478568194    
  0.5655431100945626    0.6844984373417715    0.723989265544409    0.4157790287829051    0.4483707747089136    
  0.4806569361487352    0.4210107791555121    0.3118811087294256    0.2331959178700719    0.2072650804528407    
  0.2331959057817489    0.3118811072150975    0.4210108108805969    0.4806569344160374    0.4483707721554324    
  0.4157790287829051    0.448370742494872    0.4706763156451398    0.48218878557856265    0.41486311362879524    
  0.31087712297736236    0.2370572794220755    0.21261953534299954    0.23705728489194658    0.31087711001727897    
  0.41486309896481677    0.4821887922717874    0.47067631467911436    0.448370742494872    0.4806569479094657    
  0.4821888117473423    0.45948255828870116    0.3895277212293297    0.3049857695539884    0.24589805336810572    
  0.22601005451411837    0.24589805423629615    0.3049857866046783    0.3895277359558649    0.4594825982253954    
  0.4821888011083224    0.4806569479094657    0.42101077686055227    0.4148630852523966    0.3895277305776467    
  0.34314169111947523    0.2916794217491217    0.254204255835836    0.2409725900168179    0.2542042745209541    
  0.29167941362983024    0.34314165997686424    0.3895277398817789    0.41486307763374386    0.42101077686055227    
  0.3118810870349261    0.3108771372525804    0.3049857629771677    0.29167939706375173    0.27394833823647247    
  0.25831043212000754    0.2519960172120395    0.2583104498012361    0.2739483478617501    0.29167938489705453    
  0.30498578351349104    0.31087710838302846    0.3118810870349261    0.23319593213754616    0.23705729595199324    
  0.2458980609922195    0.2542042874347075    0.25831044696071714    0.25816415372195917    0.2572276107792426    
  0.258164109125737    0.25831047605199714    0.25420427944123386    0.24589805678779963    0.2370572800324915    
  0.23319593213754616    0.20726510406126092    0.2126195296288588    0.22601003579628517    0.24097258527755583    
  0.25199600814296463    0.25722760220311125    0.2583656778317559    0.25722760975454395    0.2519960225432238    
  0.2409726046452798    0.22601003754405974    0.21261953856433455    0.20726510406126092    0.23319592678100684    
  0.23705732281174385    0.24589804215385888    0.2542042776218124    0.25831045882936743    0.2581641259744568    
  0.2572276208090637    0.2581641315685503    0.2583104498458119    0.25420427548749597    0.24589807121002233    
  0.23705729459028244    0.23319592678100684    0.3118810910121515    0.31087713779873777    0.30498574573688775    
  0.291679394645525    0.27394835462587286    0.2583104457106828    0.2519960101171335    0.2583104363867782    
  0.273948363265186    0.2916793901705558    0.3049857770336993    0.3108771385049709    0.3118810910121515    
  0.4210107761468483    0.4148631224728209    0.3895277260510199    0.3431416717818925    0.29167941085549165    
  0.2542042909724697    0.2409726051517443    0.25420428452276816    0.29167938838344193    0.3431416956427984    
  0.38952773500681315    0.41486308564044283    0.4210107761468483    0.48065693608747806    0.4821887849836147    
  0.4594826029814532    0.38952773098887455    0.30498578322896736    0.24589801546648565    0.22601004345922662    
  0.24589804546801045    0.30498578651176356    0.38952774372979126    0.45948258603784753    0.4821888056981791    
  0.48065693608747806    0.448370739866913    0.47067632947647753    0.48218875758472574    0.4148631249289602    
  0.31087712228208303    0.2370573041706657    0.2126195574674239    0.2370572847576376    0.310877129226965    
  0.4148630821403754    0.482188824302109    0.47067632739314297    0.448370739866913    0.4157790287829051    
  0.4483707747089136    0.4806569361487352    0.4210107791555121    0.3118811087294256    0.2331959178700719    
  0.2072650804528407    0.2331959057817489    0.3118811072150975    0.4210108108805969    0.4806569344160374    
  0.4483707721554324    0.4157790287829051    0.1368759100984283    0.19558678345273492    0.3478126245863062    
  0.43127872453358745    0.3741205841600361    0.29765120604889733    0.26931658203035824    0.29765121464549427    
  0.3741205871904331    0.43127876595771925    0.34781259913627344    0.19558677624096849    0.1368759100984283    
  0.19558677522240922    0.2550031902597953    0.38997882483228663    0.44559912613654545    0.3817099630722442    
  0.30763212863301276    0.28047456597603515    0.3076321363838067    0.3817099898269785    0.44559910808114084    
  0.38997883148516194    0.25500318661194404    0.19558677522240922    0.34781260738537334    0.38997883267548716    
  0.46123269561857094    0.46157159657533914    0.39536145564552144    0.3330350258097118    0.3103780587653057    
  0.33303503497992976    0.39536145171426845    0.46157159337612697    0.4612327229222599    0.3899788425019917    
  0.34781260738537334    0.4312787629502257    0.445599114138568    0.4615716036519    0.4439282949509916    
  0.4005721537121545    0.36088650842766445    0.34565404575835756    0.3608865195226953    0.4005721387222733    
  0.4439282802861518    0.4615716221057009    0.4455990815889536    0.4312787629502257    0.3741205670956388    
  0.38170999413049456    0.39536142655476464    0.4005721510816193    0.39240641476002847    0.37699694659418015    
  0.36900086223062245    0.37699698321432457    0.39240642646801377    0.4005721168069015    0.39536146423751045    
  0.3817099689447354    0.3741205670956388    0.2976512237826823    0.30763213846187776    0.33303505903540115    
  0.36088654863889735    0.3769969772609887    0.37733927628633623    0.37403828571716013    0.37733923975771694    
  0.37699699918850926    0.36088652079778244    0.33303506086206824    0.3076321250572522    0.2976512237826823    
  0.26931660682102143    0.280474585200422    0.3103780493497762    0.3456540734395925    0.3690008476905214    
  0.3740382713426358    0.3722395983550274    0.37403827304884346    0.3690008610704589    0.3456540747477952    
  0.31037805163856763    0.28047457130505354    0.26931660682102143    0.29765121403392697    0.307632135488931    
  0.3330350395020056    0.36088652619747985    0.37699698252711    0.37733925949399294    0.37403829550465806    
  0.3773392692650527    0.37699696963798496    0.3608865296798238    0.3330350486968607    0.30763212041163196    
  0.29765121403392697    0.3741205743961125    0.38170999404023487    0.395361425189637    0.40057215207356495    
  0.3924064347887736    0.3769969857657821    0.36900086009470645    0.3769969583515899    0.392406431758313    
  0.4005721487013876    0.3953614447912251    0.38170996664541396    0.3741205743961125    0.4312787435789292    
  0.44559910940715475    0.46157162799979373    0.4439282639208016    0.40057214936383506    0.3608865262943788    
  0.3456540862945137    0.3608865236406455    0.4005721489215497    0.4439282703048134    0.4615716268973417    
  0.4455990997551745    0.4312787435789292    0.3478126066469594    0.38997882269736284    0.46123267974541016    
  0.4615715946385598    0.3953614512132556    0.3330350101737268    0.3103780391855754    0.3330350442638069    
  0.3953614636461185    0.46157161361641236    0.4612326806000769    0.38997882821507024    0.3478126066469594    
  0.1955867802321178    0.2550032031200539    0.38997882740743206    0.4455991256210167    0.3817099603059498    
  0.30763214993715265    0.28047458236639683    0.30763210797163193    0.3817099844788391    0.44559907463075543    
  0.389978853885077    0.2550031753771559    0.1955867802321178    0.1368759100984283    0.19558678345273492    
  0.3478126245863062    0.43127872453358745    0.3741205841600361    0.29765120604889733    0.26931658203035824    
  0.29765121464549427    0.3741205871904331    0.43127876595771925    0.34781259913627344    0.19558677624096849    
  0.1368759100984283    0.0522730338821402    0.1001656919447195    0.27908030227866315    0.4544348192969553    
  0.4437361600563883    0.3697089235408787    0.3390233032382468    0.36970894075639044    0.44373613310394916    
  0.45443485827413244    0.2790803215779389    0.10016568834434429    0.0522730338821402    0.1001656855437622    
  0.15996121725803433    0.3425243349506862    0.4869489799743016    0.4613251077232998    0.38789074103589044    
  0.3581592657435605    0.38789072356063725    0.4613251370847621    0.4869489827145734    0.34252433440397306    
  0.1599612341291353    0.1001656855437622    0.27908030130678335    0.3425243418647476    0.4796677782936563    
  0.5445184524896156    0.49970815078881037    0.43533646284299893    0.4098789041847158    0.43533645710300034    
  0.49970813712951767    0.5445184001481013    0.4796678078237192    0.34252432512853065    0.27908030130678335    
  0.4544348333493506    0.48694896315345326    0.5445184365091313    0.56100990795068    0.5280949091038656    
  0.48319518325275274    0.46352609029123626    0.48319515689009296    0.5280948710960663    0.5610098800064126    
  0.5445184104813608    0.4869489442947044    0.4544348333493506    0.4437360933045148    0.46132514624114257    
  0.49970815960642867    0.5280948749749921    0.5224243547378855    0.4887349991024154    0.4687413035026711    
  0.4887350391854515    0.5224243690200998    0.528094840906746    0.49970818285363305    0.4613250940145627    
  0.4437360933045148    0.369708943902497    0.3878907367135667    0.4353364770147622    0.48319521371130403    
  0.48873501418436216    0.4484906655649793    0.4220525957964859    0.4484906152239575    0.4887350539442265    
  0.4831951758578914    0.43533649598840307    0.3878907381245315    0.369708943902497    0.3390233441526536    
  0.3581592691482456    0.40987888306018183    0.4635261078143569    0.4687413111116522    0.4220525963776125    
  0.3921675169865733    0.42205258232207915    0.46874131049901424    0.46352610646935544    0.40987889185619025    
  0.35815927007244114    0.3390233441526536    0.36970893626624224    0.38789075603958784    0.43533646475723486    
  0.48319518152850693    0.4887350339679516    0.44849064321056065    0.4220526232577575    0.44849064118983245    
  0.48873503928290435    0.4831951827621407    0.4353364932068956    0.3878907443350997    0.36970893626624224    
  0.4437360883801784    0.46132513246664325    0.49970813134328507    0.5280948606200537    0.522424396666274    
  0.48873504025540077    0.4687412889211282    0.4887350015804101    0.5224243732595618    0.5280948613574982    
  0.4997081415903545    0.46132511875247545    0.4437360883801784    0.45443482396937174    0.4869489631677071    
  0.5445183870031425    0.5610098721219631    0.5280948674233941    0.483195209816432    0.46352611181320547    
  0.4831952039136629    0.5280948550298261    0.5610098916293196    0.5445184585443297    0.48694898041263374    
  0.45443482396937174    0.2790802969060323    0.3425243064315166    0.4796677837725837    0.5445183950588875    
  0.4997081481228293    0.43533643091914054    0.4098788851608044    0.4353364734643607    0.49970815731703117    
  0.5445184047171466    0.47966780844727275    0.34252430872072315    0.2790802969060323    0.10016568922936274    
  0.15996121360316948    0.34252431623292046    0.4869490093735258    0.46132508360192753    0.38789077348857953    
  0.35815926201160636    0.3878907291726139    0.4613251474019373    0.4869489754148863    0.34252434593635217    
  0.159961216896747    0.10016568922936274    0.0522730338821402    0.1001656919447195    0.27908030227866315    
  0.4544348192969553    0.4437361600563883    0.3697089235408787    0.3390233032382468    0.36970894075639044    
  0.44373613310394916    0.45443485827413244    0.2790803215779389    0.10016568834434429    0.0522730338821402    
  0.07561380928070736    0.13225129865563395    0.3252973664364325    0.5021347125917409    0.49164639670910004    
  0.41832861104653213    0.3877804439971856    0.41832862214878425    0.4916463917694566    0.5021347256271577    
  0.325297366887501    0.13225129828215315    0.07561380928070736    0.1322512775933402    0.1994806010612649    
  0.3927621767027779    0.539758937948024    0.5163449685640833    0.44396968424060024    0.41429874490050417    
  0.44396970869231633    0.5163449623858964    0.5397589508161146    0.3927622136125797    0.19948059120396539    
  0.1322512775933402    0.32529735659703934    0.39276217860091583    0.5384124162871783    0.6129457888049992    
  0.5741059155829589    0.5093493192766669    0.4825327779077323    0.5093493075752795    0.5741059278250664    
  0.6129457583629336    0.5384124322899851    0.392762164255895    0.32529735659703934    0.502134720569919    
  0.5397589234888381    0.6129458059773772    0.6467450944142813    0.6150471488277884    0.5547688853927091    
  0.525401895597772    0.5547688817464229    0.6150471212165994    0.6467450573266192    0.6129457737095974    
  0.5397589304785578    0.502134720569919    0.4916463829407026    0.5163449926755448    0.5741059175759176    
  0.6150471744967997    0.5805932870346898    0.4879243468846502    0.4392294464569402    0.48792436734347694    
  0.5805932672711585    0.6150471079836763    0.5741059622913631    0.5163449643695996    0.4916463829407026    
  0.418328616137479    0.44396971366348487    0.5093493450342977    0.5547689434139126    0.4879243619945279    
  0.34821119245750154    0.2837919182401464    0.3482111706134868    0.4879243995704827    0.554768872803139    
  0.5093493488801013    0.44396971220334636    0.418328616137479    0.387780480707272    0.4142987474308092    
  0.48253277942369094    0.5254019154517467    0.43922946159936066    0.2837919043354627    0.2179050784775934    
  0.28379189739822397    0.43922946171323707    0.5254019114206877    0.4825327835152161    0.4142987298679443    
  0.387780480707272    0.4183286034147011    0.4439697293349851    0.5093493240685917    0.5547689289723916    
  0.4879243575096774    0.34821118793567823    0.2837919190570317    0.3482111810908748    0.48792437785090015    
  0.5547688827837293    0.5093493495833811    0.4439696965788349    0.4183286034147011    0.4916464018317212    
  0.5163449494344273    0.5741058795875078    0.6150471009169493    0.5805932993714057    0.4879244182219095    
  0.4392294708295553    0.4879243197451346    0.5805933078329815    0.6150471114112895    0.5741059111128706    
  0.516344941190797    0.4916464018317212    0.502134711983772    0.5397589442900811    0.6129457589440026    
  0.646745119534702    0.6150471265430799    0.554768910808803    0.5254019104108678    0.5547688958694252    
  0.6150470905393125    0.6467450844115654    0.6129457670501072    0.539758901038174    0.502134711983772    
  0.32529735374389207    0.39276214310488056    0.5384123629356778    0.6129457751098474    0.5741059217001646    
  0.509349264431431    0.48253277359811925    0.5093493197720174    0.5741059320090042    0.6129457789296874    
  0.5384124436009378    0.3927621627445099    0.32529735374389207    0.13225129415710452    0.1994805988171845    
  0.39276215164169315    0.5397589284587211    0.5163449539567256    0.44396973967278763    0.414298741725785    
  0.4439696639495947    0.5163449797914225    0.5397589213054053    0.39276222005548184    0.19948057956300771    
  0.13225129415710452    0.07561380928070736    0.13225129865563395    0.3252973664364325    0.5021347125917409    
  0.49164639670910004    0.41832861104653213    0.3877804439971856    0.41832862214878425    0.4916463917694566    
  0.5021347256271577    0.325297366887501    0.13225129828215315    0.07561380928070736    0.21790567757132834    
  0.2837913167508931    0.43923019409819186    0.5254011444937929    0.4825335177789898    0.41429800272627243    
  0.3877811480952095    0.41429802352588535    0.48253352214275635    0.5254011849784134    0.43923016484176364    
  0.28379131161352256    0.21790567757132834    0.28379128733202535    0.34821183741084555    0.48792361871492085    
  0.554769681097033    0.5093485503154612    0.44397044274801706    0.41832791329857255    0.44397044232877575    
  0.5093485479252496    0.55476971324726    0.48792364004567157    0.34821182762473574    0.28379128733202535    
  0.43923015251077    0.48792363626619917    0.5805940609322567    0.6150463145514122    0.5741067158597749    
  0.5163441960867733    0.49164716031920225    0.5163441747551412    0.5741067311784424    0.6150462771888182    
  0.5805941000463458    0.4879236217124593    0.43923015251077    0.525401156761246    0.5547696327773516    
  0.6150463180925736    0.6467459653560683    0.6129449654862157    0.539759735685581    0.5021339575964788    
  0.5397597047882935    0.6129449415099404    0.646745910225074    0.615046295066652    0.554769645498022    
  0.525401156761246    0.4825334924065194    0.5093485594610107    0.5741067091564143    0.6129449714129332    
  0.5384131914944216    0.3927614779031638    0.3252979968643211    0.3927614719643277    0.5384132044355232    
  0.6129449201809986    0.5741067431130603    0.5093485033447206    0.4825334924065194    0.4142980288815708    
  0.44397044479548375    0.5163442068899439    0.5397597441973097    0.3927614666124553    0.1994811453265566    
  0.13225083921566766    0.19948111279789707    0.3927615007760109    0.5397597343806151    0.516344206491273    
  0.4439704195557966    0.4142980288815708    0.3877811720168908    0.4183279157116789    0.49164717410518116    
  0.5021339460405176    0.3252980053499762    0.13225083516466749    0.07561415791155449    0.13225083222579562    
  0.32529800933651687    0.502133950134657    0.49164716058524144    0.418327909228849    0.3877811720168908    
  0.41429800882114426    0.4439704567938538    0.5163441895796574    0.5397597672381134    0.3927614817552535    
  0.1994811347582247    0.13225083664241225    0.19948113213654503    0.3927614726363267    0.5397597263182252    
  0.5163442131662879    0.4439704286250185    0.41429800882114426    0.48253350958201885    0.5093485391055513    
  0.5741066989152502    0.612944940970862    0.5384132167203763    0.3927615018115536    0.32529802091265275    
  0.39276144453269546    0.5384132042127036    0.6129449345256355    0.5741067348952525    0.5093485107384363    
  0.48253350958201885    0.5254011291869572    0.5547696836075919    0.6150462756262288    0.6467459735443436    
  0.6129449460370863    0.5397597437441252    0.5021339636743053    0.539759757896975    0.6129449209356259    
  0.6467459343061067    0.6150463118857276    0.5547696712873071    0.5254011291869572    0.43923016836701045    
  0.4879235931406721    0.5805940665680737    0.615046295282305    0.5741067174131808    0.5163441336783062    
  0.4916471582233215    0.5163441749623175    0.5741067735996659    0.6150462877225052    0.5805941096956739    
  0.48792361611017604    0.43923016836701045    0.2837913049798727    0.34821185518782205    0.487923594340626    
  0.5547696604428338    0.509348522255419    0.44397047663925476    0.41832791385247875    0.44397042586118785    
  0.5093485604858775    0.5547696562284847    0.48792367054236474    0.3482118273999935    0.2837913049798727    
  0.21790567757132834    0.2837913167508931    0.43923019409819186    0.5254011444937929    0.4825335177789898    
  0.41429800272627243    0.3877811480952095    0.41429802352588535    0.48253352214275635    0.5254011849784134    
  0.43923016484176364    0.28379131161352256    0.21790567757132834    0.39216688915411985    0.42205332579844856    
  0.4687405736569967    0.46352680258744333    0.40987822203007274    0.358159913648643    0.3390226534493384    
  0.35815994362594533    0.4098782084984298    0.46352685477013195    0.4687405558182208    0.4220533235416167    
  0.39216688915411985    0.4220533011971606    0.44848992045103364    0.48873578763289427    0.4831944519011605    
  0.4353371815018805    0.3878900603113995    0.3697096031777765    0.38789004697154084    0.4353371807358147    
  0.48319443889742625    0.48873579924342064    0.4484899253311352    0.4220533011971606    0.46874055205174847    
  0.48873579670601924    0.5224236168739558    0.5280956478814512    0.49970738800347886    0.4613258705814422    
  0.44373542937616806    0.46132586947621035    0.4997073916888581    0.528095612670929    0.5224236132827114    
  0.4887357856645987    0.46874055205174847    0.4635268150519952    0.4831944042114145    0.5280956549392153    
  0.5610091145255564    0.5445192283092495    0.48694822646912667    0.4544355780633218    0.48694822193865905    
  0.5445192359816862    0.5610091152780977    0.5280956250596553    0.48319438217723826    0.4635268150519952    
  0.4098781617606219    0.435337199622809    0.49970738873906934    0.5445192251069924    0.47966701861785394    
  0.3425249720451868    0.2790797183411004    0.3425249903796205    0.4796670202886302    0.5445191657339153    
  0.4997074358065494    0.4353371803078045    0.4098781617606219    0.3581599285964504    0.3878900556356951    
  0.46132590136447527    0.4869482830470409    0.34252497003436694    0.15996075171609755    0.10016610716064998    
  0.15996072887250423    0.3425250090257937    0.4869482117057303    0.4613258954564876    0.3878900411782636    
  0.3581599285964504    0.3390226808626907    0.36970961571248917    0.4437353780263394    0.45443560891014506    