#     DFTpy    
  CRYSTAL 
    
  PRIMVEC    
  2.4719999999999995    0.0    0.0    
  0.0    2.4719999999999995    0.0    
  0.0    0.0    2.4719999999999995    
  PRIMCOORD    
  2    1    
  Si    0.0    0.0    0.0    
  Si    1.2359999999999998    1.2359999999999998    1.2359999999999998    
  BEGIN_BLOCK_DATAGRID_3D    
  3d_datagrid_density    
  BEGIN_DATAGRID_3D#0    
  11    11    11    
  0.0    0.0    0.0    
  2.4719999999999995    0.0    0.0    
  0.0    2.4719999999999995    0.0    
  0.0    0.0    2.4719999999999995    
  0.05605322632612919    0.11326695601695659    0.3283637681693947    0.529653286003407    0.5330700788938499    
  0.5028674018160696    0.533070010260529    0.5296532525040643    0.3283638063018532    0.11326695811719946    
  0.05605322632612919    0.11326696618705379    0.1849489491893593    0.39869047033310334    0.5546035388619136    
  0.5385825484469468    0.5078905516588802    0.5385826822515211    0.5546035600150596    0.3986904278743594    
  0.18494892610342176    0.11326696618705379    0.32836373034366284    0.3986904853561406    0.5386494665822967    
  0.5870047379727213    0.5436539111187543    0.5158445782105737    0.5436540094151385    0.5870047251793201    
  0.538649490016721    0.39869051573778497    0.32836373034366284    0.5296532412672613    0.5546035159012773    
  0.5870047463242387    0.5728818682124021    0.5340959705315971    0.51584649139353    0.5340960193357273    
  0.5728818742367637    0.5870048655612853    0.5546034990508295    0.5296532412672613    0.5330699885676083    
  0.5385826556124615    0.5436539384348016    0.5340959869992262    0.5164747904167094    0.5078885682521684    
  0.5164748369249292    0.5340958682263536    0.5436540317014014    0.538582636098998    0.5330699885676083    
  0.50286741619312    0.5078905705535994    0.5158445448170054    0.5158464263505563    0.5078886082568717    
  0.502869318556077    0.50788857795266    0.5158464280124425    0.5158445170173823    0.5078905894930709    
  0.50286741619312    0.5330700125209042    0.5385825483899863    0.5436540294873975    0.534095962391504    
  0.516474761622236    0.5078885680067254    0.516474848457045    0.5340959570515735    0.5436539596132404    
  0.5385826030829067    0.5330700125209042    0.5296532464320938    0.5546035244305227    0.5870046981733343    
  0.5728818754094949    0.5340959599432008    0.5158464332847671    0.5340959471549072    0.5728819450267102    
  0.5870046848468441    0.5546035304058092    0.5296532464320938    0.32836371947740745    0.39869046509060513    
  0.5386495571719859    0.5870046449469705    0.5436539301205939    0.515844563857042    0.5436539789198171    
  0.5870047345998402    0.538649564838642    0.3986905115636444    0.32836371947740745    0.11326696071496417    
  0.1849489385969909    0.3986904671674255    0.5546035808035548    0.5385826115836044    0.5078904701517679    
  0.5385826077431793    0.5546034869674875    0.39869043456325687    0.1849489038248726    0.11326696071496417    
  0.05605322632612919    0.11326695601695659    0.3283637681693947    0.529653286003407    0.5330700788938499    
  0.5028674018160696    0.533070010260529    0.5296532525040643    0.3283638063018532    0.11326695811719946    
  0.05605322632612919    0.11326696201430746    0.18494894526367425    0.39869049526829375    0.5546035672584153    
  0.5385826320533665    0.5078905936694149    0.5385825895579968    0.5546035861356858    0.39869053763963813    
  0.18494892142433722    0.11326696201430746    0.18494893989654637    0.2632163824383416    0.4607027296038884    
  0.5758796029205062    0.546796487895327    0.5164727715363396    0.5467966407824197    0.5758795609106248    
  0.46070264359849883    0.2632163942905608    0.18494893989654637    0.3986904512093444    0.46070275523865567    
  0.5750760537398278    0.6048015389795417    0.5602833490741245    0.5340979093064369    0.5602833511771979    
  0.6048015457666508    0.5750760493442809    0.46070275288310947    0.3986904512093444    0.5546035205238016    
  0.5758795765317372    0.6048015199600151    0.5943532707593916    0.5602853376121409    0.543652107618405    
  0.5602854411207121    0.5943532404455901    0.6048016619077013    0.575879513951066    0.5546035205238016    
  0.5385825767240633    0.5467965329171189    0.5602833897851156    0.5602854281261099    0.5467944893289689    
  0.5385845800940952    0.5467945837279833    0.560285249769138    0.5602832834797474    0.5467964661607548    
  0.5385825767240633    0.5078905483609183    0.5164728756376056    0.5340979845901853    0.5436519670765788    
  0.5385845675200163    0.5330680580514845    0.5385846179171878    0.5436519956245811    0.5340979329516803    
  0.5164729267713799    0.5078905483609183    0.538582544265414    0.5467964620112917    0.5602833652395197    
  0.5602853550823181    0.546794493843261    0.538584626167346    0.5467945625318581    0.5602853542677367    
  0.5602833843133413    0.5467964332369103    0.538582544265414    0.5546034960993533    0.5758795001447141    
  0.604801580180626    0.5943531878465986    0.5602853383500086    0.5436520232295984    0.560285362271209    
  0.5943532233387498    0.6048015506645429    0.5758795676094105    0.5546034960993533    0.39869046417142406    
  0.46070270381345396    0.5750761687577921    0.6048015073909996    0.5602833465290522    0.5340980151211278    
  0.5602833463095119    0.6048015807632124    0.5750761594376737    0.46070274398473443    0.39869046417142406    
  0.1849489363783355    0.2632163870136045    0.4607027717190236    0.5758795741156929    0.5467964738751437    
  0.5164727736469874    0.5467964697827506    0.5758794813510365    0.4607027828416572    0.2632163727483412    
  0.1849489363783355    0.11326696201430746    0.18494894526367425    0.39869049526829375    0.5546035672584153    
  0.5385826320533665    0.5078905936694149    0.5385825895579968    0.5546035861356858    0.39869053763963813    
  0.18494892142433722    0.11326696201430746    0.3283637901761843    0.39869048968530635    0.5386495540461945    
  0.5870047056233081    0.5436539846174356    0.5158445112709563    0.5436539826893648    0.5870047422265597    
  0.5386494396665861    0.3986905140261168    0.3283637901761843    0.3986904820274695    0.4607027584574283    
  0.5750760879975862    0.604801611928403    0.5602832766680981    0.5340979142085368    0.5602834766063873    
  0.604801518404356    0.5750760801705251    0.4607027597518428    0.3986904820274695    0.5386494365342225    
  0.5750761289583872    0.6336055945267436    0.6350675930497048    0.5943551930285715    0.5728799269028165    
  0.5943552681112695    0.6350677437225184    0.6336055736316999    0.5750761116076947    0.5386494365342225    
  0.587004709134521    0.6048015716187064    0.635067698598375    0.6350696975816004    0.6047994810495793    
  0.5870068310795958    0.6047995259957636    0.6350696865731308    0.6350677543622509    0.6048014370769704    
  0.587004709134521    0.5436539736888278    0.5602834000321878    0.5943552771569569    0.6047995287311629    
  0.5758814822939085    0.5546014820406024    0.575881607145563    0.6047994338562854    0.5943552887121357    
  0.5602833316782702    0.5436539736888278    0.515844594817993    0.534097940872438    0.572879858019677    
  0.5870066994929775    0.5546014977133885    0.5296552357839206    0.5546015403170957    0.5870067644383261    
  0.5728798699000961    0.5340979474713365    0.515844594817993    0.5436539562272056    0.5602833759979025    
  0.5943553759369724    0.6047995003829679    0.5758815368458949    0.5546015431274265    0.5758816127581979    
  0.6047994603981216    0.5943552321195231    0.5602834126923025    0.5436539562272056    0.5870046942225555    
  0.604801531258153    0.6350676553560055    0.6350697067578738    0.6047994449215739    0.5870067986435293    
  0.6047994846187595    0.6350696824309366    0.6350676126334887    0.6048015923303742    0.5870046942225555    
  0.538649525305425    0.5750760046848642    0.6336055494829792    0.6350676444784646    0.5943552929702502    
  0.5728799393301623    0.5943553298114266    0.635067644475365    0.6336055835255155    0.5750761696877362    
  0.538649525305425    0.39869045520842167    0.4607027685711654    0.5750760620860891    0.6048016367185035    
  0.5602833009386141    0.5340979479935015    0.5602833951041032    0.6048014716234088    0.5750761829727261    
  0.4607026297112116    0.39869045520842167    0.3283637901761843    0.39869048968530635    0.5386495540461945    
  0.5870047056233081    0.5436539846174356    0.5158445112709563    0.5436539826893648    0.5870047422265597    
  0.5386494396665861    0.3986905140261168    0.3283637901761843    0.5296532490923165    0.5546035052364549    
  0.5870047918319199    0.5728818645596714    0.5340959649093397    0.515846483712915    0.5340959498790945    
  0.5728819150810722    0.5870047191849966    0.5546035526117646    0.5296532490923165    0.5546035144138054    
  0.5758795343692402    0.604801514989212    0.5943532490594975    0.5602853355259586    0.5436519684341696    
  0.5602853831630155    0.5943532768271431    0.6048015134388924    0.575879567138423    0.5546035144138054    
  0.587004666110089    0.6048015461545084    0.6350676442976362    0.6350696381788826    0.6047994727318509    
  0.5870067482840634    0.604799501214565    0.6350697334875446    0.6350676354584367    0.6048014644924651    
  0.587004666110089    0.5728818923604898    0.5943532755315678    0.6350697333651166    0.6336034529831254    
  0.5750780559554762    0.5386476533847278    0.5750780890095384    0.6336034951916216    0.6350697840261676    
  0.5943532340513034    0.5728818923604898    0.5340959976950123    0.560285344660437    0.6047994957951927    
  0.5750781454420579    0.46070083683528135    0.3986921878639279    0.4607009033991531    0.5750780796703041    
  0.6047994806637291    0.560285324891683    0.5340959976950123    0.5158464882107378    0.5436520403857011    
  0.5870067770550967    0.5386475448987743    0.3986922408490719    0.32836214951595016    0.39869222885581085    
  0.5386475686080358    0.5870067153914386    0.5436520234166861    0.5158464882107378    0.5340959985483285    
  0.5602852855122662    0.6047995292175253    0.5750780921742171    0.46070087837672274    0.39869228903998555    
  0.46070093695629916    0.57507803607065    0.6047994839506804    0.5602853564131594    0.5340959985483285    
  0.5728818802021031    0.5943532620934444    0.6350697190041494    0.6336035200736982    0.5750780144387216    
  0.5386476335239435    0.5750781644088443    0.6336034401230477    0.6350696410215553    0.5943532535737638    
  0.5728818802021031    0.5870047243861571    0.6048014781341368    0.6350676161678863    0.635069661489092    
  0.6047994549331595    0.5870068430709693    0.6047995460809694    0.635069695276807    0.6350677023874859    
  0.604801519855271    0.5870047243861571    0.5546035294286858    0.5758795391443837    0.6048014563065333    
  0.5943533395969388    0.5602853131970074    0.5436520425321117    0.5602853665403384    0.5943532575974866    
  0.6048015195584633    0.5758794567580758    0.5546035294286858    0.5296532490923165    0.5546035052364549    
  0.5870047918319199    0.5728818645596714    0.5340959649093397    0.515846483712915    0.5340959498790945    
  0.5728819150810722    0.5870047191849966    0.5546035526117646    0.5296532490923165    0.533070045692212    
  0.5385826598584776    0.5436540161248463    0.5340959946760198    0.516474766952109    0.5078886867639156    
  0.5164747597159843    0.534096027237381    0.5436540057920473    0.5385825976314746    0.533070045692212    
  0.5385826504875671    0.5467965171645678    0.5602833492995271    0.5602853845006003    0.5467944504173288    
  0.538584531454864    0.5467945645643258    0.5602853760804779    0.5602832899166043    0.5467964771888818    
  0.5385826504875671    0.5436539448343768    0.5602833438902126    0.5943551828064905    0.6047995407248592    
  0.5758814940465913    0.5546015527178353    0.5758815746248562    0.60479956857463    0.5943552168357984    
  0.5602833894316358    0.5436539448343768    0.5340959729828341    0.5602854146051366    0.6047995244895333    
  0.575078102771465    0.4607008613792963    0.39869235093084837    0.460700930807464    0.5750780373040119    
  0.6047995958190903    0.5602852753046029    0.5340959729828341    0.5164748102428725    0.5467945505033714    
  0.5758815961557103    0.46070094918404003    0.26321787619119896    0.18494758518132068    0.26321793675781524    
  0.4607008511746954    0.5758814938487261    0.5467945186034738    0.5164748102428725    0.5078885850878803    
  0.5385846011763118    0.5546016147349402    0.39869223149781585    0.18494761588998362    0.11326806464835323    
  0.18494760730230628    0.3986922466543626    0.554601552883725    0.5385846453697752    0.5078885850878803    
  0.5164747743963862    0.5467944938841768    0.5758815521172199    0.4607009172277669    0.2632178629092062    
  0.18494764299796948    0.2632179355416556    0.46070089431018196    0.5758815791811606    0.5467944982260656    
  0.5164747743963862    0.5340959863590384    0.5602853022270253    0.6047995387308395    0.5750780698471092    
  0.4607008533564324    0.39869224115426344    0.46070090271084685    0.5750780999644046    0.6047995210497712    
  0.5602853849551529    0.5340959863590384    0.5436539589565443    0.5602833420045835    0.5943552834178715    
  0.6047995131423274    0.5758815873088108    0.5546015912986114    0.5758815733979562    0.6047995041290419    
  0.5943553003953874    0.5602834031126195    0.5436539589565443    0.5385826605724953    0.5467965316772245    
  0.5602834075745365    0.5602853535601497    0.5467945028829541    0.5385845597453272    0.5467945246037552    
  0.5602852993294756    0.5602833714246439    0.5467964823905621    0.5385826605724953    0.533070045692212    
  0.5385826598584776    0.5436540161248463    0.5340959946760198    0.516474766952109    0.5078886867639156    
  0.5164747597159843    0.534096027237381    0.5436540057920473    0.5385825976314746    0.533070045692212    
  0.5028674325462499    0.5078905909459027    0.5158445158864321    0.5158464885724885    0.5078886326342829    
  0.5028693424643252    0.5078885962486125    0.5158464638159569    0.5158445745084421    0.5078905881215087    
  0.5028674325462499    0.5078905915323858    0.5164728790020828    0.534097897311495    0.5436520153001725    
  0.5385845379097762    0.5330680296993472    0.5385846389224599    0.5436520551785446    0.5340978348822942    
  0.5164728556714043    0.5078905915323858    0.5158444666642443    0.534097930736028    0.5728798503061076    
  0.5870067432958638    0.5546014559621769    0.5296552724229232    0.5546015493280132    0.587006778507571    
  0.5728798756287781    0.5340979548507959    0.5158444666642443    0.5158464765267695    0.54365201864033    
  0.5870067906727242    0.5386475467701777    0.39869223630586903    0.3283621518042507    0.39869225169370004    
  0.5386475353323152    0.5870068952041902    0.5436519862755149    0.5158464765267695    0.5078885810204461    
  0.538584633541022    0.5546014657310226    0.39869225133444597    0.18494760308796668    0.11326804655778608    
  0.18494761768229373    0.39869214691952287    0.5546015625672215    0.5385846267492763    0.5078885810204461    
  0.5028693945462631    0.5330680677308265    0.529655236999159    0.32836209053317283    0.11326805736318037    
  0.05605235415825084    0.11326805712467952    0.3283621174697425    0.5296552469072422    0.5330680527291293    
  0.5028693945462631    0.5078886002799856    0.5385845275334059    0.5546015724321013    0.39869222572073876    
  0.18494759627591167    0.11326805539415412    0.18494763584733848    0.3986922454889231    0.5546014966971943    
  0.5385845885659057    0.5078886002799856    0.5158464513855102    0.5436520172590176    0.587006728853552    
  0.5386475732932591    0.39869222256019876    0.3283621147319721    0.3986922255052838    0.5386476131877885    
  0.5870067291786281    0.5436520112472141    0.5158464513855102    0.5158444420918095    0.5340979089997879    
  0.5728799250677588    0.5870066891765993    0.5546014458243639    0.5296552746651588    0.5546015117162872    
  0.5870067702421718    0.5728799361557755    0.5340979639362317    0.5158444420918095    0.5078905692573054    
  0.5164728580110831    0.5340979095301581    0.5436520636999115    0.5385845849702954    0.5330679621654552    
  0.5385846003141638    0.5436519483229978    0.534097868735655    0.5164728128477949    0.5078905692573054    
  0.5028674325462499    0.5078905909459027    0.5158445158864321    0.5158464885724885    0.5078886326342829    
  0.5028693424643252    0.5078885962486125    0.5158464638159569    0.5158445745084421    0.5078905881215087    
  0.5028674325462499    0.5330700558175347    0.5385826522251642    0.5436539712540357    0.5340959992531206    
  0.516474812205141    0.5078886445659334    0.5164747831630779    0.5340960086559237    0.5436540498020241    
  0.5385826152097963    0.5330700558175347    0.5385826589113615    0.5467964728340777    0.5602833393145445    
  0.560285398494239    0.5467944849946665    0.538584573441875    0.5467946134373601    0.5602853656732717    
  0.560283271952791    0.5467965151359722    0.5385826589113615    0.5436539478830411    0.5602833472717745    
  0.5943552084995926    0.6047994942399557    0.5758815469891398    0.5546015012873655    0.5758815447161353    
  0.6047994853318912    0.5943552333249998    0.5602833837021881    0.5436539478830411    0.5340959616822125    
  0.560285414254736    0.6047994851050174    0.5750781242774621    0.4607008635983251    0.39869233088518635    
  0.4607009555703301    0.5750780921100865    0.6047996317533726    0.5602853246963607    0.5340959616822125    
  0.5164747666134129    0.546794535810139    0.5758815691547551    0.4607009613840721    0.26321788733089463    
  0.184947591813942    0.2632179411920064    0.46070081748985986    0.5758814909776651    0.5467944712195029    
  0.5164747666134129    0.5078886180005526    0.5385846765562157    0.5546016115274116    0.3986922204591478    
  0.18494756754725422    0.11326806968908813    0.18494759058601723    0.39869223220379835    0.5546015234413562    
  0.5385846932197103    0.5078886180005526    0.5164747298657594    0.5467944748160307    0.5758815878702152    
  0.46070090047867    0.2632178796055628    0.18494762892767003    0.26321792786589615    0.4607009102190239    
  0.5758815929705056    0.5467944601665639    0.5164747298657594    0.5340959536035762    0.5602853158805347    
  0.6047995567792854    0.5750780531778023    0.4607008899235364    0.39869225052643126    0.46070091363037213    
  0.5750780839805051    0.6047995217896481    0.5602853505985403    0.5340959536035762    0.5436539740144631    
  0.5602833239886041    0.5943553277758753    0.60479947699861    0.5758815318780521    0.5546015708627647    
  0.5758815448944611    0.60479954063095    0.5943553213714585    0.5602833687602207    0.5436539740144631    
  0.5385826093578938    0.5467965210972708    0.5602833809511854    0.5602853936026768    0.5467944869695366    
  0.5385845481694966    0.5467945032613213    0.5602852760038347    0.5602834069292302    0.5467964513083633    
  0.5385826093578938    0.5330700558175347    0.5385826522251642    0.5436539712540357    0.5340959992531206    
  0.516474812205141    0.5078886445659334    0.5164747831630779    0.5340960086559237    0.5436540498020241    
  0.5385826152097963    0.5330700558175347    0.5296532613514999    0.554603510748258    0.5870047954664386    
  0.5728818712032774    0.5340959551031144    0.5158464623927269    0.5340959920293514    0.5728818633095164    
  0.587004657519774    0.55460355959874    0.5296532613514999    0.5546035521463789    0.5758795480246259    
  0.6048015061907347    0.5943533020566507    0.5602852856013885    0.5436520095125766    0.5602854185391021    
  0.5943532445002129    0.6048014947909486    0.5758795712760403    0.5546035521463789    0.5870046778290708    
  0.6048015418479302    0.6350676783859205    0.6350696347160667    0.6047994154279864    0.5870068179105503    
  0.6047994899906994    0.6350697888818491    0.6350676292428471    0.6048015264312683    0.5870046778290708    
  0.5728818732277454    0.5943532844753687    0.6350697411182491    0.6336034617358903    0.5750780677964731    
  0.538647632906996    0.5750781237084815    0.6336034549426867    0.635069797361606    0.5943531492801145    
  0.5728818732277454    0.5340959560249958    0.560285385547209    0.6047995006528016    0.5750781429003935    
  0.46070082634283105    0.3986922209212013    0.46070094907183445    0.5750780396517301    0.6047995280787076    
  0.560285327087009    0.5340959560249958    0.5158465219740634    0.5436520321861329    0.5870067244360591    
  0.5386474946319167    0.39869221898476803    0.3283621429630105    0.39869225645530365    0.5386475710339532    
  0.5870067673494535    0.5436520139089376    0.5158465219740634    0.5340959166809939    0.5602853481348435    
  0.604799603181396    0.5750780997955076    0.46070087645121793    0.39869226510528194    0.4607009605297779    
  0.5750780572408464    0.6047994468127901    0.5602854139543941    0.5340959166809939    0.5728818406939018    
  0.5943532560691926    0.6350697362610259    0.6336034762314037    0.5750780570477816    0.538647576796479    
  0.5750781079329338    0.6336035010089209    0.6350696740099896    0.5943533008897938    0.5728818406939018    
  0.5870047432662722    0.6048014716262397    0.6350676171409675    0.6350696884066981    0.604799539439957    
  0.587006791142829    0.6047995655663502    0.6350696981583517    0.6350676771926469    0.6048015816790825    
  0.5870047432662722    0.5546034843304979    0.5758795979058445    0.6048014791446615    0.594353354455895    
  0.5602852828471687    0.5436520350172238    0.5602853888442163    0.5943532091419788    0.6048015923440583    
  0.5758794429810062    0.5546034843304979    0.5296532613514999    0.554603510748258    0.5870047954664386    
  0.5728818712032774    0.5340959551031144    0.5158464623927269    0.5340959920293514    0.5728818633095164    
  0.587004657519774    0.55460355959874    0.5296532613514999    0.32836378381219017    0.3986904706973772    
  0.5386495587851025    0.5870046967348211    0.5436539733786788    0.515844530373362    0.543653961966695    
  0.5870047546850319    0.5386494911071873    0.3986905230293253    0.32836378381219017    0.3986904766779895    
  0.46070272283755775    0.57507607557868    0.6048015616969459    0.5602833393512554    0.5340978882111548    
  0.5602833961067114    0.604801555444306    0.5750761085692812    0.4607027755898391    0.3986904766779895    
  0.5386494367545501    0.5750760940955753    0.6336055641954171    0.6350675889685902    0.5943552409057095    
  0.5728799038768934    0.5943552625907816    0.6350676940402322    0.6336055369026348    0.5750760431366547    
  0.5386494367545501    0.5870047556902925    0.604801566193653    0.6350676658866304    0.6350696686761563    
  0.6047994439467594    0.5870068718906494    0.6047994851601018    0.6350696925088012    0.6350677162293468    
  0.6048015219445642    0.5870047556902925    0.5436540198224034    0.5602833433918845    0.59435527372077    
  0.6047995139973078    0.5758814860403159    0.5546014617972889    0.5758815662344112    0.6047994760946592    
  0.5943552464524277    0.5602833403730657    0.5436540198224034    0.5158445561423326    0.5340979628461126    
  0.572879897635444    0.5870067399602293    0.554601483873894    0.5296552647104189    0.5546015023484449    
  0.587006754407358    0.5728798727016806    0.5340979277131704    0.5158445561423326    0.5436539859303787    
  0.5602833318958642    0.5943553212988592    0.6047994819450166    0.5758815215519123    0.5546015770342861    
  0.5758815968788543    0.6047994187750643    0.5943552704304839    0.5602833845849526    0.5436539859303787    
  0.5870047328500796    0.604801549894521    0.6350676679828471    0.6350697390258123    0.6047994272464268    
  0.5870068140372291    0.6047995774158719    0.6350696695826251    0.6350675886510304    0.6048015732833522    
  0.5870047328500796    0.5386494923953391    0.5750760845067878    0.6336055492950997    0.6350675961767251    
  0.594355241362448    0.5728799561313186    0.5943553377895247    0.6350676456229113    0.633605617758974    
  0.5750761138849401    0.5386494923953391    0.39869049118830935    0.46070272729343553    0.5750760753872913    
  0.6048016244713024    0.5602833348163545    0.5340979602233987    0.5602834036561313    0.6048015353847972    
  0.5750761180299692    0.46070266866386506    0.39869049118830935    0.32836378381219017    0.3986904706973772    
  0.5386495587851025    0.5870046967348211    0.5436539733786788    0.515844530373362    0.543653961966695    
  0.5870047546850319    0.5386494911071873    0.3986905230293253    0.32836378381219017    0.11326695007586182    
  0.1849489526826318    0.3986904917888381    0.5546035345546821    0.5385826266087206    0.5078906464320865    
  0.5385825894423845    0.5546035868138142    0.3986905125856344    0.1849489131184934    0.11326695007586182    
  0.18494894883004329    0.2632163996369905    0.4607027118863058    0.57587956395019    0.5467964325184049    
  0.5164727698127904    0.5467965602335791    0.5758795796195151    0.4607026713857868    0.2632163721497251    
  0.18494894883004329    0.39869045663209346    0.46070272957178593    0.5750760376117044    0.6048015662393151    
  0.5602833130800754    0.5340979602192294    0.5602833913839774    0.6048015942774358    0.575076092165088    
  0.4607027670560838    0.39869045663209346    0.5546035196961787    0.5758795670182827    0.6048016017033829    
  0.5943532309974717    0.5602852959820477    0.5436521439009484    0.5602854060317668    0.5943531828505365    
  0.6048016327053712    0.5758794520694486    0.5546035196961787    0.5385826268983493    0.546796548181234    
  0.5602833976059673    0.5602854072943132    0.5467944607933544    0.5385845755550388    0.5467945721721884    
  0.560285281124568    0.5602833091583205    0.546796480804293    0.5385826268983493    0.5078905155479283    
  0.516472814964418    0.5340980192416293    0.543651986407621    0.5385846227089278    0.5330680506938228    
  0.5385846189914498    0.5436520099507318    0.5340979783175155    0.5164728739190729    0.5078905155479283    
  0.5385825817099036    0.5467965078229488    0.5602833671627009    0.5602853933816252    0.546794471539785    
  0.5385846644136298    0.5467945713378278    0.560285348195351    0.5602833877387314    0.5467964916567035    
  0.5385825817099036    0.5546035330588373    0.5758794988695128    0.6048015639523848    0.5943532069813446    
  0.5602853030262078    0.5436520190442399    0.560285370401982    0.5943532422326666    0.6048015424934057    
  0.5758796262493742    0.5546035330588373    0.398690449415063    0.4607027324648068    0.5750761423792103    
  0.6048015565974326    0.5602834259703873    0.5340979687376126    0.5602833786469601    0.6048015484886364    
  0.5750761456033733    0.4607027563837104    0.398690449415063    0.18494895317642032    0.26321640365967064    
  0.4607027782444499    0.5758795634441839    0.5467964975792036    0.5164727830518678    0.546796500108488    
  0.5758794767396826    0.46070275661929694    0.263216377913104    0.18494895317642032    0.11326695007586182    
  0.1849489526826318    0.3986904917888381    0.5546035345546821    0.5385826266087206    0.5078906464320865    
  0.5385825894423845    0.5546035868138142    0.3986905125856344    0.1849489131184934    0.11326695007586182    
  0.05605322632612919    0.11326695601695659    0.3283637681693947    0.529653286003407    0.5330700788938499    
  0.5028674018160696    0.533070010260529    0.5296532525040643    0.3283638063018532    0.11326695811719946    
  0.05605322632612919    0.11326696618705379    0.1849489491893593    0.39869047033310334    0.5546035388619136    
  0.5385825484469468    0.5078905516588802    0.5385826822515211    0.5546035600150596    0.3986904278743594    
  0.18494892610342176    0.11326696618705379    0.32836373034366284    0.3986904853561406    0.5386494665822967    
  0.5870047379727213    0.5436539111187543    0.5158445782105737    0.5436540094151385    0.5870047251793201    
  0.538649490016721    0.39869051573778497    0.32836373034366284    0.5296532412672613    0.5546035159012773    
  0.5870047463242387    0.5728818682124021    0.5340959705315971    0.51584649139353    0.5340960193357273    
  0.5728818742367637    0.5870048655612853    0.5546034990508295    0.5296532412672613    0.5330699885676083    
  0.5385826556124615    0.5436539384348016    0.5340959869992262    0.5164747904167094    0.5078885682521684    
  0.5164748369249292    0.5340958682263536    0.5436540317014014    0.538582636098998    0.5330699885676083    
  0.50286741619312    0.5078905705535994    0.5158445448170054    0.5158464263505563    0.5078886082568717    
  0.502869318556077    0.50788857795266    0.5158464280124425    0.5158445170173823    0.5078905894930709    
  0.50286741619312    0.5330700125209042    0.5385825483899863    0.5436540294873975    0.534095962391504    
  0.516474761622236    0.5078885680067254    0.516474848457045    0.5340959570515735    0.5436539596132404    
  0.5385826030829067    0.5330700125209042    0.5296532464320938    0.5546035244305227    0.5870046981733343    
  0.5728818754094949    0.5340959599432008    0.5158464332847671    0.5340959471549072    0.5728819450267102    
  0.5870046848468441    0.5546035304058092    0.5296532464320938    0.32836371947740745    0.39869046509060513    