#     DFTpy    
  CRYSTAL 
    
  PRIMVEC    
  4.661518575704347    -2.5611291999999994e-10    4.8544356e-10    
  -2.5611291999999994e-10    4.66151857543348    2.3391018e-10    
  8.870868999999999e-10    4.2751239999999994e-10    8.539992373864951    
  PRIMCOORD    
  4    1    
  Si    2.330759287763362    2.33075928899943    2.624290547530281    
  Si    8.643056810145277e-10    -7.999033876848747e-10    1.6457056365314617    
  Si    1.3256417634111048e-10    6.04118078740996e-10    6.894286732489538    
  Si    2.3307592884621764    2.330759287228746    5.91570183189797    
  BEGIN_BLOCK_DATAGRID_3D    
  3d_datagrid_density    
  BEGIN_DATAGRID_3D#0    
  21    21    37    
  0.0    0.0    0.0    
  4.661518575704347    -2.5611291999999994e-10    4.8544356e-10    
  -2.5611291999999994e-10    4.66151857543348    2.3391018e-10    
  8.870868999999999e-10    4.2751239999999994e-10    8.539992373864951    
  0.07865104202716082    0.07402694988254359    0.06221814766130355    0.04773668324575563    0.034589419221904345    
  0.02469585750182018    0.018111876802343087    0.014122677406173774    0.011917050768054287    0.010842414949329431    
  0.01052242050515394    0.01084242354648525    0.011917033838480747    0.014122674627007718    0.018111878831231505    
  0.024695847673221454    0.034589434046137346    0.047736649438059116    0.06221816620269897    0.07402697040079875    
  0.07865104202716082    0.0740269439165213    0.06973153475635353    0.058761303347438516    0.045273610777652656    
  0.03299090645390501    0.02372711510925236    0.017541828183627827    0.01377840429725172    0.011694039398876756    
  0.010679390661385412    0.010377494773343817    0.010679384294516694    0.01169403305161677    0.013778405040636722    
  0.01754182386902563    0.0237271239913805    0.03299090681338592    0.04527358004298265    0.05876132206481108    
  0.06973152489240254    0.0740269439165213    0.06221816004371371    0.05876127667386729    0.049897533518701576    
  0.03893154923389358    0.028856290005003064    0.02118869077030344    0.01602187659924072    0.012852218470122256    
  0.011094466397217569    0.010241440238923948    0.009988586466261513    0.010241436711022804    0.011094466982181186    
  0.012852220348570484    0.016021875799598385    0.021188689695214213    0.02885629877701724    0.03893152863131453    
  0.049897554956329915    0.058761276888058434    0.06221816004371371    0.04773664344393901    0.045273597423587345    
  0.03893152185102326    0.0310213399159769    0.023648912392725978    0.017942418202974816    0.014046356831997961    
  0.011638748903606354    0.010311809829536923    0.00967934102837409    0.009494252334748664    0.009679345697029256    
  0.010311809465324069    0.011638754252649628    0.014046372620282419    0.01794241313357092    0.02364893322872335    
  0.031021309127900378    0.03893153856061106    0.0452736017919017    0.04773664344393901    0.0345894485748337    
  0.032990914961504955    0.028856277627591173    0.02364892544761605    0.018712910147910215    0.014818915803371292    
  0.012136364390703085    0.010485905400994188    0.00959308479359547    0.0091846102724197    0.009067775371723834    
  0.009184600045500271    0.009593078224559015    0.010485904445793804    0.01213635620047384    0.014818919892704301    
  0.018712909403769278    0.023648907922320706    0.028856289341189806    0.032990912679749476    0.0345894485748337    
  0.024695853638888043    0.023727115478525324    0.021188684727650443    0.017942415002873118    0.014818906384097358    
  0.01232825317874013    0.0106279077965351    0.009616588000107026    0.00910409905406097    0.008900045041803677    
  0.008850028007109453    0.008900059135949673    0.00910408624342083    0.009616595898569235    0.010627907945775132    
  0.012328256918119894    0.014818915306142103    0.01794240493033114    0.02118866666415036    0.023727107789026876    
  0.024695853638888043    0.018111892117410096    0.01754183633224369    0.01602187700655851    0.014046365335646516    
  0.012136365499539049    0.010627908586859742    0.0096408232984944    0.009114763665558027    0.00890871561904765    
  0.008877812027614155    0.00888884944989351    0.008877821063331941    0.00890870066970902    0.009114762571546125    
  0.009640819942212048    0.01062791594477725    0.012136359067102651    0.014046353865292816    0.016021878665748005    
  0.01754184242068654    0.018111892117410096    0.01412267642291722    0.013778406821125123    0.012852220962497432    
  0.01163875296028414    0.010485908440157994    0.009616593919544461    0.00911476091523385    0.008944713467930562    
  0.008981225349344004    0.009086816476164408    0.009138656843187635    0.009086810256467738    0.008981228242103734    
  0.00894471396604991    0.0091147697192112    0.009616595827407069    0.010485915307742384    0.011638748924413066    
  0.012852216296822093    0.013778404422496851    0.01412267642291722    0.01191704706832416    0.011694046202853851    
  0.011094465278757126    0.010311822070900374    0.009593084521449226    0.009104090248361842    0.00890870949013856    
  0.00898123792127741    0.009201281786821724    0.009409249127279171    0.009493249035179195    0.009409251493713631    
  0.009201276265409092    0.008981225023480343    0.00890871032974147    0.009104096621912201    0.009593085270857494    
  0.010311811765848932    0.011094472565803393    0.011694040736004281    0.01191704706832416    0.01084242088504295    
  0.010679395374951977    0.010241422884643721    0.009679341568743553    0.009184605438233396    0.00890005395050089    
  0.00887782270251931    0.009086804731972972    0.009409257736957907    0.009689431909766837    0.009797533712880203    
  0.00968942878375703    0.009409237757686456    0.00908680041634408    0.008877827012979215    0.008900051290197445    
  0.009184610212310767    0.009679331469873246    0.010241432321528908    0.0106793903338852    0.01084242088504295    
  0.010522415976840194    0.01037749847536128    0.009988582696330439    0.009494243236212077    0.009067773254729197    
  0.008850026585952107    0.00888882845956316    0.009138652642896018    0.00949324209627713    0.009797531834109821    
  0.009917711846626086    0.009797535536103854    0.009493230341432015    0.0091386492460215    0.00888883372504784    
  0.008850026465271513    0.00906777385577789    0.009494242534349306    0.009988577400227096    0.010377491760577439    
  0.010522415976840194    0.010842425552796985    0.010679397690025948    0.010241429577360513    0.009679331399321242    
  0.009184608376746672    0.008900050594918382    0.00887782595287476    0.00908680466329337    0.009409252680924227    
  0.00968942622650894    0.009797524238211733    0.00968944684939503    0.009409248838459639    0.009086807916284962    
  0.008877822763784618    0.008900056028790968    0.009184608781229783    0.0096793353242261    0.010241432561083072    
  0.01067939057431963    0.010842425552796985    0.01191704509928456    0.01169405108600122    0.011094472483669078    
  0.010311814530210038    0.0095930833047711    0.009104094682442847    0.008908705436792733    0.008981228289169026    
  0.009201283682487842    0.009409255273016387    0.009493243186477601    0.009409260698279938    0.0092012749901334    
  0.008981228669077947    0.00890870711074806    0.009104092970357419    0.009593087134795784    0.010311806716400106    
  0.011094466777685595    0.011694038289948005    0.01191704509928456    0.01412268191639525    0.013778404903556515    
  0.012852214597791827    0.011638754101470068    0.010485911159962474    0.009616598033044335    0.009114763912587698    
  0.00894471441151483    0.008981229085245202    0.009086808791126624    0.009138660854869193    0.009086813985615845    
  0.008981225568639168    0.008944717590387488    0.009114771447076512    0.009616597849812874    0.0104859076171521    
  0.011638751870041429    0.01285222514936306    0.013778402631186727    0.01412268191639525    0.01811189065583438    
  0.017541838141226288    0.016021866508372323    0.014046362923824838    0.012136353512786186    0.010627909794872869    
  0.009640821967301575    0.009114764558804212    0.008908711113438286    0.008877825417123945    0.00888883605187215    
  0.008877816884432819    0.008908706792752373    0.00911477239868636    0.00964081977992189    0.010627914789125531    
  0.012136360491694797    0.014046360474935793    0.016021884795500298    0.01754183924106504    0.01811189065583438    
  0.02469585455538249    0.023727117304634754    0.02118866905340472    0.017942421210029848    0.014818906979806208    
  0.01232825466672128    0.010627903765949949    0.00961659076348475    0.009104096362724537    0.00890004645594628    
  0.00885002952276601    0.008900053021625526    0.009104081267255652    0.009616599157002347    0.010627908874764893    
  0.012328249755710414    0.014818922913072541    0.017942403855533078    0.02118867159218754    0.02372710659510001    
  0.02469585455538249    0.03458944559994811    0.03299089850996995    0.028856283014913473    0.02364891275793283    
  0.018712908524224775    0.014818926368817906    0.012136361694640139    0.010485906819455198    0.009593086169463019    
  0.009184607967362732    0.00906777538194715    0.00918461058460379    0.009593077928939113    0.010485912013528357    
  0.012136355430355959    0.014818914211093989    0.01871291193618785    0.02364890715777226    0.02885630540560451    
  0.03299090726860294    0.03458944559994811    0.04773667053672049    0.04527359443616974    0.038931541998495425    
  0.031021325016329516    0.02364892518031357    0.017942418556278594    0.014046359552108449    0.011638751670552928    
  0.010311810778769893    0.009679343151791395    0.009494250404378846    0.009679341162977436    0.010311811337295996    
  0.011638752613691163    0.014046362945441284    0.017942416305296537    0.023648920918188193    0.03102131245561456    
  0.038931543345322485    0.04527360847661359    0.04773667053672049    0.06221817380212675    0.05876128050671041    
  0.04989755061263897    0.038931543916925625    0.028856294948183522    0.021188688567934003    0.016021879531496558    
  0.012852220312838742    0.01109446418740896    0.010241437211748179    0.009988590233179453    0.010241434998993637    
  0.011094471436197647    0.012852217531248211    0.016021877427407485    0.021188690505590146    0.028856289608345017    
  0.0389315289663689    0.04989755605607836    0.05876129623244595    0.06221817380212675    0.0740269898079343    
  0.06973155801353192    0.058761307978137424    0.04527362131281413    0.03299089522807027    0.02372711904827514    
  0.01754181898081826    0.01377840177334956    0.01169404599388859    0.010679394594411905    0.010377493180074679    
  0.010679385576187096    0.011694039743585053    0.013778406937252506    0.01754182227076526    0.02372710711040571    
  0.03299090751210265    0.045273588871704594    0.05876130124896204    0.06973154535282765    0.0740269898079343    
  0.07865104202716082    0.07402694988254359    0.06221814766130355    0.04773668324575563    0.034589419221904345    
  0.02469585750182018    0.018111876802343087    0.014122677406173774    0.011917050768054287    0.010842414949329431    
  0.01052242050515394    0.01084242354648525    0.011917033838480747    0.014122674627007718    0.018111878831231505    
  0.024695847673221454    0.034589434046137346    0.047736649438059116    0.06221816620269897    0.07402697040079875    
  0.07865104202716082    0.10066979321458001    0.09436363760715512    0.07832006101547156    0.05879150577045876    
  0.04130402209733426    0.028409149082242503    0.02005655461123535    0.015116234032002374    0.012407768128099388    
  0.011093528858791439    0.010705671487756837    0.011093538890508545    0.012407752088357319    0.01511623443831021    
  0.020056562020928165    0.028409152513301825    0.041304024684006194    0.05879147146914767    0.07832003429438311    
  0.09436367669949748    0.10066979321458001    0.0943636386083921    0.08852416130324285    0.0736594289775907    
  0.05553893515411139    0.03926277296168829    0.027211549976846845    0.019373656526225604    0.0147175909847945    
  0.012158829726846461    0.010916996432756893    0.010551601055383593    0.01091699231208364    0.012158822971018427    
  0.014717597369181925    0.019373656827476247    0.027211563931146824    0.039262775171688524    0.0555389227638249    
  0.07365944387020802    0.08852415522736874    0.0943636386083921    0.07832007176648771    0.0736593937791031    
  0.06176233185836247    0.04718057329467199    0.033964520624626134    0.02407325525751561    0.017566388611252315    
  0.01366231776922204    0.01150635981284042    0.010461936484685427    0.010155317935603878    0.010461932558463708    
  0.011506363466755072    0.01366232080790346    0.017566401255288494    0.024073266216874983    0.03396451470157552    
  0.04718053823805351    0.061762348365010794    0.07365942284476497    0.07832007176648771    0.0587914864286467    
  0.05553892588580997    0.04718053674485187    0.03682551672957483    0.027308799311989988    0.020072315943558485    
  0.015235797828804763    0.012299442247443325    0.010676748418502234    0.00990033989959666    0.00967510768907279    
  0.009900336903423792    0.010676746460657251    0.012299449864081156    0.015235814418219695    0.020072304595370686    
  0.027308801519763174    0.03682549767767486    0.04718056552591161    0.05553893619530059    0.0587914864286467    
  0.0413040425464347    0.03926280008459876    0.033964509430845044    0.027308805847709304    0.02108792092819504    
  0.01627125973658291    0.013004546340290848    0.011011553730793051    0.00992792054184057    0.009425838375102292    
  0.00928397017480567    0.009425832700303016    0.009927914469952951    0.011011549595470514    0.013004540222922849    
  0.01627126581636524    0.021087934053700977    0.027308776641244266    0.03396451641640837    0.03926278880286353    
  0.0413040425464347    0.02840914829314996    0.027211571174607638    0.02407325125008108    0.020072314889484084    
  0.016271255079104513    0.013286772832897573    0.011258914560060049    0.010052766033233903    0.009439016840396228    
  0.009186999672158358    0.009124028288340883    0.009187007608887021    0.009438996178899737    0.010052772774520822    
  0.011258918280599302    0.013286770459362865    0.01627126702453866    0.020072304090106758    0.024073237539510517    
  0.027211554973962878    0.02840914829314996    0.02005657324238129    0.019373665200334764    0.017566400704286455    
  0.01523580325048914    0.013004538018275162    0.011258914199973467    0.010118954873472898    0.009512063851502068    
  0.009279462179908882    0.009242105845374396    0.009248687849136085    0.009242104299030614    0.009279451804003863    
  0.009512064197919088    0.01011895218210266    0.011258921373998127    0.013004544057330996    0.015235795253940365    
  0.017566398619995417    0.01937367044750257    0.02005657324238129    0.015116236676394874    0.014717601266723095    
  0.013662315539009427    0.012299446784900485    0.011011557243044817    0.010052776006995102    0.009512065176626425    
  0.009343583445178444    0.009411559638632523    0.009546912321153582    0.00961157895233236    0.00954691201409342    
  0.009411563551627066    0.009343579085582032    0.009512071911581028    0.010052780755246698    0.01101156027142991    
  0.012299444453187551    0.013662320812415222    0.014717594467157973    0.015116236676394874    0.01240776808246195    
  0.012158833805497054    0.011506361855202644    0.010676756275765064    0.009927920883946848    0.00943900356337257    
  0.009279467058975636    0.00941155610221483    0.009699840345034485    0.009971362429406983    0.01007952949165612    
  0.009971356557519916    0.00969983149187486    0.009411556138534638    0.009279460036600679    0.009439008141183008    
  0.009927923515168899    0.010676746007807611    0.011506366220246209    0.01215883291074416    0.01240776808246195    
  0.01109353642645611    0.010917002766525182    0.010461921040419413    0.009900339119961703    0.009425829191949982    
  0.009186999619757604    0.009242110960612011    0.00954689263570875    0.009971372710929677    0.010330043512477302    
  0.010470419919836783    0.010330044920532057    0.009971360833051625    0.00954689215181679    0.00924211178472448    
  0.009187003570805992    0.009425836066810267    0.009900329397753368    0.010461927127789027    0.010916997305015825    
  0.01109353642645611    0.010705668800543886    0.01055160232364256    0.010155315739875373    0.00967509874768016    
  0.00928396237781196    0.009124033069940859    0.009248666728577127    0.009611563899388524    0.010079528900284698    
  0.010470411532416088    0.010621363041097912    0.010470421853753015    0.010079524980713862    0.00961156252787101    
  0.00924867948114828    0.009124035693863993    0.00928397036212339    0.009675102730990712    0.01015530765458638    
  0.010551602419363358    0.010705668800543886    0.01109353634299684    0.0109169996353546    0.010461930194256716    
  0.00990033058425074    0.009425835247982026    0.009187006086693438    0.009242110572167223    0.009546897257722422    
  0.009971363409146854    0.01033005944850786    0.010470427092884144    0.010330049443172897    0.00997135886731267    
  0.00954690518472374    0.009242111476036121    0.009186999665644695    0.009425837087484847    0.009900334594482167    
  0.010461926137036552    0.010916998253810728    0.01109353634299684    0.012407766793454544    0.012158841652039405    
  0.011506360135793162    0.010676754819438994    0.009927921648917922    0.00943900417336399    0.009279456313856028    
  0.009411563065366373    0.00969983329704603    0.009971368492794631    0.010079523843491521    0.009971377411299012    
  0.009699823840439423    0.009411559443747657    0.009279462870089449    0.009439011566445452    0.009927928079536736    
  0.010676744512412874    0.011506362534985182    0.012158825451464197    0.012407766793454544    0.015116243637846949    
  0.014717596680677982    0.013662320583396134    0.01229945356457922    0.011011548960256563    0.010052783113266111    
  0.009512065840547269    0.00934358754291803    0.00941155940428406    0.00954690536233039    0.009611561478141335    
  0.00954690741286942    0.009411555089271127    0.009343588745374613    0.0095120685611645    0.010052771810727768    
  0.011011551290157453    0.012299451160210053    0.013662326350713584    0.014717589609406894    0.015116243637846949    
  0.020056567791899304    0.019373668228435698    0.01756639536374962    0.01523580534317644    0.01300454152531989    
  0.011258921859404273    0.010118953783846973    0.009512067585199208    0.009279466674853673    0.00924210794120192    
  0.00924868321893557    0.009242103810715632    0.00927945495636935    0.009512067827092869    0.010118952815312065    
  0.011258921748940135    0.013004539845549213    0.015235794971730617    0.01756640813261093    0.019373665677812946    
  0.020056567791899304    0.028409149958275    0.027211570774044288    0.02407323267926905    0.02007231455117284    
  0.016271251798986208    0.01328677874990084    0.011258907075513717    0.010052771447355568    0.009439011004274907    
  0.009186997929138638    0.009124028655149127    0.009187007032612243    0.009439002303020168    0.010052781030861631    
  0.011258915206790857    0.01328677523929754    0.01627125377046393    0.020072299427904106    0.02407324993356211    
  0.027211557448255954    0.028409149958275    0.04130403505158763    0.03926278854658077    0.03396451879403405    
  0.027308795389108936    0.021087930290139365    0.016271268385329007    0.013004545754862802    0.011011550051363792    
  0.009927926149185019    0.00942583579578575    0.009283968450806868    0.00942584017807072    0.009927916651790146    
  0.011011549402410548    0.01300453789349735    0.016271263186957687    0.02108793132467642    0.0273087970440677    
  0.03396452891136035    0.03926278261448396    0.04130403505158763    0.05879147041999202    0.055538933106213696    
  0.04718055454588148    0.03682551824764209    0.027308809289095317    0.020072307569829764    0.015235800772073288    
  0.012299448805100076    0.010676745484085984    0.009900338710107252    0.009675101696425237    0.009900338490788401    
  0.01067674656698979    0.0122994502549394    0.015235808021379705    0.020072307670304324    0.027308810410128552    
  0.03682549093517173    0.04718058111543241    0.055538952744952415    0.05879147041999202    0.07832008990775567    
  0.0736594056712744    0.06176230795040896    0.04718057012425925    0.03396452094382296    0.02407324999238805    
  0.017566398835293207    0.013662321729390267    0.011506356497074592    0.010461937354090907    0.010155318676533439    
  0.01046192848065993    0.011506361387557004    0.0136623160093451    0.017566398133721448    0.02407325812005035    
  0.03396452377186925    0.04718054675049745    0.06176234260464927    0.07365941758434837    0.07832008990775567    
  0.0943636479345003    0.08852418438343798    0.073659424197561    0.055538928553489755    0.039262768196767904    
  0.02721156736307378    0.019373657030602835    0.014717591067177611    0.012158835758038842    0.010917003247636992    
  0.010551597441029698    0.010916991543062174    0.012158826283054633    0.014717595429777328    0.019373652593980613    
  0.027211563306680585    0.039262784856997114    0.05553891412029795    0.07365941746126843    0.08852416872577827    
  0.0943636479345003    0.10066979321458001    0.09436363760715512    0.07832006101547156    0.05879150577045876    
  0.04130402209733426    0.028409149082242503    0.02005655461123535    0.015116234032002374    0.012407768128099388    
  0.011093528858791439    0.010705671487756837    0.011093538890508545    0.012407752088357319    0.01511623443831021    
  0.020056562020928165    0.028409152513301825    0.041304024684006194    0.05879147146914767    0.07832003429438311    
  0.09436367669949748    0.10066979321458001    0.18215233746542475    0.16955249868368738    0.13735458546083118    
  0.09851025893339532    0.06472116784231341    0.040892497882142    0.026301980570820893    0.01813871795131506    
  0.01384031453021956    0.011805650905855183    0.011215377220500092    0.011805657840446997    0.013840299778177167    
  0.018138721941000996    0.02630197989034673    0.04089250080083416    0.06472118534429147    0.09851022576220457    
  0.13735458445292187    0.16955255109771827    0.18215233746542475    0.16955251011641312    0.15787902810748822    
  0.12811966813040984    0.09226028614959948    0.061006761008194535    0.03886473482427948    0.025238672128612517    
  0.01758366721600994    0.013535843477531307    0.011615617926298479    0.011057230455204948    0.01161561421035676    
  0.013535842699503092    0.01758367920356605    0.025238670571701812    0.038864731262887496    0.06100675675441042    
  0.0922602572889025    0.12811969537770304    0.15787908062216766    0.16955251011641312    0.13735456256143586    
  0.12811967724519455    0.1046281769041807    0.076302034967882    0.05144628316617489    0.03361098341208614    
  0.02247820616428262    0.016141271166259352    0.012753118193735069    0.011138485258869272    0.010669409737149112    
  0.011138482333084097    0.012753114666643334    0.016141271975504377    0.02247821099784192    0.03361099669823676    
  0.05144627172454831    0.07630200558318177    0.10462820174307817    0.1281196811158369    0.13735456256143586    
  0.09851024536613387    0.09226028043691104    0.07630201748850104    0.05689275007130449    0.039631630455470676    
  0.027026656278722052    0.01898854236235685    0.014322883174953732    0.011798685839822158    0.010592182640233058    
  0.010243528078717213    0.010592181501793628    0.011798687577154932    0.014322887698093775    0.018988554267952717    
  0.0270266508576544    0.0396316481642084    0.056892711354720384    0.07630205868230573    0.09226032404606252    
  0.09851024536613387    0.06472119615303905    0.06100677496963288    0.051446276999044055    0.03963164571881126    
  0.02892232373665222    0.020934910555126997    0.01571863188358466    0.012642133459311767    0.010984011665776833    
  0.010206763533879995    0.009987403944908586    0.010206758083662365    0.010984004796485843    0.012642139703900934    
  0.01571862945538702    0.020934919258731467    0.028922327989530358    0.03963162378430598    0.05144627106753872    
  0.06100678164868381    0.06472119615303905    0.04089249859211229    0.038864752051920144    0.03361097827314811    
  0.0270266556859636    0.02093490208382643    0.0162997890109748    0.01323215490784738    0.011441829866002286    
  0.010539826056096371    0.01015998202600497    0.010061794048141406    0.010159986758844988    0.010539811481253328    
  0.011441835190278195    0.01323215725560326    0.016299797914416516    0.020934911251566907    0.02702663770142028    
  0.03361097379294805    0.038864725454329556    0.04089249859211229    0.026301989314159127    0.02523868706183259    
  0.022478209069386072    0.01898854870536074    0.01571862795482392    0.013232160952000185    0.01164525631670603    
  0.010830278783000132    0.010550036742019512    0.010519194117121832    0.010531628611566524    0.010519193542507514    
  0.010550035979297948    0.010830276484531746    0.011645246394134237    0.013232164522406989    0.01571863128460803    
  0.018988540491407982    0.02247821125018345    0.02523868494960877    0.026301989314159127    0.01813872631945336    
  0.017583675984989906    0.01614127233747272    0.014322887229297369    0.012642141706847281    0.011441838504502812    
  0.010830270916644449    0.010725627121015402    0.010938056710281776    0.01121243433312555    0.011330726468506915    
  0.011212429266178226    0.010938066595553525    0.010725624694650139    0.010830287290017782    0.011441838571065541    
  0.01264214553439656    0.014322885451575588    0.01614126947840589    0.017583680547998803    0.01813872631945336    
  0.0138403148434618    0.013535851658649034    0.012753122580968914    0.011798693870284392    0.010984008371130616    
  0.010539818846439413    0.01055004367958271    0.010938069029367864    0.011520102856689344    0.012041547316190157    
  0.012252586933022292    0.012041541604159272    0.011520082790371259    0.010938061308573463    0.010550040011981319    
  0.010539829022498096    0.010984011973768347    0.011798691167243466    0.01275312084622095    0.013535847875289716    
  0.0138403148434618    0.011805660139088044    0.011615621925062821    0.011138468277226659    0.010592177395960474    
  0.010206758684972641    0.01015999052644998    0.010519196895542768    0.01121240931423216    0.012041554032113091    
  0.012722932223709947    0.012986856308154767    0.012722937934117292    0.012041540893490887    0.011212426517500228    
  0.010519195989760912    0.010159989876830595    0.010206759472572682    0.010592168249909899    0.011138477672126248    
  0.011615623120720077    0.011805660139088044    0.011215370448618115    0.011057229855301783    0.010669405341903247    
  0.010243520270421712    0.009987392744536238    0.010061796795074126    0.010531616177396454    0.011330736456606792    
  0.012252580352078761    0.012986839549199714    0.013264317100846815    0.012986859161791035    0.012252563471288091    
  0.011330734291720379    0.010531631445058332    0.010061795447063728    0.009987403687181191    0.010243519429119774    
  0.010669397854517424    0.011057231244946553    0.011215370448618115    0.011805658131874756    0.011615625413493027    
  0.011138475239714245    0.010592170249031628    0.010206761936924864    0.010159993325843199    0.01051920206664532    
  0.0112124250862406    0.012041559521548107    0.012722934445482066    0.012986852528597239    0.012722933926594692    
  0.012041539653315537    0.011212429669509737    0.010519200426066688    0.010159985710259898    0.010206762904858899    
  0.01059217482874182    0.011138475616735642    0.011615621676501842    0.011805658131874756    0.0138403099934581    
  0.013535857626325507    0.012753121711666943    0.011798692604421604    0.010984011163892938    0.01053981937800235    
  0.01055003550247609    0.010938071716379567    0.011520098796915706    0.01204154338342735    0.01225258506691285    
  0.012041545277222294    0.011520092269504012    0.010938063767696174    0.010550043454252263    0.010539816017829341    
  0.010984020240526313    0.011798682523493293    0.01275311726186879    0.013535841415417594    0.0138403099934581    
  0.01813872799404944    0.017583679448054303    0.01614126871864817    0.014322892251281978    0.012642146195265028    
  0.011441845717024168    0.010830279520663793    0.010725629629537384    0.010938074060113042    0.011212424193500423    
  0.011330732625374876    0.011212423028233422    0.010938067672816106    0.010725629749544066    0.010830280929579104    
  0.011441840024433157    0.01264214648013377    0.014322892167919002    0.016141278318950722    0.017583674865328282    
  0.01813872799404944    0.026301999876745853    0.025238688234916984    0.022478205536024736    0.018988553035899174    
  0.015718629233441042    0.013232164600176205    0.01164525420902631    0.010830276298391625    0.010550045350367568    
  0.010519193239200753    0.010531631168283529    0.010519193537259509    0.01055003715338755    0.010830282099826364    
  0.011645249661316887    0.013232163481448641    0.015718625291823708    0.01898853981034198    0.02247822192016523    
  0.02523868388863636    0.026301999876745853    0.040892500362383954    0.03886474797960573    0.03361098161637514    