#     DFTpy    
  CRYSTAL 
    
  PRIMVEC    
  5.234657707087228    4.1752662256000004e-07    6.89299856e-07    
  4.1752672176e-07    5.23465950216647    6.9683866936e-07    
  6.8929994416e-07    6.9683868536e-07    5.2346591393327255    
  PRIMCOORD    
  16    1    
  Si    0.7724274827518629    4.462231187202434    1.844902348217244    
  Si    4.462230591565821    0.7724291446594461    3.3897560405651674    
  Si    0.7724282696406192    0.7724284629432837    0.7724287347881208    
  Si    1.8449050578737176    1.8449058240239176    1.8449056312704561    
  Si    4.462229322211929    1.8449024769537457    0.7724278688780267    
  Si    0.7724273101296469    3.389758982005122    4.4622311463782545    
  Si    1.8449017861775399    0.7724293030248922    4.462231567611291    
  Si    3.389755850100063    4.462232397404847    0.7724279317715973    
  Si    3.3897555856219745    1.8449061320904574    4.462234005717667    
  Si    1.8449031511244223    3.3897543839928437    0.7724253919314439    
  Si    3.3897538495187636    3.3897569878651206    3.3897559688691543    
  Si    4.46223073982911    4.462233206092599    4.462232229126566    
  Si    1.844905263080891    4.462235575538825    3.389756153787272    
  Si    3.3897530748104097    0.7724251051596502    1.8449038546741312    
  Si    4.462232611268765    3.389756509213099    1.8449057553543569    
  Si    0.7724253309476364    1.8449044887423325    3.3897543401701222    
  BEGIN_BLOCK_DATAGRID_3D    
  3d_datagrid_density    
  BEGIN_DATAGRID_3D#0    
  23    23    23    
  0.0    0.0    0.0    
  5.234657707087228    4.1752662256000004e-07    6.89299856e-07    
  4.1752672176e-07    5.23465950216647    6.9683866936e-07    
  6.8929994416e-07    6.9683868536e-07    5.2346591393327255    
  0.31159959389770553    0.31680498143544195    0.33419983285226895    0.36558300900984086    0.40443995393585846    
  0.4327061509912774    0.4327074954651914    0.4044388002460874    0.36558492901614154    0.3341990837404852    
  0.31680739158794385    0.3115989459205429    0.3168077398714168    0.3341993390013986    0.3655858818664361    
  0.40443945590832653    0.43270899279720837    0.4327067178822512    0.4044409784277181    0.36558338329933543    
  0.33420021457602345    0.31680507288829024    0.31159959389770553    0.31680497233745253    0.3503469332467652    
  0.3987432660331916    0.46972483615327953    0.5600446444263439    0.6306412038561077    0.6306396614203607    
  0.5600464788255813    0.46972396763272917    0.39874552267473773    0.350346194288287    0.31680744277841105    
  0.29454668606046785    0.28364067108280705    0.2840157095238726    0.29157144096427745    0.29887619071601773    
  0.2988776315546413    0.29156958710547254    0.2840169162577128    0.28363849217619436    0.2945474422448618    
  0.31680497233745253    0.33419979457124227    0.38471986089529464    0.450353821885261    0.5505849920112931    
  0.6962939393178794    0.8237941593308711    0.823795655771872    0.6962927867179705    0.5505870124041424    
  0.4503530110686295    0.3847219928935211    0.3341989696801735    0.2939749629536634    0.2651433751565172    
  0.24872655016304182    0.2425687605109829    0.2421713813472928    0.24217001549762282    0.24257019164708002    
  0.24872504896177622    0.2651445710145393    0.2939728608723001    0.33419979457124227    0.3655830207689947    
  0.4178911551618264    0.4805437211333865    0.5851979030921661    0.7576206026535802    0.9211183693375755    
  0.9211169393499127    0.7576222450062025    0.585196516652167    0.4805457117723113    0.4178901141778941    
  0.3655850354529994    0.31900761156799695    0.2840884218235979    0.2640646559535929    0.2562436822412494    
  0.2552680434586454    0.255269372498856    0.2562424157583494    0.2640660514577421    0.28408685198591305    
  0.3190086876109862    0.3655830207689947    0.404439871379831    0.4451556277408745    0.4939984371599211    
  0.5829991464847194    0.7346923104647707    0.8784881907871941    0.8784896755516589    0.7346908347735347    
  0.5830007293309218    0.4939973857345925    0.44515767554479607    0.40443885363940424    0.3664013580260424    
  0.339380743181732    0.3293798214987236    0.3332297745450891    0.3408661585427561    0.3408643575077432    
  0.33323129107627    0.3293781419637433    0.33938215699213464    0.36639935467253476    0.404439871379831    
  0.4327060045126542    0.44960843999776673    0.47624223149800177    0.5332495946838206    0.6282328558760344    
  0.7136869651818297    0.7136856053406264    0.6282343800933519    0.5332486080731966    0.4762443072960937    
  0.4496076461784843    0.4327085746208352    0.4190645805621936    0.41563502646734585    0.433083494628135    
  0.4705064862190847    0.5047180581550739    0.504719409616443    0.4705042430731491    0.43308455380423955    
  0.41563274984806065    0.41906545806769796    0.4327060045126542    0.4327077480800968    0.41906417534005436    
  0.4156345087758328    0.4330835830367077    0.47050644875790454    0.5047186203021985    0.5047201450748225    
  0.47050537607998305    0.4330854770507459    0.4156341965933557    0.4190669117416832    0.4327073001682753    
  0.449609714215002    0.47624269363590266    0.5332505483835894    0.6282328332087708    0.7136877451448012    
  0.7136848841978233    0.6282336998625127    0.5332472653401549    0.4762434078044293    0.44960674416344265    
  0.4327077480800968    0.4044386819317548    0.36640123369140026    0.3393810030567212    0.32937989291224606    
  0.33323057433136993    0.34086654444358777    0.3408656008855667    0.33323202745113684    0.3293794478546654    
  0.33938355818550625    0.366401238232607    0.404442048788085    0.4451570918344606    0.4939998856698826    
  0.5829995492100054    0.734694066415464    0.8784891400353271    0.8784903071249419    0.7346899004624518    
  0.5830001896632963    0.49399661412138823    0.44515720666764197    0.4044386819317548    0.36558488721366666    
  0.31900769536510426    0.28408827241071605    0.2640650480018685    0.25624388034330153    0.255268649401998    
  0.2552697844127576    0.2562434884448829    0.2640672112153511    0.28408883959984854    0.31901097637950115    
  0.3655855000247647    0.41789364371659377    0.4805448913323812    0.5851994346043303    0.7576217995479428    
  0.9211217803334262    0.9211182576142878    0.7576229093817303    0.585196103201959    0.4805453836691005    
  0.4178898336778776    0.36558488721366666    0.3341989897247136    0.29397465893576763    0.265143408120786    
  0.24872624835966667    0.242569140236465    0.24217147993809082    0.2421708008847322    0.24257098458434867    
  0.24872680178884868    0.26514664773710844    0.2939757997031225    0.33420310158576283    0.3847227571931508    
  0.45035663213360466    0.5505868815319687    0.6962973428080008    0.8237972744205934    0.8237991044263993    
  0.696293790419777    0.5505876105903492    0.4503528318817054    0.3847219667427787    0.3341989897247136    
  0.3168070422183775    0.2945465261857187    0.28364011611505063    0.28401556557180097    0.29157111977492195    
  0.29887689540904583    0.29887822313547807    0.29157128788800113    0.28401873996076243    0.28364143641927914    
  0.2945507511803767    0.3168087368635764    0.3503507692166    0.39874653282505934    0.4697285876357413    
  0.5600481103577222    0.6306454310396249    0.630642388405795    0.560048614854117    0.469724751503621    
  0.3987459023456158    0.35034616384397854    0.3168070422183775    0.3115986778435439    0.3168069797722133    
  0.3341989948055011    0.36558507878936275    0.40443966242569895    0.4327088987239462    0.43270806647552684    
  0.4044422692926065    0.3655860461203316    0.33420332233772315    0.3168088971930275    0.3116034398521783    
  0.31680879867395045    0.33420340867767667    0.3655860617607822    0.4044432163504546    0.4327087371305095    
  0.43271004509548977    0.40444019131153913    0.36558603246857324    0.334199271444829    0.31680724998186255    
  0.3115986778435439    0.31680709377327376    0.35034617046004307    0.3987454173081935    0.469724408575627    
  0.560047452014177    0.630641446417198    0.6306429649929417    0.5600469699068338    0.469727390594271    
  0.3987465287153042    0.3503506707084522    0.31680884550471383    0.2945509936108867    0.28364126872587425    
  0.28401902608717144    0.2915712108055328    0.29887893472831695    0.29887693171106516    0.2915718004616573    
  0.2840160008586111    0.2836405367904809    0.29454660705437774    0.31680709377327376    0.33419898946553833    
  0.3847219698133893    0.45035278447937865    0.550587264024594    0.6962938230454092    0.8237973366053659    
  0.8237953125317691    0.6962947514548495    0.5505858325110804    0.45035596385494364    0.3847229136640938    
  0.33420337354935464    0.293975841936563    0.26514677615212745    0.2487265507194641    0.24257124945326025    
  0.24217069913396397    0.2421719129492366    0.24256912213048074    0.24872683798696962    0.2651436201227393    
  0.29397496395599215    0.33419898946553833    0.36558514766419165    0.4178899837710175    0.48054532013501255    
  0.585196617985957    0.7576228342202735    0.9211175895916289    0.9211186120814085    0.7576196744372008    
  0.5851973047279871    0.4805445340984962    0.41789352953540454    0.36558585334269267    0.3190114888866662    
  0.2840886267101399    0.26406748650982376    0.2562431037085687    0.25527001582076303    0.25526823053555026    
  0.25624419352814404    0.2640648944850174    0.28408871748709164    0.31900778998983703    0.36558514766419165    
  0.4044389490251242    0.4451574660170557    0.4939966553477888    0.583000466565024    0.7346905095833572    
  0.8784895899072488    0.8784873513810932    0.7346915539760234    0.5829984753405724    0.49399932995641493    
  0.4451574733589996    0.4044427933786185    0.36640163047952723    0.3393841194179779    0.32937920340894977    
  0.33323217580876147    0.3408648717848203    0.34086626526990915    0.3332299186217029    0.3293800787353829    
  0.3393809714713936    0.36640151997818055    0.4044389490251242    0.4327082952846539    0.44960695983092386    
  0.47624343657293544    0.5332474615380741    0.6282336805569221    0.7136845035914515    0.7136862342599998    
  0.6282319569747482    0.533249716746296    0.47624295663155    0.4496104328669855    0.4327080630252576    
  0.41906788573683745    0.415634145456479    0.4330860943227396    0.4705048301276746    0.5047202463097682    
  0.5047174607834102    0.47050629075837014    0.4330831149718745    0.4156350349674292    0.41906429624666447    
  0.4327082952846539    0.4327065067519885    0.4190661498955234    0.4156328983075841    0.43308458400313543    
  0.4705041987434021    0.5047189948652842    0.5047175854795805    0.4705059599744452    0.43308352102431363    
  0.41563545030619464    0.4190653443457557    0.4327096670743065    0.4496083408768796    0.47624525240793575    
  0.5332484454177089    0.6282346739587689    0.7136847992013782    0.7136870150288677    0.6282316998626786    
  0.5332497995630066    0.4762420492932124    0.4496091371162356    0.4327065067519885    0.40444065990124417    
  0.36639977603822854    0.3393824098193526    0.32937826593593267    0.3332312293294241    0.3408645021156615    
  0.34086586254080864    0.3332297598976889    0.3293798922676834    0.3393812913781136    0.36640230555953845    
  0.40443973067558736    0.44515884442249376    0.4939975097538828    0.5830014561264201    0.7346901878274735    
  0.8784903300134206    0.8784869183513982    0.7346925325791109    0.5829983085130404    0.49399906078491757    
  0.4451556394315672    0.40444065990124417    0.3655833144151105    0.3190093067703895    0.2840869290633127    
  0.26406612848368083    0.2562423058573691    0.2552691115935112    0.25526789505042163    0.2562435750428885    
  0.2640647531900759    0.28408883049502787    0.31900799329772384    0.3655860331499207    0.41789062967318247    
  0.4805464078719984    0.585196295172965    0.7576232443452408    0.921116843099898    0.9211194468738846    
  0.7576198937203606    0.5851982365849482    0.4805434510252864    0.4178917398241839    0.3655833144151105    
  0.33420028310309025    0.29397299741098726    0.26514459894410053    0.2487249152231702    0.24256980645155524    
  0.2421697251417634    0.24217085717165676    0.24256853987937443    0.24872636967161266    0.26514349079955213    
  0.293975205553954    0.3341993335551589    0.38472276254596827    0.45035313524571774    0.5505878805603631    
  0.6962930846465357    0.8237973133869559    0.823794346890351    0.696295050333864    0.550584817611439    
  0.4503544225272321    0.3847198016517255    0.33420028310309025    0.3168049735460064    0.29454759678724235    
  0.2836384180721223    0.28401643181147845    0.29156932680386094    0.29887703646474423    0.2988757400304282    
  0.29157068906853684    0.2840153520344135    0.2836403912536319    0.29454670813574446    0.3168076992774363    
  0.3503465311276616    0.39874638925180017    0.4697243977858169    0.5600481624938268    0.6306405689053011    
  0.6306426605360976    0.5600449866584063    0.4697257719118933    0.3987432899797438    0.3503471880332001    
  0.3168049735460064    0.31159959389770553    0.31680498143544195    0.33419983285226895    0.36558300900984086    
  0.40443995393585846    0.4327061509912774    0.4327074954651914    0.4044388002460874    0.36558492901614154    
  0.3341990837404852    0.31680739158794385    0.3115989459205429    0.3168077398714168    0.3341993390013986    
  0.3655858818664361    0.40443945590832653    0.43270899279720837    0.4327067178822512    0.4044409784277181    
  0.36558338329933543    0.33420021457602345    0.31680507288829024    0.31159959389770553    0.3168051259635666    
  0.3503467525147599    0.38471977744966035    0.417890785985595    0.4451557032818973    0.4496082532091151    
  0.4190642351752641    0.3664009702842063    0.31900791276390333    0.29397496609253415    0.29454695064733144    
  0.31680770779941136    0.350346559029803    0.3847224846115524    0.41789027000698015    0.44515792509646046    
  0.4496074372902267    0.41906621551016104    0.36639990964852237    0.31900913335797426    0.2939730882135733    
  0.2945474522027214    0.3168051259635666    0.35034678314503387    0.3966442780079087    0.4288190689133834    
  0.4676346278052284    0.5372758702997842    0.6020413699969644    0.5925514558644112    0.5082066871625732    
  0.4097627632773214    0.3391033391091904    0.3029376369953671    0.29454697161506915    0.30293783281687797    
  0.3175365911590629    0.33108734830502917    0.335228888408873    0.324794135584882    0.3018991853394582    
  0.27685179070056076    0.26402285264489816    0.27213146616044925    0.30293540017749426    0.35034678314503387    
  0.39874332821040875    0.42881916697398087    0.4181746607801063    0.43209189762209815    0.539807397488954    
  0.702447198311128    0.7603346611077433    0.6585258018347301    0.5060416291684902    0.3879736035667358    
  0.3175366843599072    0.28364056618478645    0.2721307703549304    0.27114334596440565    0.2736428012733433    
  0.2731518585333182    0.2663478972135075    0.2551570250249667    0.24791369225369503    0.2559627237136047    
  0.2863018078901851    0.33910375311657076    0.39874332821040875    0.46972478134292733    0.4676346983583681    
  0.4049815674062825    0.38760856078891903    0.5052845024933829    0.7294303283079594    0.84789534801305    
  0.7470110590371027    0.5649632202941975    0.42016918407321663    0.33108705743987876    0.2840157031698478    
  0.26402438358841346    0.2598674010693204    0.26508934506379017    0.2726887191888189    0.27644657730558936    
  0.2757192757091606    0.2792162966311027    0.29937747851127233    0.3435846251900993    0.4097607365015747    
  0.46972478134292733    0.5600444516251359    0.5372759365226824    0.45211177926460916    0.4180237114763089    
  0.5193748009826434    0.7195547576374292    0.82191242675474    0.7267453618329779    0.5566597356558315    
  0.4197172992215641    0.3352290262938403    0.29157100576434364    0.27685061198848754    0.28287114506423866    
  0.30459945015872114    0.3336113879702105    0.35695304454432986    0.36610464724408137    0.37028592931111365    
  0.39052681696429087    0.43898597939927175    0.5082075137797227    0.5600444516251359    0.6306410799896088    
  0.6020411264650317    0.526686385169768    0.4887223471299044    0.5459037595931405    0.6545312768370789    
  0.6896551510903832    0.6085307243373627    0.485146645644793    0.3851540429667562    0.32479406705367947    
  0.2988763599849148    0.3019009450260191    0.33140069072014844    0.3860978881364643    0.4547196012919144    
  0.5076072558967997    0.5142762940574331    0.48831297043758576    0.4830541321489997    0.5259783132367829    
  0.5925496279249005    0.6306410799896088    0.6306396494573676    0.592551648217945    0.5259771506186898    
  0.4830557487199438    0.48831203500941456    0.5142781119181026    0.5076057867716405    0.45472076638361614    
  0.38609628385474515    0.33140203232176063    0.30189967321959815    0.29887794089587855    0.32479331482588814    
  0.38515632057323074    0.4851461170526855    0.6085335125423784    0.6896543505332936    0.6545324572729152    
  0.5459014098967891    0.48872272738326056    0.5266845412864319    0.6020425461610379    0.6306396494573676    
  0.5600463695282591    0.5082065264475003    0.4389875806764579    0.39052597736281847    0.3702875625299564    
  0.3661040054733014    0.3569546217650843    0.33361055878658685    0.30460104498771035    0.2828704422691844    
  0.27685265395663616    0.2915706288793543    0.3352315761931836    0.4197173170622346    0.5566632069266493    
  0.7267456920548505    0.821915810362347    0.7195526024291539    0.5193747503263417    0.4180210049763366    
  0.4521124591600821    0.537274217760177    0.5600463695282591    0.4697237289000514    0.4097626166270273    
  0.34358363305411554    0.29937889392690886    0.2792155888201763    0.27572082138959986    0.2764459440055796    
  0.2726906364876001    0.26508909412311016    0.2598698344280817    0.2640242555024467    0.28401847898101235    
  0.3310873732437472    0.4201727427039607    0.5649641998084101    0.7470158257729486    0.8478961573790489    
  0.7294321067037968    0.5052815462841561    0.3876083793861524    0.4049792928191752    0.4676359653507839    
  0.4697237289000514    0.39874531888786796    0.339103016694164    0.2863032151199456    0.25596182120183664    
  0.24791493358658942    0.2551563357890641    0.2663497278732405    0.2731517444109198    0.2736453621563196    
  0.2711436786929136    0.2721338766498476    0.28364118437486613    0.31754027078912267    0.38797460247098564    
  0.5060462736012596    0.6585275072725982    0.7603398538106265    0.7024465496312351    0.5398084506096609    
  0.4320896662290254    0.4181756804669142    0.42881796557989393    0.39874531888786796    0.350346008911926    
  0.30293719673010944    0.2721306826297721    0.26402412075046394    0.2768511555697603    0.3019010979079564    
  0.32479390570709593    0.33523151878298046    0.3310877062480275    0.31754007520859034    0.3029387099280467    
  0.29455082694234713    0.3029387188658558    0.3391073575467947    0.4097641937595803    0.5082116488618768    
  0.5925532047928239    0.6020448616409743    0.5372750261806455    0.4676365075309395    0.42881796965984187    
  0.3966462752259105    0.350346008911926    0.3168070091740363    0.2945466006325793    0.2939746629654337    
  0.31900813560447816    0.3664016720608744    0.41906564345269437    0.4496095674763147    0.44515750685585626    
  0.4178932066451    0.38472312389221996    0.35035068140544817    0.31680892266877725    0.29455099354780007    
  0.2939758899733159    0.31901169771987    0.3664018392061426    0.41906799187436744    0.44960839080153464    
  0.4451582869092934    0.4178902669516316    0.38472191801220346    0.3503460093994311    0.3168070091740363    
  0.29454645407927105    0.3029373138097631    0.3391031623208899    0.4097628070636771    0.5082073005102832    
  0.592552368425858    0.6020415669290649    0.537275356994072    0.467634134307172    0.42882033041745454    
  0.3966474140681985    0.35035073324151783    0.30293878622464054    0.2721341915153601    0.26402466444034883    
  0.2768533435450266    0.30190012895181234    0.32479477113481575    0.3352289370332534    0.33108714704635767    
  0.31753615804284996    0.3029371292774903    0.29454645407927105    0.28364018922526907    0.3175364334909787    
  0.3879732304260133    0.5060414457243081    0.6585257683539948    0.7603349179386574    0.7024453077482588    
  0.5398035610512988    0.4320878446196978    0.41817280549238156    0.42882070395541527    0.3987466287157821    
  0.33910721230945867    0.28630378310668975    0.2559643556996095    0.24791439514731037    0.2551576275844724    
  0.2663480293383882    0.2731518692237254    0.2736426559375037    0.2711430549982309    0.2721303674987823    
  0.28364018922526907    0.28401542606791047    0.33108683873356687    0.42016863382918557    0.564962938348627    
  0.7470104573508728    0.8478945281526081    0.7294275768864342    0.5052801329644213    0.38760369251113674    
  0.4049785193304874    0.46763478953755844    0.46972781516344225    0.4097636677393763    0.34358701573359185    
  0.2993786114693711    0.2792171036257521    0.27571959647616506    0.276446594866209    0.27268860608742096    
  0.26508913288427627    0.25986713525461896    0.26402410819298444    0.28401542606791047    0.29157093107196613    
  0.33522866993395134    0.41971695776715795    0.5566590448734825    0.726744607912216    0.8219113809232304    
  0.7195533131190531    0.519372226004061    0.41802105024127434    0.4521098224836525    0.5372768191759665    
  0.5600472026489379    0.5082108612762833    0.43898790364785667    0.39052839631863845    0.3702862164220282    
  0.36610506756692773    0.3569525198737392    0.3336111537985839    0.30459898898666027    0.2828709537376698    
  0.2768502574423386    0.29157093107196613    0.29887595981662396    0.3247939244905816    0.38515341139739984    
  0.48514612028581294    0.608529666122433    0.6896543403898746    0.6545304708222042    0.5459031775053842    
  0.48872144379450666    0.5266868319241422    0.6020425131283542    0.6306440729397947    0.5925522874354734    
  0.5259804749352311    0.4830551166961626    0.48831384236569675    0.5142765065462913    0.5076065027501095    
  0.4547185418346609    0.38609714145157603    0.33140002679771946    0.3019005316123068    0.29887595981662396    
  0.29887752516953714    0.3018991646035052    0.33140158417538956    0.38609554999163254    0.4547201534624376    
  0.5076044690174227    0.5142777210842043    0.48831144156365525    0.4830560614963703    0.5259776601899586    
  0.5925534012255325    0.6306413210796565    0.6020446349776348    0.5266853874955543    0.488724018323409    
  0.5459017827456651    0.6545329710976796    0.6896526326000406    0.6085316115583185    0.48514440101980255    
  0.3851552009645361    0.3247923683713245    0.29887752516953714    0.29156945600477935    0.2768518739946059    
  0.28286946841982086    0.3046004446869753    0.33360959061704654    0.3569539039685839    0.3661030445236148    
  0.37028700993685576    0.39052550714097894    0.4389882450371807    0.5082072429543416    0.5600478483227707    
  0.5372747203589375    0.45211283492742244    0.4180210898133029    0.5193756915135883    0.7195525425410481    
  0.8219138599467951    0.7267426525281733    0.5566606956276664    0.4197153620102338    0.3352301193918151    
  0.29156945600477935    0.28401681673255447    0.2640227456001001    0.2598684899127903    0.26508781756955324    
  0.272689744540699    0.2764448398799723    0.27572024367330006    0.2792147623433093    0.2993787886357657    
  0.3435837026927758    0.4097631752160872    0.46972423091759985    0.46763641014523777    0.4049787220508318    
  0.3876084059763813    0.5052816107374948    0.7294318941502769    0.8478931036964483    0.7470122119760674    
  0.5649608629169175    0.42017015008349157    0.3310851375383906    0.28401681673255447    0.2836385508339368    
  0.27213153303092474    0.2711414548082775    0.27364371265174503    0.2731501527281017    0.26634871512250174    
  0.25515541984122836    0.247914514683056    0.25596147572236094    0.28630340833473994    0.33910316804906515    
  0.39874593490488414    0.42881793006576985    0.41817563728413915    0.43208910009599083    0.5398083796936755    
  0.7024451107523362    0.7603367121467884    0.6585237156439214    0.5060428021213107    0.3879715083502283    
  0.31753742196682466    0.2836385508339368    0.2945474080438638    0.30293548180812724    0.31753711501268067    
  0.33108500385055484    0.3352296351729638    0.32479232266978386    0.301900055374152    0.27685034444261253    
  0.26402405299314946    0.2721306455210673    0.3029376747383923    0.35034641168179004    0.396646940622539    
  0.42881802549875747    0.4676364084658956    0.5372745535196728    0.6020435325866627    0.5925502524452049    
  0.5082082518708839    0.40976099894531365    0.33910409694699917    0.30293539222030874    0.2945474080438638    
  0.3168051259635666    0.3503467525147599    0.38471977744966035    0.417890785985595    0.4451557032818973    
  0.4496082532091151    0.4190642351752641    0.3664009702842063    0.31900791276390333    0.29397496609253415    
  0.29454695064733144    0.31680770779941136    0.350346559029803    0.3847224846115524    0.41789027000698015    
  0.44515792509646046    0.4496074372902267    0.41906621551016104    0.36639990964852237    0.31900913335797426    
  0.2939730882135733    0.2945474522027214    0.3168051259635666    0.3341998401323414    0.3987434844211108    
  0.4503536644048211    0.4805437644597584    0.49399807782324334    0.4762425338997694    0.4156342370588604    
  0.3393813914992789    0.28408846929416526    0.26514409076301515    0.2836407302402392    0.33419984795297347    
  0.39874617309831367    0.45035324838149077    0.4805456668984344    0.493996938067794    0.4762438883412977    
  0.4156331901608868    0.33938234004060547    0.2840870865537865    0.2651444531795563    0.2836387110193278    
  0.3341998401323414    0.38471998334570495    0.42881910597978073    0.418174833460546    0.4049812987681629    
  0.4521118854868645    0.5266862263022839    0.5259774443021227    0.43898761017089805    0.34358423533268173    
  0.2863035609527111    0.2721312620693163    0.29397540659036026    0.33910385749990896    0.38797406553601876    
  0.4201691903995417    0.41971739782502704    0.3851537410637649    0.33140164483885276    0.28286963099498386    
  0.2598685104089278    0.2711415747401966    0.3175370699585824    0.38471998334570495    0.4503536950393929    
  0.418174870883555    0.29792978934314696    0.23156589106727113    0.29469806892210215    0.47776987479018845    
  0.6081237842022088    0.5500343675672485    0.4176215583960896    0.31855479041135476    0.27114336391496396    
  0.26514409819514756    0.28630374821171395    0.31855453112267124    0.3455371302868088    0.3514067414393164    
  0.33316296257722405    0.30283795420116205    0.2798616873608922    0.2818568437507866    0.3185551090190542    
  0.38797161621479276    0.4503536950393929    0.5505847948464279    0.4320915712980896    0.23156579296114316    
  0.14354189397655592    0.20031551407299225    0.4225650828193472    0.6488461252049462    0.6289142374119487    
  0.4750155096307873    0.3455368604110646    0.27364323942031926    0.24872658032123082    0.25596199330014896    
  0.28185831685938995    0.31418845244878196    0.3381525050098413    0.3443463257625312    0.33709991006293955    
  0.3342892890817029    0.3571842968747211    0.4176197389187365    0.5060418901452978    0.5505847948464279    
  0.6962933342957932    0.5398071679169543    0.2946980993091249    0.18245611701219522    0.23605434163591865    
  0.45577753435310286    0.6681011620301541    0.641701464824647    0.4858328642762122    0.35140686997998843    
  0.27315165044675815    0.24256901323543947    0.24791499600112504    0.2798608455940506    0.3299861927487579    
  0.38320676490875566    0.4200218889185336    0.43099899479726334    0.4341736338928933    0.4670887085827576    
  0.5500348173696749    0.6585235503045551    0.6962933342957932    0.8237937811038375    0.7024466633069711    
  0.47776936180482676    0.3478419049127791    0.3831673144136446    0.5373944456679344    0.6403650764693664    
  0.5805450162315944    0.44652350918768774    0.33316270529803177    0.2663480121672145    0.24217121557601176    
  0.2551559555193653    0.3028395659390001    0.38250266096857766    0.47601682040217075    0.5398773829422546    
  0.5330563337267556    0.4884932046256766    0.49885377000815345    0.6081224204598774    0.7603355454529952    
  0.8237937811038375    0.823795476608613    0.760334370239298    0.6081235029034023    0.49885252041578415    
  0.4884942256354654    0.5330551653122675    0.5398777197020094    0.4760147707805334    0.3825029263321584    
  0.30283799894586844    0.25515680548002556    0.24217036766836658    0.26634965960576285    0.33316259238031953    
  0.44652622396808056    0.5805454314767686    0.6403675994333196    0.537393313969481    0.3831677636893195    
  0.34784064197138614    0.4777704713923527    0.7024454416609618    0.823795476608613    0.6962924885931249    
  0.658525373837326    0.550033689223588    0.4670899644316894    0.43417274424159297    0.431000210849938    
  0.4200207377639704    0.3832076546404225    0.32998502993199125    0.2798619367916321    0.24791425636105427    