#     DFTpy    
  CRYSTAL 
    
  PRIMVEC    
  1.8099672141131546    -3.13495517487788    0.0    
  1.8099672141131546    3.13495517487788    0.0    
  0.0    0.0    5.98323595876422    
  PRIMCOORD    
  4    1    
  Si    1.8099672141131546    1.044985058292626    0.37700070614375286    
  Si    1.8099672141131546    -1.0449850582926274    3.368618685525863    
  Si    1.8099672141131546    1.0449850582926263    2.614617273238357    
  Si    1.8099672141131549    -1.0449850582926272    5.606235252620467    
  BEGIN_BLOCK_DATAGRID_3D    
  3d_datagrid_density    
  BEGIN_DATAGRID_3D#0    
  17    17    27    
  0.0    0.0    0.0    
  1.8099672141131546    -3.13495517487788    0.0    
  1.8099672141131546    3.13495517487788    0.0    
  0.0    0.0    5.98323595876422    
  0.08530456607843931    0.09062052594812117    0.10896678434786468    0.14653887861066933    0.21184660629327182    
  0.3116394637774163    0.4365185273809327    0.548406067437842    0.5946187203696912    0.5484060627830334    
  0.4365186102343907    0.3116394526921782    0.21184661109520808    0.14653883916758986    0.10896674628899072    
  0.09062053894365996    0.08530456607843931    0.09062053176858267    0.09062153713392626    0.10245093923639619    
  0.1304824056291633    0.18232048470957057    0.2659814803985668    0.3797303772140549    0.49718498776190845    
  0.5731050054014549    0.5730928568823401    0.49713617817486844    0.3797619213788182    0.2659991574846303    
  0.18230632436418331    0.13048187728315994    0.10245300890426508    0.09062053176858267    0.10896677255441506    
  0.10245091556477842    0.10896840750520002    0.13048245708729084    0.17297159552164795    0.24388099816353065    
  0.34176743651002534    0.44076866001517306    0.5035252744368013    0.521838483921105    0.5035723006120735    
  0.44077753300700206    0.3417164800391935    0.24388710652508866    0.1729840714395395    0.13048192328724564    
  0.10896677255441506    0.146538878305564    0.13048238100366671    0.13048247294937423    0.14653524482815788    
  0.18232242943200364    0.2438854203985771    0.32792978299628633    0.4004021350908244    0.41479655209533167    
  0.39140107841328176    0.39138949053629407    0.4147859499714273    0.4004379934329245    0.32793815173790664    
  0.24388706677216287    0.18230637430546617    0.146538878305564    0.2118466546532925    0.18232047141481073    
  0.17297162434937152    0.182322452095593    0.21183445339246518    0.2659923173377283    0.34173829336313505    
  0.4004211570631843    0.3745331184998311    0.28800907854522967    0.24539740173602886    0.2880083508997182    
  0.37452633240502675    0.4004379986599955    0.34171652181457624    0.2659992107459259    0.2118466546532925    
  0.3116394449276831    0.26598148977170205    0.2438810457971317    0.24388545261227018    0.2659922610784936    
  0.31165160936334635    0.3797312967578697    0.44079440892170474    0.4148000167766629    0.28799040602524295    
  0.1888784128287945    0.18888504552169122    0.28800834437238976    0.41478583275654357    0.4407775801232061    
  0.3797619421598334    0.3116394449276831    0.4365185994087248    0.379730374385003    0.3417674019438694    
  0.3279297707841491    0.3417382441796378    0.37973129624657836    0.4365341971920102    0.49714966054596377    
  0.5035461413548027    0.39137606062449487    0.2454264424447754    0.18887844760750291    0.24539740070752017    
  0.3913894074733188    0.503572329059534    0.49713632436530003    0.4365185994087248    0.548405996161028    
  0.4971849397956835    0.44076870185385236    0.40040212139615355    0.4004210882857528    0.44079440116595175    
  0.4971496384491753    0.5484035330684899    0.5731178660416184    0.5218423711784304    0.3913761495708899    
  0.2879904059535083    0.28800905381062125    0.3914010573644924    0.521838556301519    0.5730928448931719    
  0.548405996161028    0.5946186704920926    0.573104997826881    0.5035253694344658    0.4147965940408045    
  0.3745330956096538    0.41480003415663647    0.5035462266487587    0.5731178511738346    0.5945999197531046    
  0.5731179141731534    0.5035462134347247    0.4147999601574774    0.37453312204899325    0.4147966092193199    
  0.5035253179881689    0.5731050158824719    0.5946186704920926    0.5484060416334676    0.5730927863887486    
  0.5218384830192365    0.3914010885383666    0.28800903477667034    0.28799042115043455    0.39137606296013355    
  0.5218424338569678    0.573117880858765    0.5484035992617768    0.4971496883845491    0.4407943618474066    
  0.4004210641400728    0.400402076647239    0.4407686117470867    0.49718498640636705    0.5484060416334676    
  0.4365185689706447    0.49713623809942514    0.5035724558665906    0.3913894973944063    0.24539738091975852    
  0.18887844392391612    0.24542650230162116    0.3913761022861987    0.5035461360062401    0.4971496552970261    
  0.43653423366947375    0.379731317958415    0.3417382422217539    0.3279298161082865    0.3417674054707186    
  0.37973043929945194    0.4365185689706447    0.31163948440337835    0.3797618926696797    0.44077756265519696    
  0.41478596292214104    0.2880083036730703    0.18888507307272992    0.1888784019065544    0.28799038290274037    
  0.4147999712772317    0.4407944139483172    0.37973135281928544    0.3116516045718705    0.2659922549867468    
  0.24388546013381446    0.24388100380222028    0.265981472653748    0.31163948440337835    0.21184662742370894    
  0.2659991564732572    0.34171647771404    0.40043801212693036    0.3745263396319691    0.28800831616961636    
  0.24539742591595454    0.28800903930366073    0.37453311278141704    0.4004211378428692    0.341738274069048    
  0.2659923026792344    0.21183440780783694    0.1823223983165535    0.17297162706311572    0.18232050645606643    
  0.21184662742370894    0.14653884826434901    0.1823063376250834    0.24388712243543792    0.3279381629035513    
  0.4004379714971959    0.4147859729817588    0.39138941390333903    0.3914010091212677    0.4147966139822183    
  0.40040218182002885    0.3279298158732634    0.24388548005505029    0.18232241223956325    0.14653521185467494    
  0.13048245715248474    0.13048240633789063    0.14653884826434901    0.10896678755254548    0.13048187262999197    
  0.17298409374455845    0.2438871133127822    0.34171649548222593    0.44077758507897563    0.5035723979804679    
  0.5218385645036399    0.5035253171142405    0.4407687033991996    0.34176740769756786    0.24388099344330344    
  0.17297160977431272    0.13048245078368634    0.10896839375354794    0.10245096555036252    0.10896678755254548    
  0.0906205421303889    0.10245299117704909    0.13048187626425256    0.1823063756180738    0.2659991471957489    
  0.37976191145490185    0.49713619489018507    0.5730929138596838    0.5731050717787307    0.49718501577370616    
  0.3797304676625636    0.2659815059390089    0.1823204921143337    0.13048240301644023    0.10245093972075735    
  0.09062155519754168    0.0906205421303889    0.08530456607843931    0.09062052594812117    0.10896678434786468    
  0.14653887861066933    0.21184660629327182    0.3116394637774163    0.4365185273809327    0.548406067437842    
  0.5946187203696912    0.5484060627830334    0.4365186102343907    0.3116394526921782    0.21184661109520808    
  0.14653883916758986    0.10896674628899072    0.09062053894365996    0.08530456607843931    0.08406549027617174    
  0.08913115530716516    0.1064929299575558    0.1418473193678827    0.20302752993787254    0.2957741570740028    
  0.41025522432740297    0.5116363233803936    0.5533097033376646    0.5116553216128625    0.4102402226934888    
  0.29576369421961907    0.20304753921929022    0.1418457108140779    0.10648947408328217    0.08913082590703192    
  0.08406549027617174    0.08913082599844435    0.0891307244780493    0.09946538739327607    0.12397622030694576    
  0.1691223829676952    0.24167599243095755    0.34090882207998646    0.4457656280542336    0.5159798137036986    
  0.5159546547692557    0.4457387805495536    0.3409353141741983    0.24168812247151553    0.16910009582361543    
  0.12397992658289761    0.09946806577638148    0.08913082599844435    0.10648948188038967    0.1012289038305936    
  0.10649255802504388    0.12398239291626517    0.15845928365482378    0.21611029756381606    0.2984494705542705    
  0.3913811782049479    0.4645362535470956    0.4917382101901112    0.46456728657258944    0.39138993255709154    
  0.29841954455544617    0.21610986900436263    0.15847736325213016    0.12397998628683007    0.10648948188038967    
  0.14184572062388384    0.12961528992786572    0.1296119739028832    0.14184200497964505    0.16912031087561483    
  0.2161084868186627    0.28405082718144464    0.3596645288641827    0.4143155504559528    0.4350491604231064    
  0.4350503890424626    0.41430208411207997    0.3596722357638798    0.2840678775748037    0.216109857988617    
  0.1691001193990161    0.14184572062388384    0.20304757738076792    0.1819038398809033    0.17524093134635643    
  0.18190914003247646    0.2030276049357562    0.2416818087283074    0.2984401718050263    0.35966486384625124    
  0.3923281769577193    0.38384729393348954    0.3718208912394505    0.38384154921946834    0.3923391112132212    
  0.3596722297512313    0.2984195350951036    0.24168818369865855    0.20304757738076792    0.2957636816526162    
  0.2655803092312792    0.25059874649314334    0.2506004710673033    0.26559940894795875    0.29577605693693143    
  0.34091434811988514    0.39139277195608285    0.41431706290975884    0.3838324585818103    0.3399225413557584    
  0.33992729663555504    0.38384151890549706    0.41430191544501144    0.39138993293142327    0.3409353294238548    
  0.2957636816526162    0.41024023191406006    0.3761390205618022    0.34928838665322426    0.33846546637525726    
  0.3492505236729178    0.37613239949030924    0.410253168207242    0.44575339638351946    0.4645434442624049    
  0.4350479507407123    0.3718328826276125    0.33992254751643347    0.3718209175822796    0.43505027432639637    
  0.4645672737709907    0.44573888084259644    0.41024023191406006    0.511655315870799    0.4843984000760929    
  0.4343652386822125    0.39075871451146615    0.39079423986504314    0.43438964433527344    0.48438063086990185    
  0.5116327889477262    0.5159877789568449    0.4917273078720374    0.43504806120990325    0.3838324977493863    
  0.38384724405852233    0.43504913613961715    0.4917382880901145    0.5159546859645348    0.511655315870799    
  0.5533096406705047    0.5503647818059827    0.4701494424181921    0.35627384886513397    0.3060910080147889    
  0.3562833750092972    0.4701502845405871    0.5504002578979741    0.5532854043051201    0.5159878167471159    
  0.4645435640719268    0.4143170715984505    0.392328172679263    0.4143155841418069    0.4645363427206429    
  0.515979840570023    0.5533096406705047    0.5116362730931057    0.5503665926309819    0.4741169810689342    
  0.2965157878428878    0.1775860564876286    0.17756335598344394    0.29651111234704086    0.4741037983487409    
  0.5504002568113593    0.5116327758256417    0.44575339786513907    0.3913927639524198    0.3596647902950733    
  0.3596644849523465    0.39138113583671497    0.44576558910502206    0.5116362730931057    0.41025525503242655    
  0.48436741325492993    0.4701730868832582    0.29651820289467806    0.1291647529714879    0.07969783896648452    
  0.12917601537913717    0.29651114333790224    0.4701502770025288    0.48438073439744744    0.4102532172726542    
  0.3409143519634597    0.298440122270626    0.28405084226848903    0.2984494577876552    0.34090888562914845    
  0.41025525503242655    0.2957741567051142    0.3761406137698494    0.4343791116940876    0.3562643423666191    
  0.17759296100721092    0.07968436848316333    0.07969782559336033    0.1775633353238578    0.3562833433163861    
  0.43438963167087014    0.3761324371219071    0.2957760218104207    0.2416817917460697    0.2161085134996593    
  0.2161103213184999    0.24167597519481973    0.2957741567051142    0.2030275479281903    0.26560847661316234    
  0.3492398358795698    0.39081678350849103    0.3060685524616729    0.17759298570938378    0.12916479860835403    
  0.1775860595433085    0.30609105397918934    0.39079429777398045    0.34925054552505863    0.26559942452342006    
  0.20302753762038694    0.1691203392390518    0.15845931272410976    0.16912241236911016    0.2030275479281903    
  0.1418473103007121    0.18189775312431408    0.2506062990654396    0.33845084161697275    0.3908167331549475    
  0.35626434784953165    0.2965181690507366    0.2965157160825422    0.3562738019832074    0.3907587754111576    
  0.3384654874425329    0.2506004475305143    0.18190910797631846    0.14184197018945935    0.12398239989576725    
  0.12397623772064427    0.1418473103007121    0.10649295226337062    0.12961367458918138    0.17524497944167444    
  0.250606333337413    0.3492398140253562    0.4343791274649562    0.470173111692122    0.47411698629435894    
  0.47014932724065756    0.4343651885520049    0.34928841903128705    0.2505986684386476    0.17524093527567478    
  0.1296119664132918    0.10649253852404722    0.09946540223522787    0.10649295226337062    0.08913117345812566    
  0.10122702018589695    0.1296136867447622    0.18189777016395378    0.26560847443875363    0.3761406053787466    
  0.48436749333752405    0.5503667008474867    0.5503648349043615    0.48439848947845465    0.3761390798559825    
  0.26558034548655124    0.18190386471613806    0.12961531910099294    0.10122892203950175    0.08913073935262308    
  0.08913117345812566    0.08406549027617174    0.08913115530716516    0.1064929299575558    0.1418473193678827    
  0.20302752993787254    0.2957741570740028    0.41025522432740297    0.5116363233803936    0.5533097033376646    
  0.5116553216128625    0.4102402226934888    0.29576369421961907    0.20304753921929022    0.1418457108140779    
  0.10648947408328217    0.08913082590703192    0.08406549027617174    0.08073318902435231    0.08513360055685922    
  0.09998312186054317    0.1296782497475479    0.18019304186387677    0.25514475036352896    0.3452768246201974    
  0.42332744796819566    0.4550350816641956    0.42335022869279904    0.3452518446827954    0.2551336616720375    
  0.18021862905551242    0.12967552989032083    0.09997877491597985    0.08513409663499683    0.08073318902435231    
  0.0851340930134861    0.08513329505758488    0.09324682412823307    0.11232687260793837    0.1470739310722518    
  0.2019596551366962    0.27565050945915    0.35293407055587    0.40500888214543357    0.40498246805307897    
  0.35292302020830973    0.2756731155144525    0.20196659559805566    0.14705149862312528    0.11233198301167904    
  0.09324883342463015    0.0851340930134861    0.09997879173258764    0.09630153498637592    0.09998266433173052    
  0.11233427627698116    0.13676277395877753    0.17742494444779933    0.2356207770511595    0.3035057260758255    
  0.3610147339006833    0.3839851934960605    0.36103277398626477    0.30351312286238274    0.23560139200847507    
  0.17742208283882052    0.1367809065649903    0.11233202137837964    0.09997879173258764    0.1296755532998056    
  0.12211150917279119    0.1221057991231983    0.12967293578136777    0.1470707557034654    0.17742161224882794    
  0.222650469408427    0.2786679699257442    0.33110726430384396    0.3621612218741807    0.36216691577357124    
  0.3310947297151524    0.278662377067176    0.22267120759956063    0.17742208442410426    0.14705151928929247    
  0.1296755532998056    0.18021864719144443    0.16886229019623775    0.16552603637052124    0.16886831019187193    
  0.18019722743678293    0.20196258526983793    0.23562082445747923    0.2786587635238153    0.3200359637231323    
  0.3461532740348498    0.35404843037068423    0.3461483750689694    0.3200511252321412    0.27866232722754386    
  0.23560138970864106    0.20196663721178804    0.18021864719144443    0.25513363376482856    0.24228398549636196    
  0.23635055394828045    0.23635201587057328    0.24230570442390004    0.2551420771983791    0.2756555581034369    
  0.30351284972678333    0.3311069556977077    0.3461451847321882    0.3485748102064761    0.3485763987376282    
  0.34614835261128246    0.3310946221860104    0.30351316536056683    0.2756731409936587    0.25513363376482856    
  0.34525191018230295    0.3367419188847942    0.3267933073305462    0.32202342523471905    0.3267531566437076    
  0.3367345480333233    0.3452685069295107    0.35293143853209935    0.3610142635521861    0.36217168448767945    
  0.3540461853754788    0.348574818483756    0.3540483917681756    0.3621668981193298    0.3610327694837348    
  0.3529231076518167    0.34525191018230295    0.42335022718902954    0.42582210113353547    0.40012767686092277    
  0.3695744044562225    0.36961643096326685    0.4001483208072291    0.42580553523428843    0.4233280096683753    
  0.405012155278189    0.38397127306071793    0.3621717853586712    0.3461451877966935    0.3461532274446318    
  0.36216120828384496    0.3839852367490831    0.40498247210602806    0.42335022718902954    0.4550350655294396    
  0.47797033297242814    0.4252327243974014    0.3295212678236213    0.28515585364995666    0.3295318563022452    
  0.4252330971882778    0.4780051097957186    0.45501448264190597    0.4050121393220109    0.36101431904581216    
  0.3311069663125719    0.3200359143032152    0.33110725477309594    0.3610147634359339    0.4050089239550964    
  0.4550350655294396    0.4233274237860673    0.4779795150699259    0.4250944484086069    0.2677238298455038    
  0.15914656603982522    0.15912504960051554    0.2677163943019911    0.4250857428541951    0.47800510158251847    
  0.42332807332817796    0.35293140694075004    0.3035128349307528    0.27865871518882446    0.27866792684710606    
  0.3035056820857713    0.35293402674157576    0.4233274237860673    0.34527683517661145    0.4257951982375884    
  0.42525315704788463    0.26772388719085016    0.11290069311750549    0.06793830373561321    0.11291214474640374    
  0.26771640952020254    0.42523303710295496    0.42580565664214626    0.34526851881095905    0.27565553385692654    
  0.23562078820247062    0.2226505102128543    0.23562078152565377    0.2756505697808874    0.34527683517661145    
  0.25514478486927566    0.3367331951797528    0.40013836373329187    0.3295140697851004    0.15915502359359562    
  0.0679244173437765    0.06793828671149232    0.15912502255398658    0.3295318189796852    0.40014831779582444    
  0.33673457254671857    0.2551420729212422    0.20196255276027017    0.1774216292899977    0.17742497142490782    
  0.20195963136044598    0.25514478486927566    0.1801930611927388    0.2423118305060169    0.32675252389696224    
  0.36963716645544653    0.28512939697249917    0.15915504461054164    0.11290072509198085    0.1591465820678166    
  0.2851559008264795    0.3696164639792519    0.3267531761361119    0.24230575749351319    0.18019721934326502    
  0.1470707373131027    0.1367627943964856    0.14707395683582453    0.1801930611927388    0.12967823954775679    
  0.16886080180676838    0.23635787306878916    0.3219997358008717    0.3696371443221658    0.3295140902545959    
  0.26772388925600016    0.2677237975962848    0.3295212762808049    0.3695744311645258    0.32202344534917515    
  0.23635202542072015    0.16886828249337094    0.12967289748247615    0.1123342776053703    0.11232687316088524    
  0.12967823954775679    0.09998313557981336    0.12210761969961084    0.16552743393023922    0.2363579070737194    
  0.32675252627254303    0.4001383726332683    0.42525312235399604    0.4250944721549839    0.42523268013214144    
  0.4001276567721796    0.32679331616982105    0.23635051646870345    0.16552603618693645    0.12210579626715921    
  0.0999826374908883    0.09324683819744146    0.09998313557981336    0.08513362008452205    0.09630054815922029    
  0.12210763764769622    0.16886081267397632    0.24231184165712055    0.33673318186447554    0.42579521507057605    
  0.47797955693415617    0.47797042605923534    0.4258221685274674    0.3367419632920005    0.24228399682107085    
  0.16886231882945718    0.12211151246116836    0.09630156823526193    0.08513330570985995    0.08513362008452205    
  0.08073318902435231    0.08513360055685922    0.09998312186054317    0.1296782497475479    0.18019304186387677    
  0.25514475036352896    0.3452768246201974    0.42332744796819566    0.4550350816641956    0.42335022869279904    
  0.3452518446827954    0.2551336616720375    0.18021862905551242    0.12967552989032083    0.09997877491597985    
  0.08513409663499683    0.08073318902435231    0.07630226545813949    0.07980697360623189    0.09149738075186063    
  0.11438729606157229    0.15221030061678875    0.20667833297072913    0.2707036866747802    0.3251379231670982    
  0.34694971203225056    0.3251474197954285    0.2706742516781316    0.20667437790853557    0.15223010013437172    
  0.11438405077847848    0.0914953677247377    0.07980811357165349    0.07630226545813949    0.07980810602699542    
  0.07980628338037596    0.08560139475558663    0.09906625917422159    0.12327079214016876    0.16064488621458267    
  0.20944909287886845    0.2596344002281255    0.2930592186904743    0.29304604959010294    0.2596283626279458    
  0.2094739087192233    0.16064642366336582    0.12325392802875709    0.09907080168023434    0.08560086629722408    
  0.07980810602699542    0.09149539208052798    0.08926769639066663    0.09149811153354453    0.09907217562204791    
  0.11432328667212255    0.13987953635339098    0.17615305818697474    0.21815979734112861    0.25397853707940243    
  0.26842380814621486    0.25398771255350033    0.21816604434547168    0.17613197691965332    0.13987945578694683    
  0.11433717948236086    0.09907084420306529    0.09149539208052798    0.11438406743768126    0.11089817581455257    
  0.1108947366516287    0.11438166981303577    0.1232690615012868    0.13988048572975692    0.16564460960867133    
  0.19885020949106041    0.2318458521503813    0.2528896272453761    0.252891924696273    0.231838118648699    
  0.1988440360016216    0.16566637641620738    0.13987945335871935    0.12325397238467824    0.11438406743768126    
  0.15223009939140195    0.14911481208633767    0.14862695008095003    0.14911866025240506    0.1522134205424305    
  0.16064358710329557    0.17615322527968022    0.19883838139386134    0.22471301723032433    0.2455858215674838    
  0.2536105531649719    0.2455846425132414    0.22472035757787703    0.1988440169877543    0.17613195794334977    
  0.1606464517885649    0.15223009939140195    0.20667436888462254    0.20764654752697365    0.209646226384788    
  0.2096484904264991    0.20766465791047947    0.20667953189341665    0.20945050409193006    0.218172434918978    
  0.23184285070623922    0.24558501292087587    0.25420627587278194    0.2542101726178893    0.24558461621965447    
  0.23183804186721302    0.21816604939328654    0.20947391695400003    0.20667436888462254    0.2706743080351193    
  0.28223149980881485    0.289426910765929    0.29167430258378774    0.2893926516819924    0.2822285187566164    
  0.2706999361737994    0.2596267933272256    0.2539775688694394    0.25289477275105576    0.2536091394600156    
  0.25420630488085894    0.2536105327245878    0.25289190557274416    0.2539876999763068    0.25962847778816084    
  0.2706743080351193    0.3251474128674085    0.3531636244474253    0.3619936920362068    0.3570266858505553    
  0.35706756266283457    0.3620057385659829    0.3531318463204893    0.32514493811357287    0.2930591176624207    
  0.2684188607075034    0.25289484979158694    0.2455850051526382    0.24558581406665755    0.25288962358790346    
  0.2684238355926844    0.29304604757174607    0.3251474128674085    0.34694969041621926    0.3952462178730087    
  0.3987962398999912    0.35852848389757547    0.33378061124888775    0.35853457206042555    0.39882497175821474    
  0.39525206543221747    0.34694290865574795    0.29305911488114    0.2539776247868416    0.23184288501844147    
  0.22471297534605786    0.23184583583121524    0.25397857476753877    0.29305928516313057    0.34694969041621926    
  0.3251379046387376    0.3952473855780139    0.406210950371979    0.32595713667257165    0.24551261895163445    
  0.2454942721522443    0.3259160769037637    0.40622933384841003    0.39525205430500066    0.32514497065091624    
  0.2596267363395073    0.21817242327752018    0.19883833742995582    0.19885016794825894    0.21815976145937138    
  0.25963438928663535    0.3251379046387376    0.2707037101899185    0.3531243827128197    0.3988404108784516    
  0.3259368253255625    0.20301141161195793    0.1538883544281147    0.2030502679209779    0.3259160717776218    
  0.39882490182812286    0.353131921965724    0.27069997507556365    0.2094504990455479    0.1761531815776048    
  0.16564462426137852    0.1761530481249799    0.20944912029650958    0.2707037101899185    0.20667835216239294    
  0.28223263974111257    0.3619937104503001    0.358522984578377    0.24551463995734657    0.1538972876550844    
  0.15388832360287774    0.24549422602071722    0.35853450494596373    0.3620057360272197    0.28222860744960904    
  0.2066795302832074    0.16064358016536917    0.13988054745668482    0.13987955471753827    0.16064487755719242    
  0.20667835216239294    0.15221032716758562    0.20766688305667924    0.28939519290020427    0.3570808383580137    
  0.33376109580885904    0.2455146875542566    0.20301146253118327    0.2455126623357057    0.33378061107471746    
  0.3570676051455398    0.28939263217382    0.20766469651736055    0.15221338521124855    0.12326907102111205    
  0.11432329529183019    0.12327082495838614    0.15221032716758562    0.11438727379862759    0.1491129149338242    
  0.20965368046877017    0.29165362617295987    0.3570807999447817    0.35852299428996753    0.32593682128673823    
  0.3259570733874165    0.3585284345804174    0.35702669812072596    0.2916743581007959    0.20964847296405642    
  0.14911865685052622    0.11438164070556463    0.09907217380438035    0.09906625680532949    0.11438727379862759    
  0.09149740038434717    0.11089531259902613    0.14862769075930282    0.20965370912855133    0.28939517975516954    
  0.3619937353153848    0.3988404114350333    0.4062110081159281    0.3987961990246743    0.3619937045639804    
  0.2894269222686107    0.20964619619614291    0.14862694213314656    0.11089473105619035    0.09149809063104922    
  0.08560141654740162    0.09149740038434717    0.07980698607609897    0.08926837109548733    0.11089533776460225    
  0.1491129263457662    0.20766689758193654    0.282232652220557    0.35312435707621065    0.39524747761749934    
  0.39524626699557774    0.35316364421470264    0.2822315641299807    0.20764658605165157    0.14911483653549432    
  0.1108981820456149    0.08926772857596985    0.07980629216849741    0.07980698607609897    0.07630226545813949    
  0.07980697360623189    0.09149738075186063    0.11438729606157229    0.15221030061678875    0.20667833297072913    
  0.2707036866747802    0.3251379231670982    0.34694971203225056    0.3251474197954285    0.2706742516781316    
  0.20667437790853557    0.15223010013437172    0.11438405077847848    0.0914953677247377    0.07980811357165349    
  0.07630226545813949    0.07194703958346772    0.07455661620345533    0.08327629399573817    0.10013856752634205    
  0.1272229157552735    0.16492419994595506    0.20824720261742713    0.24456869199901216    0.2589614447098215    
  0.2445697152927758    0.20823730938684376    0.16492279012185634    0.12723000044150326    0.10013756231982446    
  0.08327481607938741    0.0745579230065347    0.07194703958346772    0.07455791360823238    0.07455812672135495    
  0.07843120334857095    0.0873777189763689    0.10332980782399734    0.12748258680040775    0.15821056551347545    
  0.18909120074102967    0.20925840173017765    0.20925573504823983    0.18908990500505163    0.15821903540095286    
  0.12748236237941393    0.10332480537629025    0.08737970349937593    0.07843074014576767    0.07455791360823238    
  0.08327482691027259    0.08207691691452426    0.08327547609051929    0.08737944642028501    0.09598594445075223    
  0.11090067157590285    0.13216336646592294    0.15653461596378973    0.17701124418987257    0.1851692378441092    
  0.17701252415116975    0.15653655432202002    0.13215729527957173    0.11090050061454322    0.09598939759573212    
  0.08737974263404769    0.08327482691027259    0.10013758075915918    0.09924953308254993    0.09924707745949751    
  0.10013820125684919    0.10332950293981819    0.11090013055389393    0.12411504885546049    0.14192491338412497    
  0.15995346887284406    0.17156571945642726    0.17156629495856016    0.15995266391121057    0.1419215876330217    
  0.12412245232584884    0.1109004799634831    0.10332483751080992    0.10013758075915918    0.1272300005973105    
  0.12904826432373434    0.130122924673289    0.12904963557634216    0.1272240604893561    0.12748109412053715    
  0.13216557178945668    0.14191906865566065    0.15473289317756417    0.16599354911356073    0.17055203253667592    
  0.16599351446436822    0.15473443625258107    0.14192157984971818    0.13215726390977356    0.127482364618758    
  0.1272300005973105    0.16492275877678306    0.1736920017225571    0.18002443700397247    0.18002904853640034    
  0.1736951362780665    0.1649271339129556    0.15820956782633636    0.15653930096397312    0.15995173814775684    
  0.16599558022949598    0.17085279306331771    0.17085461963983395    0.16599351623686082    0.15995260203953426    
  0.15653658421692132    0.15821905110521317    0.16492275877678306    0.2082373561161454    0.23039867383515675    