#     DFTpy    
  CRYSTAL 
    
  PRIMVEC    
  4.793379310344828    0.0    0.0    
  0.0    4.793379310344828    0.0    
  0.0    0.0    4.793379310344828    
  PRIMCOORD    
  8    1    
  Si    0.0    0.0    0.0    
  Si    1.198344827586207    1.198344827586207    1.198344827586207    
  Si    0.0    2.396689655172414    2.396689655172414    
  Si    1.198344827586207    3.595034482758621    3.595034482758621    
  Si    2.396689655172414    0.0    2.396689655172414    
  Si    3.595034482758621    1.198344827586207    3.595034482758621    
  Si    2.396689655172414    2.396689655172414    0.0    
  Si    3.595034482758621    3.595034482758621    1.198344827586207    
  BEGIN_BLOCK_DATAGRID_3D    
  3d_datagrid_density    
  BEGIN_DATAGRID_3D#0    
  21    21    21    
  0.0    0.0    0.0    
  4.793379310344828    0.0    0.0    
  0.0    4.793379310344828    0.0    
  0.0    0.0    4.793379310344828    
  0.05159741843003062    0.10025645188509988    0.2817485592574648    0.4475204399138098    0.40488331739736483    
  0.2836159449933944    0.18927744186213477    0.131864894043587    0.100508724951323    0.08539500183451207    
  0.08082507382384661    0.08539499142452239    0.10050870754551867    0.13186487279111772    0.1892775411280102    
  0.2836158682353864    0.4048834010518978    0.4475203980716963    0.28174863650121035    0.10025644673113737    
  0.05159741843003062    0.10025644892676006    0.1602384370814379    0.3400944214982183    0.46561820524550285    
  0.40453069026845245    0.28482741877671497    0.19311191100286776    0.13669717053616368    0.10541362799735739    
  0.0900836543045882    0.08539499018522649    0.09008366904887953    0.10541365647161406    0.13669724800573535    
  0.19311186647900924    0.28482749768825416    0.4045306283739862    0.4656182287637009    0.3400944161116772    
  0.16023846991263865    0.10025644892676006    0.2817485434387552    0.34009444437679137    0.4564056883740973    
  0.4827075402252512    0.39577104376545297    0.2872335210301263    0.2045974695294164    0.15174946827637792    
  0.12110761393699765    0.10541366489736803    0.10050867801388015    0.1054136376503602    0.12110764029263481    
  0.15174940699040113    0.20459745813294944    0.28723348081103556    0.3957710834452243    0.4827075445177532    
  0.45640566825441437    0.34009440112422623    0.2817485434387552    0.44752043368147415    0.46561827284058516    
  0.48270751582726096    0.44633373504699075    0.36830340484307716    0.287233496381801    0.22293560793956185    
  0.17908289961800627    0.151749485521886    0.1366971659332075    0.13186487081532008    0.13669716316786656    
  0.15174944165699056    0.17908291039738441    0.2229355715366605    0.2872335942467497    0.368303396183638    
  0.4463337815282981    0.4827074832926623    0.46561823783397516    0.44752043368147415    0.4048832762948032    
  0.40453068014791527    0.3957709932130061    0.3683034760311664    0.3272328305905833    0.28482751544007623    
  0.24906272139485885    0.2229356610073044    0.204597440175528    0.19311195358666    0.18927740179792205    
  0.19311193104651736    0.20459751927915715    0.22293565156979114    0.2490627496540091    0.2848274307059712    
  0.32723285273878827    0.36830341230431823    0.3957710826881657    0.4045306215037103    0.4048832762948032    
  0.2836159840346118    0.28482742107311954    0.28723354309791016    0.2872335342841134    0.28482747416028215    
  0.28361590226581956    0.284827500877142    0.28723353969286686    0.28723358231635354    0.28482737276147185    
  0.28361604053034245    0.2848274790905033    0.2872335219662589    0.2872335136260462    0.2848274479287208    
  0.28361602450393175    0.28482743876838174    0.2872336159715467    0.28723352175207956    0.28482748440325484    
  0.2836159840346118    0.18927743006509043    0.19311192321382642    0.20459746312974045    0.22293563948361886    
  0.24906271307221894    0.2848274518154382    0.32723279530087584    0.3683035560790605    0.3957709783949985    
  0.4045307300288032    0.40488322303101215    0.4045306967779555    0.395771042967767    0.36830345497544065    
  0.32723283082195637    0.2848274607336906    0.2490627386429798    0.22293557060735825    0.20459750643050983    
  0.19311189810843618    0.18927743006509043    0.1318648373666947    0.13669718262299607    0.15174944787440095    
  0.17908290494306894    0.22293564298437973    0.2872334490044969    0.36830343138324745    0.4463336788701659    
  0.4827076055282458    0.4656181776698115    0.4475205111895519    0.46561814997124074    0.48270749308511685    
  0.44633375968004674    0.3683034065652988    0.28723353348045183    0.22293557655057358    0.17908296589291867    
  0.151749419171166    0.13669722327923045    0.1318648373666947    0.10050872530040592    0.1054136405530922    
  0.12110763243060767    0.15174948902025212    0.20459744941310784    0.2872335161751618    0.3957709880199733    
  0.4827076386950524    0.4564054543914671    0.3400945456528631    0.28174843719810844    0.3400944889287574    
  0.4564055132527543    0.4827075754288692    0.3957710331919008    0.2872335015267047    0.2045974638019497    
  0.15174944859038147    0.12110763876109014    0.1054135960671758    0.10050872530040592    0.08539496201640906    
  0.09008369595909778    0.10541358523416147    0.13669719996867027    0.19311194298377993    0.2848274273201517    
  0.4045307600845895    0.4656181608969661    0.3400945504657315    0.16023838696377574    0.10025649411841486    
  0.16023839007764504    0.34009450040234984    0.4656182797406813    0.4045306551002009    0.2848274544630378    
  0.19311186244393336    0.13669723177254658    0.10541362076897005    0.09008367857519267    0.08539496201640906    
  0.08082507441301666    0.08539496951187661    0.10050871731554216    0.13186490299911843    0.18927743370834021    
  0.2836159629792806    0.40488322403099886    0.44752051862565295    0.2817484918938142    0.10025652873856945    
  0.051597366664320105    0.10025651618184853    0.28174848789332235    0.44752045330194484    0.40488337666400886    
  0.28361591807266123    0.1892774536613488    0.13186484294960127    0.10050873148957522    0.08539497265212559    
  0.08082507441301666    0.08539496721361292    0.0900836784745962    0.10541362341974965    0.13669723738788792    
  0.19311188142004643    0.2848274276744695    0.40453070453531637    0.46561825413918145    0.34009447897299305    
  0.1602383913972715    0.10025647762933439    0.1602383865179372    0.34009451536680463    0.4656182428908958    
  0.404530648415069    0.2848275094785528    0.1931118685099973    0.1366972456416954    0.10541360693773381    
  0.09008371957626142    0.08539496721361292    0.10050872603169154    0.10541358813573609    0.12110768795393163    
  0.1517494218787368    0.20459747905703715    0.2872335133316577    0.39577104591874185    0.48270751725568606    
  0.45640548473083065    0.34009449644161655    0.2817484797258889    0.34009445411244854    0.45640561522378376    
  0.4827074420513321    0.39577109376552216    0.2872334324493663    0.20459753152259041    0.1517494283566879    
  0.12110770354523398    0.10541357504873446    0.10050872603169154    0.13186482725857102    0.13669724472510825    
  0.15174938145553343    0.1790829432425723    0.22293556273528284    0.2872335096454833    0.36830343264428045    
  0.44633379094300996    0.48270754671208077    0.46561828179007736    0.4475204427331361    0.4656181627544202    
  0.48270751184210864    0.44633377750901687    0.36830333822772504    0.2872336564225755    0.22293551558283703    
  0.1790830113629789    0.15174937728410812    0.1366972645695087    0.13186482725857102    0.18927751547392355    
  0.19311183830833129    0.20459754429988644    0.222935597968249    0.24906280678769974    0.2848274167200274    
  0.32723288477541995    0.3683034684743834    0.395771088850438    0.40453066397398596    0.40488330703789027    
  0.4045305767288677    0.39577119337188754    0.36830340335121686    0.327232932758286    0.28482735825627836    
  0.24906282912236044    0.2229355278205044    0.2045975603059014    0.1931118268685083    0.18927751547392355    
  0.28361589260613507    0.28482751949529445    0.2872334642752382    0.2872336127577488    0.2848273843605616    
  0.2836159962665981    0.28482741047025767    0.2872335919353514    0.2872334804657837    0.28482746279832666    
  0.28361596173151443    0.2848275055039996    0.28723345112607307    0.28723360668262743    0.2848273645594797    
  0.28361608140347405    0.284827329536404    0.28723364797187767    0.2872334589168514    0.2848275815977933    
  0.28361589260613507    0.4048834056729885    0.4045305996236419    0.3957711092766297    0.3683033589705527    
  0.3272329492454998    0.2848273734350326    0.24906278026233475    0.2229356238088519    0.20459751623903877    
  0.1931118685359738    0.1892774674005386    0.1931118565234578    0.20459755897887325    0.22293558140646555    
  0.24906284818829286    0.28482737627849886    0.3272329617181156    0.3683033778031176    0.39577115435661503    
  0.4045305528111341    0.4048834056729885    0.44752032443353923    0.46561826012031005    0.48270741684854274    
  0.44633387509728295    0.36830340296318514    0.2872335644432236    0.2229355172660709    0.1790829438766927    
  0.15174940218407715    0.13669721972244875    0.1318648527640293    0.13669726031166046    0.15174937305854805    
  0.17908297470708281    0.222935460047099    0.2872335999895895    0.3683033156841056    0.4463340093357342    
  0.482707409120089    0.46561830809472465    0.44752032443353923    0.28174862559564845    0.3400943978841452    
  0.4564056349552007    0.4827074540892455    0.3957711300255852    0.2872334470593366    0.2045975119310124    
  0.1517494490384253    0.12110766370597242    0.10541363300697847    0.10050871048216978    0.10541359320686361    
  0.12110765253398176    0.15174938684425351    0.20459755476624478    0.28723344461039874    0.39577110113423286    
  0.48270740979310456    0.45640571480295333    0.3400943301494666    0.28174862559564845    0.10025642085163114    
  0.16023845380368226    0.34009441996408457    0.4656183056430137    0.4045306406252793    0.28482748870566965    
  0.193111878472015    0.13669721299846352    0.10541363944993491    0.09008368189839236    0.08539497428200093    
  0.09008368077001283    0.10541359825143475    0.13669724958332055    0.1931118535147121    0.28482752926281385    
  0.4045305907191565    0.46561830849127467    0.3400944034701725    0.1602384708754615    0.10025642085163114    
  0.05159741843003062    0.10025645188509988    0.2817485592574648    0.4475204399138098    0.40488331739736483    
  0.2836159449933944    0.18927744186213477    0.131864894043587    0.100508724951323    0.08539500183451207    
  0.08082507382384661    0.08539499142452239    0.10050870754551867    0.13186487279111772    0.1892775411280102    
  0.2836158682353864    0.4048834010518978    0.4475203980716963    0.28174863650121035    0.10025644673113737    
  0.05159741843003062    0.10025644543467392    0.1602384503723143    0.3400944606121451    0.4656182257983027    
  0.40453067065922577    0.2848274690358906    0.19311188533376294    0.13669722601967896    0.10541365456388736    
  0.09008366602973145    0.08539499129345893    0.09008368255217655    0.10541357354622259    0.13669725791957824    
  0.19311190915976442    0.28482747810468734    0.40453059432382205    0.46561827876337814    0.3400943986048807    
  0.16023845454010044    0.10025644543467392    0.16023845582206295    0.24031232224884658    0.4306946030702224    
  0.5363867475755191    0.45824486069546017    0.32723280336942895    0.2252534876946558    0.1597699780514546    
  0.12111982883212974    0.09989593796882655    0.09008367549535709    0.09001368529572285    0.10032633127915379    
  0.12501840738070816    0.1716393871739175    0.24906269441907194    0.353734876423781    0.4242393673058909    
  0.35277739931894264    0.21062644564436706    0.16023845582206295    0.3400944349708819    0.430694605248843    
  0.5656819037035143    0.5938943691449385    0.49602845502763926    0.3683034200805694    0.2654622346932478    
  0.19468353106654265    0.14915387545958778    0.12111985010331949    0.10541361795924613    0.1003262653255589    
  0.10591849603587443    0.12459568374595548    0.16150846748285122    0.22293566132298387    0.308862071057404    
  0.3909624687426231    0.40512983177156314    0.35277735617193884    0.3400944349708819    0.46561822923880547    
  0.5363867470994838    0.5938943063686243    0.5779894668023661    0.49602842205841724    0.395771031026882    
  0.3088621170685397    0.2430716782295265    0.1946835259978982    0.15976998283487476    0.13669717008801613    
  0.12501840318508012    0.12459566047625635    0.1359568167469535    0.1615085578592958    0.20459744523812018    
  0.2654622482092409    0.3349857467971762    0.39096241278555793    0.42423937399331396    0.46561822923880547    
  0.40453063970293607    0.458244844617503    0.4960284608115939    0.49602850149949407    0.45824485548717886    
  0.4045307400905196    0.35373482869900136    0.3088621272819438    0.26546224286614456    0.22525340874953123    
  0.19311196616898352    0.1716393184704812    0.16150856558703    0.1615085692529881    0.17163932294121376    
  0.1931119194467956    0.22525340841927255    0.26546224432407034    0.30886208874219795    0.35373476517014546    
  0.40453063970293607    0.2848275104259642    0.32723280526042886    0.3683034936517652    0.3957710604059243    
  0.40453066763566    0.4048832682236435    0.4045306205229997    0.3957711483834135    0.36830341621559076    
  0.32723283461277836    0.2848274434934217    0.24906280115360593    0.22293558953083806    0.20459745909563998    
  0.19311194515860794    0.18927742112447468    0.19311193604535778    0.2045974513554115    0.2229356633920195    
  0.24906272809612773    0.2848275104259642    0.19311188890646966    0.22525348879283535    0.2654621780511294    
  0.3088621362565795    0.35373484309595876    0.4045306551147547    0.45824488420023    0.4960284666583096    
  0.4960285694774221    0.4582448347638038    0.40453071223922754    0.3537347616924181    0.3088622123450822    
  0.2654622221052222    0.22525345786414716    0.193111937112227    0.17163930794483404    0.16150857313089645    
  0.16150850738339473    0.17163935612723913    0.19311188890646966    0.13669718681354914    0.15976992693316278    
  0.19468357707786918    0.24307165035087291    0.3088621037983401    0.3957710443326669    0.49602839941135746    
  0.5779895308679779    0.5938943063100814    0.5363868763273842    0.46561815866575845    0.4242394931475555    
  0.390962316957727    0.33498579093555325    0.2654621815442486    0.20459744266460136    0.16150853207787624    
  0.13595684914407377    0.12459568761333265    0.12501840013254747    0.13669718681354914    0.10541362383954235    
  0.12111986040274728    0.14915385175352988    0.1946835696936962    0.26546218917943354    0.3683034248763394    
  0.4960285233609775    0.5938943254545468    0.5656819228921159    0.43069454379098016    0.3400944932273328    
  0.35277726208598975    0.4051298421884607    0.3909623733318932    0.30886210618596405    0.2229356665922388    
  0.1615085060383098    0.1245957058617627    0.10591844854066394    0.10032627398316073    0.10541362383954235    
  0.09008367788332661    0.09989592113168008    0.12111982590507044    0.15976994057934776    0.22525347903851609    
  0.3272328912289883    0.4582448203567758    0.5363868066165105    0.43069454444372374    0.24031241078250673    
  0.16023835287090368    0.210626552184173    0.3527773636803277    0.42423951715891123    0.35373478687436005    
  0.24906273367165463    0.17163937190728165    0.12501841376916717    0.10032631021829647    0.09001369022308879    
  0.09008367788332661    0.085394972034841    0.09008367086017592    0.10541360861363536    0.13669722321244768    
  0.1931119236862692    0.28482743192752397    0.4045306629263918    0.4656181834941463    0.340094486606607    
  0.16023841290940077    0.10025649770574596    0.16023840632935143    0.3400944547984287    0.4656182558897501    
  0.40453070776214134    0.28482747575968953    0.19311185577530962    0.13669723349602003    0.10541360112043767    
  0.09008372523520801    0.085394972034841    0.0900836903981256    0.09001367051312208    0.10032628992261877    
  0.1250184154961527    0.17163935523159574    0.24906269304375558    0.35373484545042316    0.4242395290726787    
  0.3527773443784325    0.21062652636492737    0.16023839235239978    0.24031234069982507    0.4306946016723837    
  0.5363867236317068    0.45824491595613653    0.32723276035135895    0.22525351846697858    0.159769914322001    
  0.12111989716652868    0.09989590999060968    0.0900836903981256    0.10541357937673405    0.10032631256486202    
  0.10591848814260878    0.12459571926022733    0.1615084986457625    0.22293561830186046    0.308862102486188    
  0.39096234291220666    0.405129827406842    0.35277735898870544    0.34009445172972985    0.43069458886291645    
  0.565681817590464    0.5938943471745184    0.49602836191887345    0.3683034870253305    0.2654621149805755    
  0.19468365487575387    0.1491538014298458    0.12111987240597777    0.10541357937673405    0.13669724747906703    
  0.12501838157566744    0.12459571205527241    0.13595680123051831    0.16150854989418828    0.2045974080165842    
  0.2654622043048268    0.3349857694594882    0.39096240648134833    0.4242394301191362    0.4656181857466193    
  0.5363866327442232    0.5938943964035813    0.5779894064902557    0.49602856537355694    0.3957709876094891    
  0.30886223578749966    0.24307158811051627    0.19468362101397527    0.159769863975976    0.13669724747906703    
  0.1931118217796411    0.17163941213986786    0.16150845889166987    0.16150861298876729    0.17163932231156795    
  0.19311195062615213    0.22525341725644224    0.26546225925132944    0.3088621125693075    0.353734828468263    
  0.40453063466381683    0.45824488806229746    0.49602847785886445    0.49602861077121124    0.45824474457733155    
  0.4045308117763531    0.35373464352128575    0.3088622838133459    0.26546209465568    0.2252535632466745    
  0.1931118217796411    0.2848275547885302    0.24906264292006872    0.22293567186946237    0.20459740734143186    
  0.19311198488428613    0.18927739709327426    0.19311195511087062    0.20459746437721774    0.222935648003588    
  0.24906269716601995    0.28482751347342644    0.3272328260322507    0.3683035245552748    0.39577093448321116    
  0.4045308008630475    0.40488313222678846    0.4045307902717197    0.39577090459777586    0.3683036181205568    
  0.32723272789218055    0.2848275547885302    0.40453056156031064    0.3537349160919731    0.30886203335869056    
  0.2654622413334184    0.2252534323731381    0.19311194170561555    0.17163932425935824    0.1615086199982296    
  0.1615084783893754    0.17163936847413797    0.19311182922339767    0.2252534955651259    0.2654621501408236    
  0.30886226253989835    0.35373465954023103    0.40453081886842246    0.4582446946843425    0.49602865043100103    
  0.49602833279587266    0.45824496067944476    0.40453056156031064    0.465618294064927    0.42423932915358165    
  0.3909624245427983    0.3349857364059467    0.26546226525995087    0.2045974167954921    0.16150852612676966    
  0.13595682546045165    0.12459571159589194    0.1250183835734015    0.13669724056192895    0.15976992372603788    
  0.19468357085720553    0.24307159481592341    0.3088622110812949    0.39577088386886755    0.4960285884976679    
  0.5779894515294244    0.5938944944540018    0.5363866080676618    0.465618294064927    0.34009439454872575    
  0.3527774143659263    0.405129802474961    0.3909623802030097    0.3088621274690268    0.22293561518385852    
  0.16150848641900709    0.12459569530934327    0.1059184753332924    0.10032629771147047    0.10541357269090837    
  0.12111986981958613    0.1491538236407708    0.1946836219240552    0.2654621016049562    0.3683035959575578    
  0.4960282681901165    0.5938944933521846    0.5656818093183852    0.4306946212192189    0.34009439454872575    
  0.1602384669191837    0.2106264451320014    0.3527773539929637    0.4242394071283269    0.3537348328000233    
  0.24906271581082137    0.1716393602029287    0.12501842269703045    0.10032629907339846    0.0900136984313451    
  0.09008367148300546    0.09989592309511157    0.12111987291751378    0.15976992377497679    0.22525352857540853    
  0.32723274968611554    0.45824494532037047    0.5363866122519111    0.4306947029465557    0.240312266648406    
  0.1602384669191837    0.10025644543467392    0.1602384503723143    0.3400944606121451    0.4656182257983027    
  0.40453067065922577    0.2848274690358906    0.19311188533376294    0.13669722601967896    0.10541365456388736    
  0.09008366602973145    0.08539499129345893    0.09008368255217655    0.10541357354622259    0.13669725791957824    
  0.19311190915976442    0.28482747810468734    0.40453059432382205    0.46561827876337814    0.3400943986048807    
  0.16023845454010044    0.10025644543467392    0.28174859243395656    0.34009438533905    0.45640562008915775    
  0.4827075104370489    0.3957711033957168    0.28723347683489825    0.20459748398936453    0.15174946623228425    
  0.12110765122753982    0.10541362767151796    0.10050873024758085    0.10541360883249783    0.1211076292425376    
  0.15174941699417452    0.20459757901038828    0.28723341485490306    0.39577114663731344    0.48270740357919545    
  0.45640569749513227    0.34009438511802814    0.28174859243395656    0.3400943899337401    0.43069461339935156    
  0.5656817945937648    0.5938943969274361    0.4960284495414692    0.36830341976868114    0.2654621835560831    
  0.19468355251146768    0.1491538362604134    0.12111985733149966    0.10541361073490199    0.10032626191692029    
  0.10591850470311194    0.12459572524838003    0.16150848145930227    0.22293567009547266    0.30886209654948626    
  0.3909624256122946    0.4051298121231054    0.3527774160004273    0.3400943899337401    0.4564055752032649    
  0.5656817835834206    0.6753357593649697    0.6800870536333595    0.5779894969304867    0.44633372290096207    
  0.33498580087089846    0.25192687591896434    0.19169412978230332    0.1491538693586091    0.12110762772137985    
  0.10591848522331589    0.10258308559988832    0.1117343219528449    0.1359568434943866    0.179082882101144    
  0.24307169787861718    0.317823915217733    0.3747756435293499    0.4051297698815638    0.4564055752032649    
  0.4827074825839191    0.5938944166308106    0.6800869717914689    0.6800870863524637    0.5938943260835737    
  0.482707503467377    0.39096231679501176    0.31782392101692236    0.25192690432290143    0.19468354172708588    
  0.15174943548822975    0.12459567340082507    0.1117343714145402    0.11173438871931031    0.12459565869660368    
  0.15174946476912288    0.19468349374755875    0.2519269176425298    0.3178239059821333    0.3909623780560784    
  0.4827074825839191    0.39577104657533557    0.49602844721515393    0.5779894385806202    0.5938943643068154    
  0.5363867034446179    0.46561823433339483    0.4242394152081595    0.3909623938070445    0.33498575881596776    
  0.26546221471936526    0.20459744893111143    0.1615085389911536    0.13595684703467376    0.12459570045696852    
  0.1250184331287597    0.13669715954418357    0.15976995252804566    0.19468350794762482    0.24307169561563755    
  0.3088620976668212    0.39577104657533557    0.2872334616647152    0.36830345371325546    0.44633383106942853    
  0.48270754838627306    0.4656182124733806    0.44752044451092154    0.4656182102039861    0.48270749476493124    
  0.4463338205577241    0.36830338186261846    0.28723358540901456    0.22293559418182052    0.17908288688880766    
  0.1517494574588375    0.1366971729634613    0.13186488662653248    0.13669717041614798    0.1517494698542904    
  0.1790829166051769    0.22293565518138844    0.2872334616647152    0.20459749450138973    0.26546218920313536    
  0.3349858043125067    0.39096236041048044    0.42423944970157984    0.4656181665345132    0.5363866945399004    
  0.5938944594461163    0.5779894698585945    0.4960285337762629    0.39577099190647114    0.3088621534689287    
  0.2430716898395127    0.19468356566745185    0.1597699598960674    0.1366971909415765    0.1250184024161789    
  0.12459565180214757    0.13595689629149935    0.16150850192660984    0.20459749450138973    0.1517494139360691    
  0.1946835592328045    0.25192689531414975    0.31782393067591463    0.39096236313077276    0.48270745956297434    
  0.5938943548292661    0.6800869337667695    0.6800871031804946    0.593894361569298    0.4827075569836902    
  0.390962301391788    0.3178239267975993    0.251926906832414    0.19468349236195842    0.151749446182882    
  0.12459564199889632    0.1117344332603336    0.11173434569600711    0.12459572456869823    0.1517494139360691    
  0.12110763768184607    0.14915385219288463    0.19169414494367815    0.25192696319237057    0.33498577911615834    
  0.446333753486026    0.577989427806307    0.680087178211903    0.6753355557475762    0.5656819485237259    
  0.45640546434775475    0.4051298956069069    0.3747754974042113    0.3178239414733979    0.24307165780817855    
  0.17908288972648065    0.1359568471516236    0.11173437295995448    0.10258307803723406    0.1059184498559446    
  0.12110763768184607    0.1054135912594562    0.12111985521148529    0.14915380782277923    0.19468353216762216    
  0.26546221509366474    0.3683034715271408    0.4960284919160955    0.5938942779341981    0.5656819988331758    
  0.43069452740374164    0.3400944720172329    0.35277731625403935    0.4051298592450514    0.3909624537143491    
  0.30886208854957575    0.22293564978581681    0.1615084975511962    0.1245957133701885    0.10591846401300929    
  0.10032629881142842    0.1054135912594562    0.10050873697969727    0.10541359419077923    0.12110767018310944    
  0.15174943409568956    0.20459748199585695    0.2872335216421681    0.3957709656122293    0.48270755865832765    
  0.45640553755915264    0.3400945059998025    0.28174848331000013    0.34009448938146075    0.4564055366643246    
  0.4827074920401068    0.39577113649087764    0.28723345706876396    0.20459749631926613    0.1517493820744163    
  0.12110767918059182    0.10541360698190665    0.10050873697969727    0.10541359008940868    0.1003262786313705    
  0.10591846088945013    0.12459568731148264    0.16150850723813212    0.2229355794568215    0.3088621617625178    
  0.39096239072723654    0.40512988082791623    0.35277735284875317    0.34009445113140435    0.4306945845107088    
  0.5656819336606671    0.5938943882996179    0.49602837455869386    0.3683034944429203    0.2654620888504872    
  0.19468361513356677    0.14915381091428281    0.12111990656408567    0.10541359008940868    0.12110767958146408    
  0.1059184320606541    0.10258313470743001    0.11173438448181533    0.1359568413805524    0.17908288777703363    
  0.24307167504622343    0.31782390435449187    0.3747754922039628    0.40512986273270435    0.45640554714180825    
  0.5656818615122249    0.675335737973505    0.6800869692054019    0.577989609319905    0.44633368934553475    
  0.33498591394541877    0.25192684175757013    0.1916942384134843    0.14915376156279056    0.12110767958146408    
  0.15174934907558427    0.124595735509011    0.11173430846324726    0.11173442487890446    0.12459562128528379    
  0.151749456882207    0.1946834885173525    0.2519269279330028    0.31782395119553875    0.3909624078498449    
  0.4827074783312461    0.5938943240922453    0.6800869406108315    0.6800870951784217    0.5938942251130369    
  0.4827077157301647    0.39096222405462    0.3178240511310511    0.25192676659899005    0.19468362170585826    
  0.15174934907558427    0.204597549859422    0.16150844775148152    0.1359568904986099    0.12459564896813799    
  0.12501843972138382    0.13669716392010306    0.15976997959393308    0.19468354266636986    0.2430716869734424    
  0.3088620839989571    0.39577109292301604    0.4960283682715441    0.5779896703058518    0.5938942751209515    
  0.5363869143989407    0.46561803945996555    0.4242395385764824    0.39096219607218813    0.33498591654853627    
  0.26546208776647323    0.204597549859422    0.2872333915850511    0.22293568869626657    0.1790828605748684    
  0.1517495066893968    0.13669716069107202    0.13186490840584292    0.13669714062582092    0.1517494874198333    
  0.17908287069670298    0.22293564063817659    0.2872335227813767    0.36830356166910716    0.4463336695875374    
  0.4827076259317566    0.465618079811065    0.447520530344015    0.46561802631863464    0.4827077336977287    
  0.4463336946819234    0.3683035803323529    0.2872333915850511    0.3957711560161876    0.30886207366556806    
  0.2430717254915636    0.19468347328473523    0.15977003559671787    0.1366971427568916    0.12501844830320796    
  0.12459568802420513    0.13595683372413192    0.1615084761145638    0.20459749333443142    0.2654621262764445    
  0.33498592777162906    0.3909622640291893    0.4242395550856938    0.4656180800011074    0.5363869279790822    
  0.5938942267208155    0.5779896359086676    0.4960283073263046    0.3957711560161876    0.4827073500441261    
  0.39096243329005653    0.31782385682432407    0.25192698543769765    0.194683515662175    0.15174945738919896    
  0.12459559921190567    0.11173441607556628    0.11173437099623895    0.12459570655360858    0.15174942842548025    
  0.19468357779112003    0.25192677163751986    0.31782404239182654    0.39096222266588926    0.4827076336426072    