#     DFTpy    
  CRYSTAL 
    
  PRIMVEC    
  4.1465517241379315    0.0    0.0    
  0.0    4.1465517241379315    0.0    
  0.0    0.0    2.2844827586206895    
  PRIMCOORD    
  4    1    
  Si    0.0    0.0    0.0    
  Si    2.0732758620689657    2.0732758620689657    1.1422413793103448    
  Si    0.0    2.0732758620689657    0.5711206896551724    
  Si    2.0732758620689657    0.0    1.7133620689655171    
  BEGIN_BLOCK_DATAGRID_3D    
  3d_datagrid_density    
  BEGIN_DATAGRID_3D#0    
  19    19    11    
  0.0    0.0    0.0    
  4.1465517241379315    0.0    0.0    
  0.0    4.1465517241379315    0.0    
  0.0    0.0    2.2844827586206895    
  0.050204498301402174    0.09523180148046848    0.2788383730569367    0.5242718461551595    0.6202351892866053    
  0.6140172118184957    0.5848950602505122    0.5136574141270263    0.41567566689497426    0.37058703381453095    
  0.4156757097483771    0.5136573785701793    0.5848950759693955    0.6140172166896866    0.6202351809774477    
  0.5242718236556339    0.27883836821120267    0.09523179580627165    0.050204498301402174    0.09523180316047275    
  0.1496907817812613    0.32943512476233894    0.5230770565287864    0.5807347962804728    0.5684766782877022    
  0.5491443963005015    0.5026793796861316    0.4319980244701649    0.3974784565950838    0.4319980604667155    
  0.5026793618745751    0.5491444271134802    0.5684766749469364    0.5807348232995139    0.5230770408385943    
  0.32943513421911164    0.14969077265706776    0.09523180316047275    0.2788383982586668    0.32943514276472663    
  0.43942744878114454    0.4992239840001891    0.4836470661750783    0.4606642699462179    0.4588109988891292    
  0.45895378617786226    0.4455768838199247    0.436008134292837    0.44557686353428655    0.4589538049141267    
  0.4588110489254828    0.46066426363794455    0.48364702155131656    0.4992239450907586    0.439427454827997    
  0.3294351255758506    0.2788383982586668    0.5242718666731392    0.5230770610126567    0.49922400133068195    
  0.43922335449326805    0.37777969232973274    0.34946050930187145    0.3581900612676173    0.3878155353790014    
  0.4154653279598236    0.42595981238793873    0.4154653171664443    0.3878155412449469    0.35819006123251684    
  0.3494605273157098    0.37777970530036925    0.43922335497089215    0.4992239914405215    0.5230770088684116    
  0.5242718666731392    0.6202351930048322    0.5807347824495614    0.48364703064309944    0.37777966428358256    
  0.30418596860398267    0.2760670276518065    0.2882760189766693    0.3272212909665616    0.3691904986474371    
  0.3871982844855348    0.36919048101513524    0.3272213089780715    0.2882760164358652    0.2760670494054475    
  0.3041859611646056    0.37777967197876405    0.483646992794985    0.5807347659770259    0.6202351930048322    
  0.6140171629892616    0.568476655990465    0.46066425689681056    0.3494605023769142    0.2760670479214957    
  0.24957781307962648    0.2635431973887705    0.3050155663131785    0.3502780499242091    0.3700222292833686    
  0.3502780430285073    0.3050155589117493    0.2635431965626637    0.24957782587711322    0.2760670437377679    
  0.3494604990328281    0.46066425422579005    0.5684766256624515    0.6140171629892616    0.5848951245630087    
  0.5491444352976907    0.45881105379941006    0.3581900413095359    0.2882760249166804    0.26354319062540954    
  0.28035976988215094    0.3250684074056913    0.37311221480448786    0.39424472710039404    0.37311220458435074    
  0.3250683942373334    0.28035975844181055    0.2635432272108671    0.2882760077803211    0.3581900527577009    
  0.458811002329111    0.5491443882051816    0.5848951245630087    0.513657423643149    0.5026794001616077    
  0.45895381116613115    0.38781555037457593    0.3272213048437266    0.3050155735361665    0.32506840061225967    
  0.37411458366815586    0.42648927985541174    0.4498561473310064    0.4264892895529684    0.3741145758617183    
  0.3250683887581105    0.30501557681052016    0.32722128920009547    0.3878155212506227    0.4589537654661816    
  0.5026793915077971    0.513657423643149    0.4156756943037785    0.43199806025479465    0.445576907795448    
  0.4154653038445852    0.36919051348982396    0.3502780608118897    0.3731121749593788    0.4264893212144699    
  0.4829816766293657    0.5081571194528983    0.48298165705932183    0.42648928789968577    0.37311218092215526    
  0.3502780779008865    0.369190473079274    0.4154652744257888    0.44557689361144537    0.4319980171274162    
  0.4156756943037785    0.37058702288112955    0.3974784097616959    0.4360081252527344    0.4259597580910474    
  0.3871982516871402    0.3700222544099257    0.39424470142849033    0.44985609300124857    0.5081571059105309    
  0.5338524176312561    0.5081571196666624    0.449856054694525    0.39424470603760575    0.3700222118029944    
  0.38719825738145497    0.4259597474230472    0.43600812810056194    0.39747840948076424    0.37058702288112955    
  0.4156756805905902    0.4319980455925447    0.44557689679426765    0.4154653237253261    0.36919052950887177    
  0.3502780769331437    0.3731121905305391    0.4264893172583721    0.48298166304013146    0.5081571425196947    
  0.48298165969695755    0.4264892661899494    0.373112203978313    0.350278059992998    0.36919052914921086    
  0.41546532315033596    0.44557691781134995    0.43199803413097165    0.4156756805905902    0.5136574504439317    
  0.5026793861057632    0.45895380461872914    0.38781551783641016    0.32722131558880857    0.30501557558918135    
  0.3250683814609715    0.37411462551797964    0.4264892802403709    0.44985609835271717    0.4264892838710236    
  0.37411455483222306    0.32506840478456817    0.3050155658694424    0.32722130714681147    0.3878155147998575    
  0.45895376524050935    0.5026793914611509    0.5136574504439317    0.5848950836308927    0.5491444330364553    
  0.4588110366641537    0.35819006866834574    0.2882760040293288    0.26354319622249267    0.28035976772331594    
  0.32506841063705566    0.3731121894028303    0.3942447459988598    0.3731121884951397    0.32506840904765094    
  0.28035975581109135    0.2635432252440802    0.2882760029048611    0.35819007742752706    0.4588110405045314    
  0.54914438766504    0.5848950836308927    0.6140171836674326    0.5684766466450301    0.46066424174156734    
  0.34946049820214065    0.27606702216711043    0.24957781951847766    0.26354320985545904    0.30501557684735775    
  0.35027805743310064    0.3700222547818944    0.3502780675316341    0.30501555614041753    0.2635431900199206    
  0.2495778313476265    0.2760670267856604    0.34946048942504704    0.460664251250914    0.568476630492179    
  0.6140171836674326    0.6202351547716889    0.5807348444366297    0.483647019271871    0.37777965000719693    
  0.30418595487065836    0.276067032865041    0.2882760032175389    0.3272213142753561    0.369190504135231    
  0.38719828216435853    0.36919049031220735    0.3272212866493655    0.28827600161131933    0.2760670339613567    
  0.30418597832461297    0.37777966999656154    0.4836470316614909    0.5807348242145075    0.6202351547716889    
  0.5242718817809257    0.5230770767765922    0.49922399553425606    0.43922333520454004    0.37777969666095784    
  0.349460512025948    0.3581900645001545    0.3878155403237966    0.41546530999565645    0.4259597803914311    
  0.4154653214310981    0.38781549056058034    0.35819004000676835    0.3494605181877369    0.3777796766539303    
  0.439223347477667    0.4992239726172944    0.523077033177675    0.5242718817809257    0.2788383896996848    
  0.3294351453016578    0.4394274655408833    0.49922400459232197    0.4836470236350712    0.4606642629206192    
  0.45881103233837645    0.4589537699383347    0.44557688631545794    0.4360082027419767    0.4455768788400134    
  0.45895375201683136    0.45881100550763565    0.4606642800489537    0.4836469962984344    0.49922398847102895    
  0.4394274565766525    0.329435157268672    0.2788383896996848    0.09523180514790033    0.14969077592254817    
  0.32943512879618364    0.5230770275090073    0.5807348361337866    0.5684766552672676    0.5491444029771858    
  0.5026793927122957    0.43199805089745735    0.3974784312948345    0.431998050373815    0.5026793389631571    
  0.5491443798732797    0.5684766776579374    0.5807347776444846    0.5230770362820845    0.32943513867029894    
  0.14969078702700583    0.09523180514790033    0.050204498301402174    0.09523180148046848    0.2788383730569367    
  0.5242718461551595    0.6202351892866053    0.6140172118184957    0.5848950602505122    0.5136574141270263    
  0.41567566689497426    0.37058703381453095    0.4156757097483771    0.5136573785701793    0.5848950759693955    
  0.6140172166896866    0.6202351809774477    0.5242718236556339    0.27883836821120267    0.09523179580627165    
  0.050204498301402174    0.0923883520866669    0.14393457293092338    0.3101818877165944    0.4805590931584261    
  0.520681178550449    0.503340325815364    0.5031477179722215    0.5154978446957463    0.5190884188161909    
  0.5176603795049337    0.5190884416579106    0.5154978264070692    0.503147738788699    0.5033403392323068    
  0.5206811582261105    0.48055908670650377    0.3101818912448372    0.14393457016010952    0.0923883520866669    
  0.1495895169444278    0.20501526400812808    0.35630947919235784    0.4804685800864511    0.4920511490682398    
  0.4690361467501383    0.46966131508685194    0.48685746733594176    0.49906829532726993    0.5023552013590518    
  0.4990683102744129    0.4868574564686498    0.46966134563044487    0.46903616152898764    0.4920511560388578    
  0.4804685974449074    0.3563095001110295    0.2050152785684656    0.1495895169444278    0.34783335352458766    
  0.3863067848445196    0.45465601970076563    0.46490364396546857    0.42171284594839537    0.38871348282881774    
  0.3909321364267988    0.41644683269553245    0.44303251239038033    0.45405597778590084    0.4430325249879298    
  0.4164468171005658    0.3909321808731534    0.38871348993988764    0.4217128203486331    0.4649036005951898    
  0.4546560189189984    0.3863067809254927    0.34783335352458766    0.583009127093299    0.5678963023550482    
  0.5124210644991682    0.42422821647698    0.34622250723174525    0.30822195887902204    0.31119928626780397    
  0.3407620347371621    0.3743708930399334    0.3890268615083923    0.37437089456643263    0.34076203971607943    
  0.3111992540561392    0.3082219706058497    0.34622250914683095    0.42422820677771483    0.5124210803494702    
  0.5678962749177326    0.583009127093299    0.6800489991785257    0.6308674571274201    0.512414417546766    
  0.38627825761408047    0.2985209534365211    0.2601467504507139    0.2630988605038601    0.29306671801047995    
  0.32803663662498045    0.3434004768540547    0.32803664147678685    0.29306670835105114    0.26309888196033754    
  0.26014678189191487    0.2985209611749273    0.3862782422950217    0.5124143904892562    0.6308674125041054    
  0.6800489991785257    0.6796357692757933    0.6288695710314943    0.5075283520131514    0.3799398692151177    
  0.2922244819597975    0.2543590838586517    0.25784256708343156    0.2883561463392749    0.32386236188450485    
  0.33947807606934505    0.32386236498150583    0.2883561148886709    0.2578425829086854    0.2543591013346614    
  0.292224470395662    0.3799398590234955    0.5075283631846328    0.6288695186976913    0.6796357692757933    
  0.6026684902354448    0.5784747380383781    0.5053914899723856    0.40640188668059285    0.3262798989736923    
  0.28940803484577227    0.29437433295610604    0.3266808725471775    0.36342125326346486    0.3796368971269944    
  0.3634212481294945    0.32668086110774835    0.29437429615774724    0.2894080599546334    0.32627987309237705    
  0.40640188271300465    0.5053914619224936    0.5784746924631913    0.6026684902354448    0.41008545636172916    
  0.4344450672598485    0.4650504790422461    0.4417813035821825    0.38722548286500474    0.3545547689609473    
  0.36106785931645247    0.394582625290758    0.4315380036560117    0.44788189211937834    0.43153799516285346    
  0.3945826527577635    0.361067859625611    0.35455477655199513    0.3872254940490156    0.4417812723729576    
  0.4650504400766957    0.43444505708217257    0.41008545636172916    0.22161248713751427    0.2730013284016091    
  0.3907007020274542    0.46047802742086325    0.4460440579030504    0.4210930905285125    0.4289032688606659    
  0.46212862445888775    0.4961821136718226    0.5105787416204884    0.4961821024848287    0.4621285927784381    
  0.42890325798138945    0.4210930841922776    0.4460440388016218    0.46047804988449376    0.39070070361807224    
  0.27300129603486045    0.22161248713751427    0.15762254399758324    0.211627776283019    0.35361641877616035    
  0.46372342789476806    0.47031346274425967    0.4497281451247624    0.4582491639301114    0.4911145670223464    
  0.5227843403631972    0.5355409980450725    0.5227843412985836    0.4911145113332461    0.4582491698823805    
  0.4497281497918625    0.4703134056100813    0.4637233724527942    0.3536164072845716    0.21162778124525156    
  0.15762254399758324    0.2216124928640611    0.2730013117709634    0.39070072942604295    0.4604780206090677    
  0.4460440741468846    0.4210931097165308    0.42890328748115636    0.4621285705035242    0.49618209344649855    
  0.510578765861426    0.49618207426663435    0.46212854443210283    0.42890328478857703    0.42109307084092384    
  0.4460440491522415    0.4604780513869318    0.3907007337570092    0.27300132784995984    0.2216124928640611    
  0.4100854456946361    0.4344450731914773    0.46505043957151027    0.4417812829314363    0.38722549299667064    
  0.3545547835788543    0.36106782693174283    0.3945826750468595    0.4315380030278696    0.44788184709066076    
  0.4315380114604301    0.3945826241960474    0.3610678635096712    0.3545547679291282    0.38722548167194476    
  0.44178126545915003    0.46505045472569795    0.4344450548767317    0.4100854456946361    0.6026684613649979    
  0.5784747387178378    0.5053914808348534    0.40640191153049104    0.326279886323461    0.28940804761482597    
  0.29437431954232746    0.3266808637542383    0.36342125726582286    0.37963690646063386    0.3634212539527848    
  0.3266808832205239    0.29437432181368284    0.28940806070614183    0.32627987887106896    0.4064019225870229    
  0.5053914986144207    0.5784746655301003    0.6026684613649979    0.6796357863638208    0.6288695532315978    
  0.5075283516288412    0.37993988554876573    0.2922244557186899    0.25435909020152314    0.2578425790594193    
  0.28835614053674263    0.32386236614491815    0.33947813545959016    0.32386236693984116    0.28835611385555365    
  0.25784256918469156    0.25435911018245355    0.2922244659653542    0.3799398703455535    0.5075283547701193    
  0.6288695130994543    0.6796357863638208    0.6800489212622534    0.6308674694864451    0.5124143767179926    
  0.3862782420606146    0.2985209656752375    0.2601467470078573    0.2630988582368023    0.29306671897427866    
  0.3280366711944759    0.34340046342200015    0.32803665273784394    0.2930667085710517    0.26309885377117026    
  0.2601467576233361    0.29852096125798355    0.3862782456692194    0.5124144232159812    0.6308674403466086    
  0.6800489212622534    0.5830091343109232    0.5678962945712346    0.5124210511409164    0.42422820289971325    
  0.3462225169643807    0.3082219685652062    0.31119925632877316    0.3407620412027005    0.3743709059635253    
  0.3890268389275635    0.37437090580143917    0.34076201462661715    0.31119923632561824    0.30822196919568906    
  0.3462224724963588    0.42422821045061676    0.5124210724283437    0.5678962977677467    0.5830091343109232    
  0.3478333440955358    0.3863067857804328    0.45465599930300055    0.46490362711302236    0.42171280584016174    
  0.3887134672170537    0.3909321732184089    0.4164467994328823    0.4430325137200991    0.4540560100074365    
  0.44303251930200216    0.41644681924765947    0.3909321410461272    0.38871348113195864    0.42171281758596363    
  0.46490362436981364    0.4546560099784118    0.3863067993492686    0.3478333440955358    0.14958950998148784    
  0.20501527986477022    0.35630946673427866    0.48046856473419447    0.4920511691563008    0.4690361486577025    
  0.46966130380642523    0.48685752655722947    0.49906831294197945    0.50235517309676    0.4990683014243262    
  0.48685750610206835    0.4696612930056742    0.4690361631295502    0.4920511568790328    0.48046856267345756    
  0.35630945650994744    0.20501525862399894    0.14958950998148784    0.0923883520866669    0.14393457293092338    
  0.3101818877165944    0.4805590931584261    0.520681178550449    0.503340325815364    0.5031477179722215    
  0.5154978446957463    0.5190884188161909    0.5176603795049337    0.5190884416579106    0.5154978264070692    
  0.503147738788699    0.5033403392323068    0.5206811582261105    0.48055908670650377    0.3101818912448372    
  0.14393457016010952    0.0923883520866669    0.2570522805709401    0.3034375583531147    0.4002615285607872    
  0.4458927979071382    0.42483777143358165    0.40430959387240933    0.4205882947431636    0.4664616197580015    
  0.5146381237676587    0.5357209889961401    0.5146381447602574    0.4664615649648467    0.4205883198733439    
  0.404309622712641    0.42483776313021937    0.4458927775037415    0.4002615307620847    0.3034375661426103    
  0.2570522805709401    0.3181523781382742    0.3559823851983061    0.42418819577501404    0.43879090925297776    
  0.4041170708849404    0.3806400657674815    0.3956413350356813    0.4398592522328271    0.4872194520512627    
  0.5082674283913677    0.48721946647658326    0.43985922908601566    0.39564137400562016    0.38064005043376026    
  0.40411708040677546    0.43879093221887644    0.42418819279238457    0.3559823792211356    0.3181523781382742    
  0.47146938914252584    0.4778181678855634    0.46778809841841806    0.4154242746763824    0.3548494120668671    
  0.3260500046025547    0.3385546106294203    0.37947396056771193    0.4242591846869639    0.44431606229740195    
  0.42425919022038233    0.37947395212979224    0.33855464312924255    0.3260500081874521    0.3548493895379815    
  0.41542423683523894    0.4677881089136349    0.47781816623767204    0.47146938914252584    0.6043194851816572    
  0.572657286151617    0.4870039338206971    0.38357136052911917    0.3063647649225896    0.2741857914355267    
  0.2839029055172973    0.3211772244632143    0.36249394829854287    0.3807365081317165    0.36249394562208337    
  0.32117723441090934    0.2839028778789139    0.27418583007121794    0.3063647758646045    0.38357134605174986    
  0.4870039343717959    0.572657292787095    0.6043194851816572    0.6562578673993418    0.606866708487018    
  0.4894254973194383    0.36717028167546445    0.2845126979100904    0.2507789569850384    0.2580046059937797    
  0.29234284409253664    0.33123699374132914    0.34828788094636487    0.3312370036335177    0.29234283216651064    
  0.25800460844541606    0.25077897589578774    0.2845126739561385    0.3671702811596757    0.4894254854279725    
  0.6068666548285891    0.6562578673993418    0.6584780464588011    0.6134354582455939    0.5038288267454647    
  0.3855062057591152    0.3027084568161955    0.2676503869664678    0.2734814783306076    0.3062301641269524    
  0.34338668079723955    0.3595790514583671    0.3433866630464087    0.3062301610198651    0.2734814831882545    
  0.26765040593170863    0.30270846796600354    0.38550621167502575    0.5038288632698363    0.6134354166740488    
  0.6584780464588011    0.5538269362818663    0.5470149022092119    0.5094283286486658    0.43542482753768474    
  0.3641013430223828    0.32898773901367045    0.33315496266896527    0.3619204758711091    0.39282750259976795    
  0.4057719383667543    0.3928274850611242    0.36192048423766976    0.3331549404687545    0.32898777827011094    
  0.36410134233368296    0.4354248326546673    0.5094283203262087    0.5470148630750029    0.5538269362818663    
  0.30117043827161694    0.3481267047609796    0.4438911972558333    0.48409047814307565    0.45505670608887056    
  0.4254928451309377    0.4250377042301875    0.4400193693545695    0.4505254946076441    0.4531142049157712    
  0.4505254951011067    0.4400193523400543    0.4250377263452448    0.4254928807876534    0.45505671001641257    
  0.4840904291864826    0.44389116937385564    0.34812673222134416    0.30117043827161694    0.1086884454182797    
  0.16335929193351714    0.3331291027616076    0.5006824450788518    0.5384579225936639    0.520171841468725    
  0.5122758276131831    0.5039251528472845    0.4811150745109238    0.46740484753763134    0.4811150926380733    
  0.5039251098639397    0.5122757989910202    0.5201718302353641    0.5384579098093766    0.500682434119542    
  0.33312910259869044    0.163359278576272    0.1086884454182797    0.05967371020770085    0.10625684232108644    
  0.2827416552727615    0.49973166194738167    0.5722419936991758    0.5603552991814122    0.5483559857682404    
  0.5270480519398723    0.48637295044248274    0.46421647760823337    0.48637294290873023    0.5270480224264988    
  0.5483559371292603    0.5603553665106886    0.5722419651889111    0.49973166666600805    0.2827416442705438    
  0.1062568480862413    0.05967371020770085    0.10868843582347584    0.1633593012396898    0.3331291071503573    
  0.5006824705229389    0.5384579483497027    0.5201718441617675    0.512275856979308    0.5039251203540138    
  0.48111506727760756    0.46740485582976043    0.4811150563375784    0.5039250923804044    0.5122758707819712    
  0.5201718231228377    0.5384579229440486    0.5006824913024644    0.3331291201986128    0.16335929963225457    
  0.10868843582347584    0.30117043022721973    0.3481267192251077    0.4438912177122152    0.48409044427799786    
  0.4550567524892183    0.42549285149026755    0.4250377004229388    0.44001939568324777    0.450525461587138    
  0.45311415804641353    0.45052549472654657    0.44001933323962017    0.42503775302527796    0.42549287919975165    
  0.45505672431627625    0.4840904093053573    0.44389118101132047    0.34812670831403203    0.30117043022721973    
  0.5538269141619815    0.5470148760567982    0.5094283212280869    0.43542486259195906    0.36410133800456596    
  0.32898775016575904    0.3331549381426182    0.36192047317529863    0.3928274938427191    0.40577192376428234    
  0.392827495853904    0.36192046112168763    0.33315495641590853    0.3289877743533781    0.3641013598864166    
  0.43542486374383205    0.5094283228539814    0.547014857059191    0.5538269141619815    0.6584780612055856    
  0.6134354555563434    0.5038288325115297    0.3855062035903698    0.30270843686757215    0.2676503845659742    
  0.2734815080469504    0.30623015650362945    0.34338667296880315    0.3595790848689243    0.3433866703131608    
  0.3062301741832593    0.2734814900436822    0.26765040751029356    0.3027084396554628    0.3855062083970839    
  0.5038288390962203    0.6134353810912361    0.6584780612055856    0.6562578532587822    0.6068667240697662    
  0.48942548705459127    0.367170274145224    0.28451268993354334    0.2507789607445675    0.25800457979961583    
  0.2923428434901618    0.33123701822079227    0.34828790168349394    0.33123698737014273    0.2923428361972123    
  0.2580045883020132    0.2507789604729189    0.2845127062895424    0.36717028598581747    0.4894255045244368    
  0.6068666913284446    0.6562578532587822    0.6043195403146451    0.5726572926581851    0.4870039243583195    
  0.38357135089587663    0.3063647476200078    0.2741858202105001    0.2839028908412354    0.32117723354764294    
  0.36249393983981915    0.38073650253691466    0.36249395756545233    0.3211772118347264    0.28390287112516843    
  0.27418582749464615    0.3063647410647096    0.3835713515287473    0.4870039296914249    0.5726572557212868    
  0.6043195403146451    0.471469422900053    0.4778181706649987    0.4677881146140021    0.41542426774391245    
  0.3548493759341082    0.32605000480580076    0.3385546370570871    0.3794739712254428    0.4242591816453286    
  0.444316116188299    0.4242591572096593    0.37947395458431943    0.3385546218143034    0.3260500055702456    
  0.35484938472096994    0.4154242604309043    0.46778812006804116    0.4778181716356852    0.471469422900053    
  0.3181523487715137    0.3559823868551563    0.4241881803173545    0.43879089835612684    0.40411707372206124    
  0.3806400514378165    0.3956413370199635    0.43985928759078957    0.48721947649215086    0.5082674465572539    
  0.4872194512941021    0.43985922536283145    0.3956413287704474    0.38064006709171094    0.4041170591019001    
  0.43879092445006984    0.4241882014464171    0.35598237786987624    0.3181523487715137    0.2570522805709401    
  0.3034375583531147    0.4002615285607872    0.4458927979071382    0.42483777143358165    0.40430959387240933    
  0.4205882947431636    0.4664616197580015    0.5146381237676587    0.5357209889961401    0.5146381447602574    
  0.4664615649648467    0.4205883198733439    0.404309622712641    0.42483776313021937    0.4458927775037415    
  0.4002615307620847    0.3034375661426103    0.2570522805709401    0.46421752321751364    0.4674037172391992    
  0.4531152082823897    0.4057708841186202    0.3595799975544451    0.3482869287424    0.380737443969599    
  0.4443150215807738    0.5082685508676114    0.5357198035825227    0.5082685792443833    0.4443149585626378    
  0.3807374641360503    0.3482869226212807    0.359580019012794    0.4057708497452926    0.4531151963561888    
  0.4674037095981344    0.46421752321751364    0.4863718357878614    0.48111617632052317    0.4505244374080767    
  0.3928284802885536    0.34338572591982375    0.3312379561250677    0.36249297534792013    0.42426022648600464    
  0.48721833320770086    0.5146393210561437    0.4872183436107454    0.4242602027831708    0.3624929847962659    
  0.331237954681109    0.34338573187165267    0.39282849086059496    0.45052443904146294    0.48111618940434403    
  0.4863718357878614    0.5270492555431233    0.5039240089636239    0.440020451980573    0.3619195148611586    
  0.30623107453609544    0.29234194875233266    0.32117812637649895    0.37947297910736344    0.4398603272279612    
  0.4664605239319479    0.4398603113933695    0.37947294953290966    0.3211781560540035    0.2923419479687201    
  0.3062310509414563    0.36191947425286985    0.44002042440366596    0.503923988746473    0.5270492555431233    
  0.5483548230051931    0.5122770045377288    0.4250366931267763    0.33315588955943204    0.27348064688178364    
  0.25800543091912587    0.2839020268461435    0.3385555887313282    0.39564032801571286    0.4205893823898292    
  0.39564031964861246    0.3385555970805236    0.2839020094017018    0.25800545323260166    0.27348065109315833    
  0.3331558817398738    0.4250367050018289    0.5122770142488109    0.5483548230051931    0.5603565586756021    
  0.5201706518268597    0.42549392427991656    0.3289867964926848    0.2676512494517052    0.2507781203305528    
  0.2741866690834779    0.3260490841183229    0.38064103391944604    0.4043085919402644    0.380641032621979    
  0.3260490567086977    0.27418666757276    0.25077814652241903    0.2676512304431648    0.328986800272921    
  0.4254938892524029    0.5201706451835924    0.5603565586756021    0.5722407876185752    0.5384591008222824    
  0.45505562498504004    0.3641022923269336    0.3027075668516717    0.2845135664376778    0.3063638215698927    
  0.35485036100724543    0.4041160403072351    0.4248388022915063    0.40411600979355705    0.3548503476510023    
  0.30636382925800054    0.2845135843817002    0.3027075564862191    0.36410230425627893    0.45505564894245587    
  0.5384590316988024    0.5722407876185752    0.49973285077373136    0.5006813553677567    0.4840915681334952    
  0.43542377516028197    0.38550724032594824    0.36716931952260473    0.38357235861933237    0.41542324589207386    
  0.4387919694328726    0.44589175682106985    0.43879196935558284    0.4154232326587973    0.3835723291360785    
  0.36716935302843046    0.38550722998927883    0.4354237858683571    0.4840915581418586    0.5006813227353176    
  0.49973285077373136    0.2827407767624158    0.3331300590116623    0.44389013914428854    0.5094294443229785    
  0.5038277056704031    0.48942658083631413    0.48700279761583953    0.467789219117512    0.42418715787012495    
  0.4002626083143402    0.42418715525907974    0.46778918960053784    0.4870028102303195    0.4894266133251492    
  0.5038277125616776    0.5094294104227598    0.4438901186943772    0.33313004785837014    0.2827407767624158    
  0.10625746234966238    0.16335856948034277    0.34812768228066554    0.5470136885897158    0.6134367300305338    
  0.6068654763934322    0.5726584390948971    0.47781706544718516    0.3559833717323786    0.3034366574613127    
  0.35598337382056405    0.47781703425141936    0.5726584511879481    0.6068654820199341    0.613436670786135    
  0.5470137000774254    0.348127680029313    0.16335856472088503    0.10625746234966238    0.059673220696546715    
  0.10868905965807225    0.30116951286213817    0.5538280885702642    0.6584767997773117    0.6562591033520179    
  0.6043182168118124    0.4714704693694487    0.31815140658638613    0.2570531784223425    0.3181514113926696    
  0.47147043838466823    0.60431819640639    0.6562591529168518    0.6584767736220051    0.5538280790163363    
  0.3011694898834854    0.10868906252592585    0.059673220696546715    0.10625746256650571    0.1633585750991177    
  0.3481276913409436    0.5470137158146177    0.6134367300270289    0.6068655144598335    0.572658453788199    