#     DFTpy    
  CRYSTAL 
    
  PRIMVEC    
  2.1270417625709337    -3.684144402593713    0.0    
  2.1270417625709337    3.684144402593713    0.0    
  0.0    0.0    7.031394082927295    
  PRIMCOORD    
  4    1    
  Si    2.127041762570934    1.228048134197904    0.4430446254682059    
  Si    2.127041762570934    -1.228048134197905    3.958741666931853    
  Si    2.127041762570934    1.2280481341979048    3.0726524159954414    
  Si    2.127041762570934    -1.2280481341979048    6.588349457459088    
  BEGIN_BLOCK_DATAGRID_3D    
  3d_datagrid_density    
  BEGIN_DATAGRID_3D#0    
  19    19    31    
  0.0    0.0    0.0    
  2.1270417625709337    -3.684144402593713    0.0    
  2.1270417625709337    3.684144402593713    0.0    
  0.0    0.0    7.031394082927295    
  0.04220415026807673    0.04399015882130928    0.04999707438501632    0.06238531259120815    0.08491124686740263    
  0.12216971928780275    0.17597306666478932    0.2393216612299691    0.2934945371669021    0.3152913542089055    
  0.2934945777701716    0.239321661290022    0.1759730569849472    0.12216975467576673    0.08491121394796614    
  0.06238530571331016    0.04999706641445053    0.04399016787689063    0.04220415026807673    0.04399017618160608    
  0.04398757115939494    0.0478973602558887    0.057231846616833476    0.07523580008847071    0.10660544605680491    
  0.15554147246497596    0.21994209876601806    0.2854349317298979    0.3278873803753698    0.3278741067528095    
  0.2854421995575435    0.21997540093336    0.15551022076097562    0.1066046568861085    0.0752409639367103    
  0.0572329620061617    0.04789512843319904    0.04399017618160608    0.04999707789464496    0.04789735326268525    
  0.049997463260323734    0.057231899479898436    0.07259950630769642    0.10108011673659015    0.1483456178416065    
  0.21618573087924375    0.29304388249022045    0.3532246557713518    0.37535773823286395    0.3532308886585795    
  0.2929961807758923    0.21619242417786075    0.1483761179300765    0.10107458706668578    0.07259372760021816    
  0.05723295776918345    0.04999707789464496    0.062385318783683606    0.0572318351889928    0.05723189804974681    
  0.06238606403481442    0.07523418300700487    0.10107365308686475    0.14707767967367752    0.21758452794968805    
  0.3013466378912307    0.3651939037406384    0.39012236714730064    0.39013873585071723    0.365228763207313    
  0.3013542158528574    0.21756966085895996    0.14706304556844943    0.10107458338460487    0.07524095884395131    
  0.062385318783683606    0.08491124048511987    0.07523580991271119    0.07259951366174147    0.07523418760108583    
  0.0849199279388817    0.10660444942052627    0.14835798151763868    0.21757457896785232    0.3043085552137026    
  0.3604470682464004    0.35506251386150145    0.3395071752788588    0.35500574280955094    0.36045727327898525    
  0.30431465814484304    0.21756966291953442    0.14837609764600518    0.10660461706444078    0.08491124048511987    
  0.12216974952140133    0.10660546092264277    0.10108011712730981    0.10107365595126432    0.10660444339860324    
  0.12216019826296652    0.1555408885025152    0.21617609171737248    0.30135451533157465    0.3604657808021267    
  0.32978991945279507    0.2677156131355322    0.2677625152904506    0.3297846081862197    0.36045727526658905    
  0.3013542335327428    0.21619242113912224    0.15551021721574146    0.12216974952140133    0.17597305144683364    
  0.15554144504484788    0.14834563226024985    0.14707767319692133    0.1483579699313195    0.1555408566970833    
  0.17595134194123163    0.21997938169740866    0.2930081892657118    0.36522670045314176    0.3550037927753757    
  0.26776190922567855    0.22210425577017973    0.26776247186729457    0.35500577555879176    0.3652287270428747    
  0.292996198639355    0.21997539328847698    0.17597305144683364    0.23932167247802014    0.2199420974146192    
  0.2161857002807865    0.21758450928324405    0.2175746005635417    0.21617615130628862    0.21997940190736565    
  0.23930461979835968    0.2854436863787889    0.3532217513287719    0.3901326329535638    0.3395051051482579    
  0.26776186147325814    0.26771564488929556    0.3395072199640638    0.390138713467012    0.35323088442249306    
  0.28544219294935697    0.23932167247802014    0.29349455988544587    0.2854349508372914    0.2930438948018515    
  0.301346669312649    0.30430853129521196    0.30135452531481066    0.2930082305432577    0.28544369953837956    
  0.29350533129169853    0.32786909997666674    0.3753738080408129    0.3901325790090062    0.3550037915910104    
  0.32978992749602054    0.3550624438923476    0.3901223307365739    0.3753576859728083    0.3278740826423919    
  0.29349455988544587    0.3152913868650402    0.3278873468745183    0.35322466140275366    0.3651938520247086    
  0.36044704394778687    0.3604657317911841    0.3652266794496443    0.3532217127986724    0.32786912017939257    
  0.31530168344817966    0.3278691461325597    0.35322172436825844    0.36522661220231845    0.36046575527475166    
  0.36044700257607887    0.3651938981996747    0.3532245996095535    0.3278873685125232    0.3152913868650402    
  0.2934945719490403    0.3278740958117706    0.37535767552063004    0.3901223811123992    0.355062503547016    
  0.3297898820701092    0.35500385955785163    0.3901326119580331    0.37537372949013986    0.32786911807505803    
  0.29350540698508076    0.2854437364879627    0.2930082097767408    0.3013545555540147    0.30430857917240023    
  0.3013466240481256    0.2930438917507354    0.28543492558096445    0.2934945719490403    0.2393216848395418    
  0.28544224572690136    0.35323090137507873    0.3901387487783795    0.33950715480864496    0.26771560093046454    
  0.26776187882713415    0.3395051355514658    0.3901325321314743    0.35322181342628833    0.2854437612579465    
  0.23930465141926388    0.2199793605743301    0.2161761694846965    0.21757459756417452    0.21758452294842756    
  0.21618570963556327    0.2199420653693513    0.2393216848395418    0.17597306511425184    0.21997542066030992    
  0.29299621187836966    0.3652287216379498    0.35500576983739196    0.26776246246354823    0.22210425143368218    
  0.26776185626720467    0.3550037917585061    0.3652266607890144    0.2930081783840355    0.2199794019277052    
  0.17595130114824162    0.15554086521248495    0.1483579907199776    0.14707768876274638    0.14834560875401878    
  0.1555414503318581    0.17597306511425184    0.12216974285863941    0.15551017540679316    0.21619241774397988    
  0.30135423535790445    0.3604572830198812    0.329784608714944    0.26776250745408364    0.2677156367821358    
  0.3297898970100841    0.3604657617417204    0.30135455276659123    0.21617613387452    0.15554085409848084    
  0.12216017374012646    0.10660447473184205    0.10107366045310662    0.10108010773458562    0.1066054667290144    
  0.12216974285863941    0.08491124304774322    0.10660463322918394    0.1483761009802523    0.21756965175204476    
  0.30431461457605574    0.3604572860271848    0.35500580738412824    0.33950715009285326    0.35506244116278857    
  0.36044707525941033    0.3043085603591777    0.2175745923601448    0.14835797083628505    0.10660445432355399    
  0.08491992698950813    0.07523416936672064    0.07259950617235493    0.0752358003526835    0.08491124304774322    
  0.06238533465842238    0.07524095048440953    0.10107458033696888    0.1470630351126796    0.2175696746100027    
  0.3013542169295907    0.3652287226666834    0.39013869721197025    0.3901223437558573    0.3651938947402739    
  0.3013465962820594    0.21758452325093905    0.14707765993837305    0.10107364671781782    0.07523419103183009    
  0.06238606051589155    0.05723188944934805    0.057231840469634525    0.06238533465842238    0.04999708166978756    
  0.05723296588822851    0.07259373954086466    0.10107458860828948    0.14837609159826093    0.21619243701179197    
  0.29299616166996534    0.3532308985183833    0.375357668963337    0.35322457686869846    0.2930439256502045    
  0.2161857301697926    0.14834558953849866    0.101080100932658    0.07259950613835287    0.05723189847024291    
  0.04999744865403256    0.04789735404999887    0.04999708166978756    0.04399017206752012    0.04789513261877975    
  0.05723295938436014    0.07524097396072439    0.10660461112473399    0.15551018397310817    0.2199754588161835    
  0.2854421943868045    0.3278740681817369    0.32788740477611206    0.28543495322819007    0.21994208880887536    
  0.15554145562540694    0.10660545506417068    0.07523580062466373    0.05723184212454773    0.047897360415876236    
  0.04398757806433471    0.04399017206752012    0.04220415026807673    0.04399015882130928    0.04999707438501632    
  0.06238531259120815    0.08491124686740263    0.12216971928780275    0.17597306666478932    0.2393216612299691    
  0.2934945371669021    0.3152913542089055    0.2934945777701716    0.239321661290022    0.1759730569849472    
  0.12216975467576673    0.08491121394796614    0.06238530571331016    0.04999706641445053    0.04399016787689063    
  0.04220415026807673    0.04157581720632647    0.04330346585739748    0.04913791102949899    0.06113099235889494    
  0.08281362724859039    0.11831151453671872    0.1691608034505238    0.2287462881753743    0.2794397996018353    
  0.2997084880919945    0.2794067994617706    0.2287416027298764    0.1691958353277521    0.11830768722805367    
  0.08280123444251519    0.0611338542406883    0.049137041896118054    0.04330354702976767    0.04157581720632647    
  0.04330355473930785    0.043304260896085425    0.046718414519885246    0.054851588530608286    0.0704127776989939    
  0.09732963363063805    0.13893781403986294    0.1933146706771872    0.24867507487801394    0.2847822737446235    
  0.28478141852098904    0.2487032925758106    0.1933254670775515    0.138900017577384    0.09733068256569874    
  0.07042756693228214    0.054848261881782434    0.04671989977237693    0.04330355473930785    0.04913705338542162    
  0.04747242583349466    0.049137579480780944    0.05484659684060904    0.066973592634343    0.08928834001142781    
  0.1260320453182398    0.1788499439417957    0.24021472533633748    0.29107808622392084    0.310895445137018    
  0.291079186140231    0.24018095091985095    0.1788471878080665    0.1260704659812222    0.08928343335793446    
  0.06696061912706587    0.05484826182877406    0.04913705338542162    0.061133870955949826    0.05745046845024658    
  0.05744842855664703    0.06113705169631777    0.07041129357429794    0.08928235316409296    0.12284716745123475    
  0.17482310950193278    0.24104881963517083    0.30304666350332454    0.3387922080362143    0.33879853243626273    
  0.30304979345647415    0.24107622501918025    0.17482020645861063    0.12281646173039418    0.0892834286678059    
  0.07042756484296377    0.061133870955949826    0.08280125004831408    0.07666001848612836    0.07505128156962906    
  0.07665905282319643    0.08281713233096165    0.09733482294096553    0.12603519084582473    0.17482613792334997    
  0.24257052447700547    0.3096102751698942    0.3493962660795879    0.3599399162181008    0.3493831081994385    
  0.30961425600734976    0.24255122812276778    0.17482016698887076    0.12607043947611804    0.0973306524900511    
  0.08280125004831408    0.11830766996817041    0.10995802484339746    0.10767846601658758    0.10767640814135075    
  0.10994043432539981    0.11830201872623786    0.13893773702316156    0.17884066261648127    0.24105273659742013    
  0.3096231217236122    0.3491724399741741    0.3540612873772668    0.35407183545773213    0.34917346304741154    
  0.309614263154324    0.241076232272474    0.17884718947564812    0.13890001270941682    0.11830766996817041    
  0.16919585994260564    0.16150256822165707    0.16172928194006864    0.1628332722050323    0.16175764679809335    
  0.16150648304142307    0.169155292736656    0.19333207247806306    0.2402049633431681    0.303044372011214    
  0.3493823428406124    0.3540704221042517    0.3463720575905807    0.3540718025794034    0.34938314157152395    
  0.3030498483922396    0.24018094593807157    0.19332545459044828    0.16919585994260564    0.22874161421499148    
  0.22874745238030597    0.23789033950196065    0.2454198145804517    0.24538396443869281    0.23787698262290957    
  0.22880068225259734    0.22873245203616968    0.24867745424256382    0.29108811737507795    0.3387915311606488    
  0.3599457651135016    0.35407042061479516    0.35406131069546676    0.35993993965602306    0.33879846274600545    
  0.2910791552952686    0.24870326527970635    0.22874161421499148    0.2794067924690972    0.2960481165022821    
  0.3196882591842931    0.3329941235302001    0.3356271456861085    0.3330149639061255    0.31963318678058955    
  0.2960497222802039    0.2794422362569383    0.28476796251261327    0.3109025039952977    0.33879149230086625    
  0.3493823420697394    0.3491724510448825    0.3493962352606429    0.3387922027935678    0.31089539299209745    
  0.28478135702103136    0.2794067924690972    0.29970852887989285    0.33874858864744584    0.3773802723944249    
  0.37728736735140483    0.35162492899753    0.3516619737347605    0.37732769940085237    0.3773914072392972    
  0.3386987110305598    0.29973027219158255    0.2847679934845072    0.29108807987012636    0.3030442947838681    
  0.30962303058252105    0.30961026491742527    0.30304666324368723    0.2910780469169169    0.28478222373054896    
  0.29970852887989285    0.2794398803661929    0.3387092527598262    0.396360208302864    0.3755027326835437    
  0.28382190265881    0.236809805089996    0.2837433431546497    0.3755096260174932    0.39640430883862166    
  0.33869871998999435    0.2794423189015486    0.24867746178927497    0.24020493787004626    0.24105275976660184    
  0.24257058507387808    0.24104881374267875    0.24021472772238964    0.24867504629709256    0.2794398803661929    
  0.2287463390900996    0.29603732680915285    0.37739973842862173    0.3755421567730793    0.24324684829582274    
  0.13708221900576475    0.1371194430974416    0.2432616162875781    0.37550959270639217    0.3773914701269225    
  0.296049776980566    0.22873243487579065    0.1933320660272077    0.17884070224590237    0.17482615867408574    
  0.1748231259957267    0.17884993579207956    0.19331467270896754    0.2287463390900996    0.1691607981881771    
  0.22879900405170506    0.31963070039662433    0.3773265421623839    0.2837455559365146    0.1371201430776796    
  0.08686395893224085    0.13711941576319203    0.2837432735674288    0.37732770850864217    0.31963318406318675    
  0.22880068818267013    0.16915526480687954    0.1389377335428194    0.12603520823200218    0.12284716119827137    
  0.126032025804846    0.1389378030523782    0.1691607981881771    0.11831149656366065    0.16148987036722795    
  0.23789398107565715    0.33300808335256205    0.35163072951827523    0.23681998746641597    0.13712016557442572    
  0.13708224240517222    0.23680979174646588    0.35166197114356024    0.33301501584677035    0.23787696745728426    
  0.1615064784672084    0.11830200553160916    0.09733481452870064    0.08928236735308982    0.08928832636674587    
  0.09732963132636355    0.11831149656366065    0.08281362664969721    0.10994142022823256    0.16176140424381025    
  0.24537241139258817    0.33566968957539867    0.3516307136010727    0.28374562031963546    0.24324685599892396    
  0.28382192766397885    0.3516249182041493    0.33562719480488995    0.2453839261310775    0.16175763985580968    
  0.10994046787030835    0.08281711091585645    0.07041128813464317    0.06697359281374239    0.07041276693363942    
  0.08281362664969721    0.061131001425070504    0.07666767965528633    0.10766783013844294    0.16284950789714536    
  0.24537239824880105    0.3330080668051368    0.3773265682582072    0.3755421262381435    0.37550272752201397    
  0.37728739875574263    0.33299404527318605    0.24541983301385012    0.16283324644315927    0.10767642188792954    
  0.07665906643172235    0.06113704706477122    0.05484658903228073    0.054851589990116634    0.061131001425070504    
  0.04913791693866294    0.057448033685078254    0.07505199769753641    0.10766783862761209    0.16176139984460292    
  0.23789398520906596    0.3196306778240564    0.3773997897421877    0.39636023328685804    0.37738024221776023    
  0.3196882811347493    0.2378903942265016    0.16172927403554915    0.10767845412951665    0.07505128826522063    
  0.05744842838711636    0.04913756759973682    0.046718405242601214    0.04913791693866294    0.04330347905523126    
  0.047473415109263166    0.057448026500069235    0.0766676962359357    0.10994138912534639    0.16148987186786012    
  0.22879900668395506    0.2960372602639512    0.33870923242454753    0.3387485943526738    0.29604812517642126    
  0.2287474504996917    0.16150255014425213    0.10995802654038027    0.07666001449075949    0.05745046863200104    
  0.04747242620206863    0.04330426261067225    0.04330347905523126    0.04157581720632647    0.04330346585739748    
  0.04913791102949899    0.06113099235889494    0.08281362724859039    0.11831151453671872    0.1691608034505238    
  0.2287462881753743    0.2794397996018353    0.2997084880919945    0.2794067994617706    0.2287416027298764    
  0.1691958353277521    0.11830768722805367    0.08280123444251519    0.0611338542406883    0.049137041896118054    
  0.04330354702976767    0.04157581720632647    0.03977122539903284    0.04137010643950214    0.046743714833820456    
  0.05762431308831058    0.0769108269112795    0.10776020431225687    0.1510122131546587    0.20084601664084706    
  0.24260022938939613    0.259088583737229    0.24256234090681053    0.20083729434884615    0.15105387837989723    
  0.10775644597456377    0.07689417026938468    0.05762894176438336    0.046742310650730846    0.04137053592206652    
  0.03977122539903284    0.04137054067085629    0.041372506583343224    0.044226452792189466    0.05095161225346666    
  0.0635292291959999    0.08481398268986856    0.11695800129785974    0.15802509014313987    0.19924827912264917    
  0.22588966896865378    0.2258938117137405    0.19927550574243805    0.15803333949692994    0.11692060700513518    
  0.0848166558613791    0.06354498017265085    0.050947845143770515    0.04422843512791406    0.04137054067085629    
  0.04674231276596125    0.045514032338564984    0.046742186686255544    0.050946411919455724    0.05979328903943667    
  0.0758240630835422    0.1017206232599459    0.13822173773684363    0.1802637237151719    0.215435253119385    
  0.22930953294818374    0.21543550026995947    0.1802385354379409    0.13821462979912807    0.10175710384267617    
  0.07581961030013039    0.05977911041826271    0.05094784003880674    0.04674231276596125    0.057628952150853806    
  0.05533589700489599    0.05533508271005619    0.05763107459467065    0.06352862247723644    0.07581652420454382    
  0.09768938321328863    0.13121973068101853    0.17441998738911701    0.21734787609325854    0.24453770561546667    
  0.24454097412019796    0.21734291643832035    0.17444657327951665    0.13122307881494205    0.09765627421367937    
  0.07581961923408957    0.06354497506765322    0.057628952150853806    0.07689419440979352    0.07403321087195856    
  0.07337463857264721    0.07403297998034886    0.07691158495791846    0.08482141672344477    0.10172237062109551    
  0.13122802595554947    0.1737282434467957    0.22145645179982518    0.2591554904967727    0.2733421965533447    
  0.2591539558213385    0.2214618335409086    0.1737039330441666    0.13122307234873642    0.10175708794346063    
  0.08481663554515778    0.07689419440979352    0.10775644107294345    0.1059538418930564    0.10656799121361354    
  0.10656518358950874    0.10593247082204506    0.10775048454305279    0.11695780282522451    0.13820963080505386    
  0.17442181190075412    0.2214686748557377    0.2647275332468805    0.28921560735444696    0.2892161543012757    
  0.26472735721624796    0.22146182591010113    0.17444658458613496    0.13821461631187437    0.11692058784817214    
  0.10775644107294345    0.15105390400501112    0.15447123212672687    0.16104967686182942    0.16411964157614278    
  0.16108278050074534    0.15447872376774657    0.151011351181697    0.1580389430862101    0.1802637257712584    
  0.21733574615519688    0.2591541894982559    0.2892148620978377    0.299258739501577    0.28921612417050807    
  0.25915401422473455    0.21734291833122257    0.1802385039186447    0.1580333296135287    0.15105390400501112    
  0.20083735177597317    0.21655943252858237    0.2363855925608171    0.2490458105553166    0.24900787930924298    
  0.23636489126592572    0.21661398643123592    0.2008312565414772    0.19924637479764623    0.21544705680642215    
  0.24453679781081658    0.2733457163430028    0.28921484463017777    0.28921563917320803    0.27334221018502397    
  0.2445409451258169    0.21543545689742163    0.19927551918119002    0.20083735177597317    0.24256233640059854    
  0.2773765349259413    0.3141700007046575    0.33385374822843067    0.33774903596672506    0.33387786397825175    
  0.3141182193506713    0.2773738621655384    0.24260240275147496    0.22587773763628816    0.22931304976836178    
  0.24453678103975524    0.25915421001057    0.2647275616035492    0.2591554644376482    0.24453773628194195    
  0.22930952736721177    0.22589380602962586    0.24256233640059854    0.2590886328993669    0.3151480343011593    
  0.3654130949592627    0.3659358510870451    0.33565406041778467    0.33569072791846244    0.36597487694519854    
  0.36542733781499626    0.31508935999524906    0.2591153666068185    0.22587776162438836    0.215447042049526    
  0.21733569692837384    0.22146868611569845    0.22145643348157978    0.21734787251804263    0.21543519359723684    
  0.2258896929816532    0.2590886328993669    0.24260026636627505    0.31510909599762227    0.3810319218000976    
  0.3522484122354479    0.24804609281650994    0.1981351813742752    0.24797659235787922    0.3522430175143315    
  0.38109563914849676    0.31508938839096357    0.24260246441898334    0.19924638541176865    0.18026368307695306    
  0.17442179370455693    0.1737282642074701    0.1744199699328467    0.18026373550542188    0.19924827554493005    
  0.24260026636627505    0.20084607223754322    0.2773545338849112    0.3654367014470064    0.35228566209470896    
  0.20221598124494775    0.0978526333305593    0.09787720292904827    0.202238830206368    0.3522429546952801    
  0.36542738620311244    0.2773738960226415    0.20083127909244686    0.1580389446402574    0.1382096699231244    
  0.13122804183203632    0.13121972589334968    0.13822172993397885    0.15802505055788618    0.20084607223754322    
  0.15101221923821556    0.2166134579411966    0.3141187054456465    0.3659729071657403    0.2479795069777734    
  0.09787704574307993    0.05403189454388424    0.09787719362320742    0.2479765923831785    0.3659748730457401    
  0.31411820007690067    0.2166139941319031    0.151011347714793    0.11695780149873646    0.1017223660144359    
  0.09768938789328711    0.10172061018492214    0.11695798151139601    0.15101221923821556    0.10776020480978682    
  0.15446615157947058    0.23638204121660103    0.33387091343973924    0.33564674794848204    0.19815589091347469    
  0.09787707798513223    0.09785266220847816    0.19813516966045386    0.33569070612783924    0.3338779089972579    
  0.2363648655743287    0.15447871017408235    0.10775047893092257    0.08482143159801304    0.07581653096284705    
  0.07582406313832471    0.08481398185492382    0.10776020480978682    0.07691082459273485    0.10593157121349248    
  0.1610851216912889    0.2489886059910081    0.33781255930350984    0.33564672740382784    0.2479795842254552    
  0.20221596223720295    0.24804608467489986    0.3356540238094187    0.337749075212976    0.24900789668178885    
  0.16108280458189808    0.10593251430995573    0.076911564933115    0.06352861398979501    0.05979328305424677    
  0.06352922733124251    0.07691082459273485    0.05762432875905575    0.07404176561036786    0.10655480539418255    
  0.1641443351489549    0.2489886049892796    0.333870881022629    0.36597293009268167    0.35228566578158244    
  0.35224836261432335    0.36593588826368717    0.3338536907612406    0.2490457911281338    0.16411964984180102    
  0.1065651893554552    0.07403298864744522    0.057631074093445436    0.050946399103070576    0.050951602248542296    
  0.05762432875905575    0.046743717152838295    0.055333068292815424    0.07337765743925745    0.1065548308786173    
  0.16108512457966664    0.236382064451727    0.3141187339073602    0.36543677135468466    0.38103194285151076    
  0.36541312003019216    0.31417002695352364    0.2363855987263607    0.1610496680107927    0.10656798210796087    
  0.07337465987923786    0.0553350813632773    0.04674218560019882    0.04422644489437891    0.046743717152838295    
  0.04137012586498092    0.045516050966936325    0.055333060340877795    0.0740417914920918    0.10593157917481395    
  0.15446613894479638    0.21661344789060538    0.27735450626356734    0.3151090449999654    0.31514803411854214    
  0.27737652000282503    0.21655940723407807    0.15447121710719194    0.10595385938971068    0.0740332048201881    
  0.05533590151312358    0.04551403014329609    0.04137250291175115    0.04137012586498092    0.03977122539903284    
  0.04137010643950214    0.046743714833820456    0.05762431308831058    0.0769108269112795    0.10776020431225687    
  0.1510122131546587    0.20084601664084706    0.24260022938939613    0.259088583737229    0.24256234090681053    
  0.20083729434884615    0.15105387837989723    0.10775644597456377    0.07689417026938468    0.05762894176438336    
  0.046742310650730846    0.04137053592206652    0.03977122539903284    0.03716554388574065    0.03858747719907009    
  0.043288543956081095    0.052571662384466734    0.06852974019931236    0.09329635211739933    0.12693305437028185    
  0.16457784363442282    0.19544695258932168    0.2074922853671843    0.19541972915457978    0.16457466803885018    
  0.12696514661232197    0.09329238396924047    0.06851804691887814    0.052573628482126836    0.04328885011690305    
  0.03858800581947795    0.03716554388574065    0.03858801110586854    0.038588076812139084    0.0409267411102901    
  0.04631335316383127    0.05601602413751359    0.07184935631293844    0.09494448066334235    0.12343014818290284    
  0.15127219681960236    0.16896670957669374    0.16897132102997206    0.1512892573431672    0.12343615743630394    
  0.09491459159339789    0.07185316702374998    0.0560266118131493    0.04631161614000184    0.04092632797328347    
  0.03858801110586854    0.04328885184463803    0.042404487118287384    0.043288430512159734    0.04631102586161235    
  0.052503554765898235    0.063371934500007    0.08040435874425839    0.10360961236780847    0.12957552026985567    
  0.15092306200409217    0.15926372750703308    0.15092259221791407    0.1295586041439206    0.10360593920908209    
  0.08043150929866931    0.0633675847384071    0.05249464554297552    0.046311610293249234    0.04328885184463803    
  0.05257364070876648    0.051292296252851206    0.05129215015251889    0.05257463874845729    0.0560149344773161    
  0.06336721868417483    0.07644429009030283    0.09611953635403901    0.12096317460506238    0.145472193048645    
  0.16103694037663432    0.16104046977203695    0.14546915137921726    0.12098025644116538    0.09612053397473182    
  0.07642179210096997    0.06336758438473333    0.05602661625342112    0.05257364070876648    0.06851806083468094    
  0.06788727351949188    0.06789257232009553    0.06788726062864885    0.06853119694772121    0.07185495208433572    
  0.08040511743522154    0.09612541567897645    0.11903160053954356    0.1452063054028143    0.16674114875004406    
  0.1751800090223161    0.16673896152855994    0.14521011736762068    0.11901693721794884    0.09612053243041323    
  0.08043148850111476    0.07185314511963617    0.06851806083468094    0.09329236872702032    0.0955876908935522    
  0.09798351548879601    0.09798033514547333    0.09557259777285185    0.09328861339028177    0.09494418372447941    
  0.10360122205428954    0.12096476549299048    0.14521332726738587    0.16954475844755174    0.18499364183009506    
  0.1849973632237646    0.16954252302042108    0.14521013282415596    0.12098026417431096    0.1036059192112658    
  0.09491457116104748    0.09329236872702032    0.12696517074341615    0.13667919162787942    0.14656564177187778    
  0.1506630453043984    0.1465908338697094    0.13668156324884886    0.1269325821458828    0.12344108623040134    
  0.12957393427361275    0.14546634766134506    0.16673791710341077    0.18499663665852586    0.19215552407454253    
  0.1849973397117474    0.1667390038138668    0.14546915922450954    0.12955859091255537    0.12343616542806823    
  0.12696517074341615    0.16457469824916696    0.18809170160662278    0.21310071665690622    0.22869377583265563    
  0.2286624099299028    0.2130912270173161    0.18813570691097606    0.16456627773993524    0.15127190956156653    
  0.15092872849374903    0.16103891407705187    0.17518079873658016    0.1849965921229547    0.18499365020925473    
  0.1751799911934649    0.161040424940341    0.15092260712722474    0.15128926593501488    0.16457469824916696    
  0.19541972772844096    0.23765728947185122    0.28251714123651306    0.31141016489571843    0.3198763888601757    
  0.3114250532639213    0.28246726626193763    0.23766336703127916    0.19544508411026543    0.1689627753649192    
  0.1592630715026725    0.1610389051706736    0.16673794348376433    0.16954476308395197    0.16674114611718277    