#     DFTpy    
  CRYSTAL 
    
  PRIMVEC    
  3.430965517241379    0.0    0.0    
  0.0    3.430965517241379    0.0    
  0.0    0.0    3.430965517241379    
  PRIMCOORD    
  2    1    
  Si    0.0    0.0    0.0    
  Si    1.7154827586206896    1.7154827586206896    1.7154827586206896    
  BEGIN_BLOCK_DATAGRID_3D    
  3d_datagrid_density    
  BEGIN_DATAGRID_3D#0    
  15    15    15    
  0.0    0.0    0.0    
  3.430965517241379    0.0    0.0    
  0.0    3.430965517241379    0.0    
  0.0    0.0    3.430965517241379    
  0.06333952605337717    0.11695429490720334    0.28925706990165634    0.38579585601642696    0.29240267524316244    
  0.1810819471225236    0.12085233645067774    0.10323071114153315    0.12085235045507461    0.1810819001876974    
  0.29240258572134803    0.3857957511357065    0.2892571159923479    0.1169543295719966    0.06333952605337717    
  0.11695433181444109    0.17783552300323685    0.3320073254032196    0.38256947737715713    0.27967175485367235    
  0.17487824388579234    0.11876998943977007    0.10224387765825078    0.1187699237542252    0.1748783051050669    
  0.27967179535942677    0.3825694981915873    0.33200735241167284    0.1778356247313171    0.11695433181444109    
  0.2892572042210149    0.33200737122079627    0.3914104564168162    0.3502177169125883    0.24367534062163967    
  0.15860816018866816    0.11357680643589604    0.10002372740060186    0.11357683156726729    0.15860816812462866    
  0.24367529382716566    0.35021768884653975    0.39141048761272806    0.3320073178377754    0.2892572042210149    
  0.3857959453639482    0.38256943388956144    0.35021776629627344    0.27628145988585756    0.19571723166544802    
  0.13847409055219775    0.10770401646454392    0.09815635992565973    0.10770402096664693    0.13847411055451586    
  0.1957171483323563    0.27628144829791285    0.3502178007569572    0.3825693752098368    0.3857959453639482    
  0.29240273213390794    0.2796717061900039    0.24367534341527952    0.19571722116404    0.15172355103913554    
  0.12073778694632036    0.10355805757105452    0.09815643022826732    0.10355809456648396    0.12073775208149659    
  0.15172359640783573    0.19571713353563988    0.2436753519571969    0.27967169873818853    0.29240273213390794    
  0.18108201738867896    0.17487828046980095    0.15860811152065205    0.13847410931737972    0.12073777527885826    
  0.10839821505327074    0.1018742316659316    0.10002365028957134    0.10187425589674945    0.10839823573322784    
  0.1207377433651784    0.1384740346456918    0.15860810657704094    0.17487830403368443    0.18108201738867896    
  0.12085236846471681    0.11876993919228142    0.1135767779015172    0.10770403254952232    0.10355806741953336    
  0.10187422811059484    0.10191660477018782    0.1022439200883788    0.10191660075064322    0.10187428122005461    
  0.10355805433735736    0.10770405933432574    0.11357679832817608    0.11876999871843545    0.12085236846471681    
  0.10323073868787237    0.1022438066390322    0.10002366740265362    0.09815641562064341    0.09815640508969864    
  0.10002360940497557    0.10224386546754659    0.10323065548411853    0.1022438996754426    0.10002362105024451    
  0.09815642711722018    0.09815634694746181    0.10002371606948714    0.10224378956331254    0.10323073868787237    
  0.12085230868375177    0.11876997024135875    0.11357675146582838    0.10770403394643752    0.1035580615362174    
  0.10187422761198144    0.10191660085220236    0.10224390443752543    0.10191656821626631    0.10187425264485193    
  0.10355807717828888    0.10770404514690514    0.11357680096366779    0.11876999230332627    0.12085230868375177    
  0.18108200853174986    0.17487833928175958    0.158608136460685    0.1384740473028557    0.12073781499805104    
  0.10839820143724618    0.10187419964229891    0.10002363662593701    0.1018742947259508    0.10839819680353696    
  0.12073778968509503    0.1384740466057183    0.15860817246727568    0.17487826484873328    0.18108200853174986    
  0.2924027090796107    0.2796717543186278    0.24367532873427633    0.1957171653177027    0.151723591978785    
  0.1207377309031722    0.10355807284683487    0.09815641080195776    0.10355805087689772    0.12073777994748357    
  0.1517235705662125    0.19571729950253114    0.2436752945971631    0.2796716976790173    0.2924027090796107    
  0.38579584561878544    0.3825693721475162    0.35021764889823204    0.27628145767292467    0.19571720944457244    
  0.13847406500238818    0.10770401124128051    0.09815638161072394    0.10770402906078719    0.13847408209929205    
  0.19571714958685157    0.2762814657457381    0.35021779577036044    0.38256945014042454    0.38579584561878544    
  0.2892571848443436    0.3320074687860585    0.3914104269190546    0.3502176546792481    0.24367537604125417    
  0.1586081444350689    0.11357676954640349    0.10002371754898126    0.11357680537192646    0.15860816356435722    
  0.24367535105152582    0.3502176400198931    0.3914104646887269    0.33200728898467174    0.2892571848443436    
  0.11695431656467281    0.17783552298069527    0.33200736101615835    0.38256956890336696    0.2796717121538075    
  0.17487830291233564    0.11876998774893323    0.10224387027906943    0.11876997710759192    0.17487829733994498    
  0.2796717449853076    0.38256946714180995    0.33200737915768835    0.1778355561578497    0.11695431656467281    
  0.06333952605337717    0.11695429490720334    0.28925706990165634    0.38579585601642696    0.29240267524316244    
  0.1810819471225236    0.12085233645067774    0.10323071114153315    0.12085235045507461    0.1810819001876974    
  0.29240258572134803    0.3857957511357065    0.2892571159923479    0.1169543295719966    0.06333952605337717    
  0.11695435396471791    0.17783555871332604    0.332007335138497    0.3825695552716974    0.2796717732778948    
  0.17487827444313395    0.1187699846447917    0.10224382993247802    0.11877000229547457    0.1748782133503371    
  0.27967172641686416    0.38256945023570593    0.3320073578629235    0.17783557633088964    0.11695435396471791    
  0.17783559213264888    0.23820016983534167    0.36378198706354    0.37571100847917405    0.2681351872353862    
  0.16980630641143796    0.1174505932233083    0.10191668012163878    0.11745055863746104    0.16980636640143265    
  0.2681352084021482    0.3757110807390254    0.3637820914821784    0.23820022709224625    0.17783559213264888    
  0.3320074772250633    0.36378209578249043    0.3954577419760358    0.3388265761615458    0.23590539307820274    
  0.15674207319524283    0.11464311526836253    0.10187419183193844    0.11464315201773634    0.1567420795842162    
  0.23590536456351313    0.33882655870573497    0.395457820552718    0.363782033466576    0.3320074772250633    
  0.38256950113649063    0.3757109876396576    0.33882663114482414    0.2675047366348246    0.19344617025196628    
  0.14095956589759445    0.11245670974147466    0.10355811862690799    0.11245671353497982    0.14095960002551297    
  0.1934461308995529    0.26750476030377995    0.3388265831873568    0.3757110156743322    0.38256950113649063    
  0.27967185341467476    0.26813519673732594    0.23590544675165517    0.19344613526726506    0.15479702886648813    
  0.127580988175954    0.11245675577256765    0.1077039718583755    0.11245679441337793    0.12758099101509    
  0.1547970444928212    0.19344614646709413    0.23590542107850906    0.268135147714755    0.27967185341467476    
  0.17487833309753598    0.1698063609246793    0.15674203669665077    0.14095966155019202    0.127581019268924    
  0.11885095932467286    0.11464304290930938    0.11357687131166934    0.11464309344162937    0.1188509832785072    
  0.1275810170738599    0.14095954720875611    0.15674203876531864    0.16980630679468045    0.17487833309753598    
  0.1187700239600652    0.11745052569689785    0.11464310469358494    0.11245673078242649    0.11245675927090558    
  0.11464306258680133    0.11745062536604176    0.11876996177032453    0.11745064541811473    0.11464306565533568    
  0.11245676430242388    0.11245675745244818    0.11464311401751648    0.1174506234169946    0.1187700239600652    
  0.10224385586510513    0.10191665147535386    0.10187419181515665    0.10355815446410599    0.10770395971655276    
  0.11357683617126114    0.11876990530144728    0.12085237025401054    0.11876995800931224    0.11357678963507974    
  0.10770398079177461    0.10355810524577173    0.10187421903192932    0.10191665911027183    0.10224385586510513    
  0.11876999528388356    0.11745055171923575    0.1146430543232096    0.11245671687961312    0.11245675625890961    
  0.11464301525186986    0.11745067723187363    0.11876994886200314    0.11745063000441897    0.11464308556295968    
  0.11245672837619113    0.1124567330723447    0.11464311148704727    0.11745061492697527    0.11876999528388356    
  0.17487833398788458    0.1698064305805251    0.15674206688716166    0.14095957198228914    0.1275810472785975    
  0.11885095124664703    0.11464304596268889    0.11357686139899419    0.11464308853199005    0.11885095114037711    
  0.12758102675307031    0.1409595602053062    0.15674207184495303    0.1698063227960045    0.17487833398788458    
  0.2796718235931879    0.26813518939534053    0.23590537258531047    0.1934461068121411    0.1547969774194168    
  0.12758100046659968    0.11245677326608004    0.1077039924381234    0.11245674627936268    0.12758101524000495    
  0.1547969849034117    0.19344622418983082    0.23590539143314274    0.26813519848953793    0.2796718235931879    
  0.38256951620470875    0.3757109966533189    0.3388265083959746    0.26750475989252687    0.19344618605510625    
  0.14095959219233953    0.11245671278960719    0.10355814738059296    0.11245669740808742    0.14095959936204847    
  0.1934460912826927    0.26750479523314796    0.33882660948169563    0.3757110711991317    0.38256951620470875    
  0.3320075041972023    0.3637821113785147    0.3954577860348424    0.33882661937820857    0.23590546354339464    
  0.1567420485302997    0.11464310740643975    0.10187418713571822    0.11464313332115655    0.15674207728507694    
  0.23590538362546218    0.3388265187996701    0.3954577952862521    0.36378200917912035    0.3320075041972023    
  0.17783563121595994    0.2382001377986972    0.3637820278806152    0.375711170764966    0.2681351709491907    
  0.16980637795916328    0.1174505889811597    0.10191670770784238    0.11745060967644885    0.1698063844088671    
  0.268135183038961    0.37571112262965134    0.36378212383253555    0.23820021289072876    0.17783563121595994    
  0.11695435396471791    0.17783555871332604    0.332007335138497    0.3825695552716974    0.2796717732778948    
  0.17487827444313395    0.1187699846447917    0.10224382993247802    0.11877000229547457    0.1748782133503371    
  0.27967172641686416    0.38256945023570593    0.3320073578629235    0.17783557633088964    0.11695435396471791    
  0.2892571822575057    0.3320073347843153    0.3914104966909099    0.350217800510832    0.24367530631727258    
  0.15860811719006504    0.11357681986803878    0.10002369254735737    0.11357682787934008    0.15860810111309293    
  0.24367526877809834    0.35021769600243463    0.391410532413962    0.33200743969468133    0.2892571822575057    
  0.3320074883319551    0.36378201646120223    0.3954577843680367    0.33882658843478664    0.23590531699988146    
  0.15674203853561797    0.11464310841169473    0.10187426131672996    0.11464308714649515    0.156742055136249    
  0.23590545216259723    0.33882654277199337    0.3954578856108915    0.3637820185025714    0.3320074883319551    
  0.39141068716440686    0.3954577978855894    0.3739304285915276    0.3008275223361361    0.2150204933000173    
  0.1526456430064672    0.11885094006643089    0.10839826535853436    0.11885093373261434    0.1526456627963979    
  0.21502047407981245    0.30082745101450076    0.3739304929579302    0.3954578484955851    0.39141068716440686    
  0.3502177742146323    0.33882654547405255    0.3008275431351867    0.2435300645556489    0.18856636284280742    
  0.14937615617414599    0.12758106239151587    0.12073774502766045    0.12758110219969057    0.14937615303240587    
  0.18856631342700594    0.2435301183738031    0.3008275532418589    0.3388264676928675    0.3502177742146323    
  0.2436753612944195    0.23590531447266228    0.2150204702893851    0.18856636921290038    0.16526326906556538    
  0.14937620413381195    0.14095950908591837    0.13847410892244832    0.14095955903254112    0.14937621484497682    
  0.16526326390848423    0.1885663491879978    0.21502051059559743    0.235905301203016    0.2436753612944195    
  0.15860820813457285    0.15674208282241903    0.15264566957360745    0.14937621639612242    0.14937622111147963    
  0.15264560525702325    0.15674212844270174    0.1586081305043059    0.15674216872835522    0.1526456360215922    
  0.1493762154570236    0.14937614093101811    0.1526456023076284    0.15674206613592676    0.15860820813457285    
  0.11357684172803119    0.11464309914475612    0.11885092080429231    0.12758107398298923    0.14095955085885545    
  0.15674213667257425    0.16980630464533514    0.17487841826610692    0.16980630727760557    0.1567421434586411    
  0.1409595242397554    0.12758107918486933    0.11885090410391    0.11464312769518416    0.11357684172803119    
  0.10002373980993029    0.10187415859328688    0.10839823949216564    0.12073781694662257    0.13847414387137696    
  0.15860804086127583    0.174878344015973    0.18108198400523673    0.17487837206970708    0.15860799312572146    
  0.13847413602506162    0.12073770015009079    0.10839830004677153    0.10187417530421329    0.10002373980993029    
  0.11357681171426497    0.11464307516261905    0.11885088722371384    0.12758105190300667    0.14095952637340678    
  0.15674215997278984    0.1698063259900991    0.17487841511076707    0.1698062834915085    0.1567421664969436    
  0.14095953064688496    0.12758108667803522    0.11885091544029683    0.11464312545777199    0.11357681171426497    
  0.15860816593810062    0.15674209732237832    0.15264564186369278    0.14937614559173676    0.1493762299987352    
  0.15264558360854205    0.1567421476922963    0.1586081095119768    0.15674219049290458    0.1526456031599869    
  0.1493762358912827    0.14937611017141758    0.152645616703756    0.15674204950282153    0.15860816593810062    
  0.24367534478136027    0.23590539505260422    0.21502045240990342    0.18856637796325684    0.16526321730958288    
  0.14937618458846338    0.14095953538313596    0.13847412685301114    0.14095953864562139    0.14937623353724253    
  0.1652631726315657    0.1885664353811313    0.215020490169512    0.23590536242729127    0.24367534478136027    
  0.3502177415054833    0.3388265548523791    0.3008274772370418    0.24353010040802167    0.18856639087984042    
  0.14937617492498348    0.12758104660894617    0.12073774669729517    0.12758104711728574    0.14937616137071882    
  0.18856632977507765    0.24353005645187026    0.3008275437386496    0.33882655196845163    0.3502177415054833    
  0.3914106644517232    0.3954579310719364    0.3739304269273834    0.30082753726122513    0.2150204635683726    
  0.15264568154083216    0.11885091991122632    0.10839828886828122    0.11885094445550438    0.15264564627202362    
  0.21502048050141356    0.30082748849654856    0.3739304668952414    0.3954579075177515    0.3914106644517232    
  0.3320074832685787    0.3637819942041837    0.3954578082397625    0.33882665383610466    0.2359053507837889    
  0.15674205535715544    0.11464313142190279    0.1018742140107707    0.1146431461933864    0.1567420736065202    
  0.23590536684510635    0.33882658285057266    0.3954579024805943    0.36378205982968165    0.3320074832685787    
  0.2892571822575057    0.3320073347843153    0.3914104966909099    0.350217800510832    0.24367530631727258    
  0.15860811719006504    0.11357681986803878    0.10002369254735737    0.11357682787934008    0.15860810111309293    
  0.24367526877809834    0.35021769600243463    0.391410532413962    0.33200743969468133    0.2892571822575057    
  0.38579593483471536    0.3825693862999172    0.35021769765288624    0.2762814452184101    0.19571722881807965    
  0.13847403113191326    0.10770405250783524    0.09815637866835468    0.10770405150832132    0.1384740334732188    
  0.19571719042522223    0.2762813364123003    0.35021773087171465    0.3825694662116491    0.38579593483471536    
  0.3825695428031917    0.375711043295476    0.33882650218129134    0.2675047459946244    0.1934460947513491    
  0.14095958347206627    0.11245672072665032    0.1035581828060762    0.11245669349347347    0.14095958728916166    
  0.19344618720553722    0.2675047888582186    0.33882660458107083    0.3757110339291456    0.3825695428031917    
  0.3502177567634206    0.3388265413918561    0.30082741552143943    0.24353006628536636    0.18856642816360308    
  0.14937620178693106    0.1275810877513409    0.12073772384067645    0.12758110236328607    0.14937614297365806    
  0.18856636711285701    0.24353008708344262    0.3008274268349403    0.3388265425147906    0.3502177567634206    
  0.27628144287728185    0.2675047047082929    0.24353012027404589    0.21256563986969906    0.18472880930795132    
  0.16526334031131323    0.15479696796035738    0.15172368450199306    0.15479701874723503    0.1652633581156133    
  0.1847287563227744    0.21256571640055838    0.24353009461972908    0.26750467022606467    0.27628144287728185    
  0.19571724792464434    0.19344607757644144    0.18856635215148232    0.18472879557879415    0.18472883725584785    
  0.18856631461781284    0.193446201427051    0.19571716193525815    0.19344626810337132    0.18856621490690523    
  0.18472887111792213    0.1847287829336956    0.1885663877667862    0.19344609535355162    0.19571724792464434    
  0.13847409248563863    0.14095962984462748    0.14937612216744767    0.1652633647760678    0.18856627286675676    
  0.21502047654239706    0.2359052926341232    0.24367544061434535    0.23590534870922675    0.21502052660939408    
  0.1885663260481502    0.16526336769482894    0.14937611776836177    0.14095958366336442    0.13847409248563863    
  0.10770408382578982    0.11245667652708115    0.12758108063442516    0.15479699655207704    0.19344628517531523    
  0.23590532871174366    0.26813530764765364    0.2796717588253438    0.26813532878336915    0.23590530445217212    
  0.1934462515097595    0.15479701026293494    0.12758107339701913    0.11245673465199876    0.10770408382578982    
  0.0981564243766468    0.10355814321786025    0.12073769143094223    0.15172378435584988    0.19571716036290976    
  0.24367534048228584    0.27967173231717907    0.2924027585947957    0.2796717001993992    0.2436753653641401    
  0.19571709923480446    0.15172366860800804    0.12073774251415108    0.10355811292179071    0.0981564243766468    
  0.10770407381275206    0.11245665939041719    0.12758105101528883    0.15479698226968638    0.1934462274859408    
  0.2359052640372345    0.26813536748262906    0.2796717564160744    0.26813534500068553    0.23590532128528321    
  0.19344626788323754    0.15479700621942014    0.12758105217881327    0.1124567281299574    0.10770407381275206    
  0.13847408420480267    0.14095963444259074    0.14937614692140727    0.16526334082887142    0.18856632556366226    
  0.2150205339338755    0.23590530779808555    0.24367541018215855    0.23590537663851222    0.21502055614245555    
  0.1885663199677017    0.16526336507303177    0.1493761078048469    0.1409595694683335    0.13847408420480267    
  0.19571728968897548    0.19344612882241802    0.18856637707834562    0.1847287741476164    0.18472884821116856    
  0.18856625658664553    0.19344627800264344    0.1957171601944825    0.19344624719749767    0.1885663276779085    
  0.18472881032551614    0.1847288642745893    0.18856636749986977    0.19344612507760972    0.19571728968897548    
  0.27628146046801727    0.26750474018628734    0.24353009529855085    0.21256574412496873    0.18472880337806405    
  0.16526337929631135    0.15479698776216877    0.15172373415490864    0.15479698163835584    0.16526343279925476    
  0.18472873288477865    0.2125656445651422    0.24353007741294125    0.2675046848443552    0.27628146046801727    
  0.3502178492331168    0.3388265590140715    0.30082746726174503    0.24353011961891183    0.18856638302404888    
  0.1493761920104138    0.12758105369114914    0.12073769539512008    0.12758111393754948    0.14937615475188282    
  0.18856635793380072    0.24353003308936805    0.3008274754758767    0.33882647510274344    0.3502178492331168    
  0.3825695728947039    0.3757109760221617    0.33882651230818234    0.26750483278629084    0.19344611282012528    
  0.14095961793242867    0.11245670684598123    0.10355816078327026    0.11245674808357585    0.14095962979439722    
  0.19344612967022512    0.26750477201902534    0.3388265820388733    0.37571107843827334    0.3825695728947039    
  0.38579593483471536    0.3825693862999172    0.35021769765288624    0.2762814452184101    0.19571722881807965    
  0.13847403113191326    0.10770405250783524    0.09815637866835468    0.10770405150832132    0.1384740334732188    
  0.19571719042522223    0.2762813364123003    0.35021773087171465    0.3825694662116491    0.38579593483471536    
  0.29240268000652875    0.27967177602013227    0.2436752997110727    0.19571725424384978    0.1517235836213432    
  0.12073775235388695    0.1035580949477177    0.09815644610494635    0.10355807696873813    0.12073774257068268    
  0.15172356985938992    0.19571716477887688    0.24367533724003496    0.27967176836372687    0.29240268000652875    
  0.27967184558099223    0.268135188860016    0.235905350966759    0.19344617714126286    0.15479702785584562    
  0.1275809597094261    0.11245677888917949    0.10770401661420388    0.11245675465646007    0.12758098700797357    
  0.15479707530064898    0.19344615936331702    0.2359054731155996    0.2681351805067586    0.27967184558099223    
  0.24367533298623098    0.23590540532557033    0.21502038200733734    0.18856637782999813    0.16526332753581077    
  0.14937626291534414    0.14095954004550756    0.13847413230096214    0.14095955293663834    0.1493762245008902    
  0.16526329664737327    0.188566370278242    0.21502040501713923    0.23590541416338426    0.24367533298623098    
  0.19571725716021213    0.1934461082506728    0.188566415924255    0.1847287541138915    0.1847288755122803    
  0.18856624036564837    0.1934462391066013    0.19571717640882033    0.19344628461317884    0.18856628874629863    
  0.18472884078163204    0.1847288296018151    0.18856638974507386    0.19344609926002898    0.19571725716021213    
  0.15172363137196912    0.1547969991233519    0.1652632543137158    0.18472887121562867    0.2125655420396292    
  0.24353019226853112    0.26750463459094276    0.2762814951292908    0.26750469947899885    0.24353009205760223    
  0.21256561290895956    0.18472886047753156    0.16526329131777015    0.15479700758051937    0.15172363137196912    
  0.12073778623630545    0.1275810099505237    0.14937623089288773    0.18856630165286117    0.24353014410113016    
  0.3008273523627291    0.338826650355137    0.35021764563049573    0.338826740013585    0.30082739897734384    
  0.2435301708329363    0.1885662797638458    0.14937622671901613    0.1275809612930008    0.12073778623630545    
  0.1035581198994373    0.11245673477439302    0.1409595632149478    0.1934462868978331    0.2675046189664269    
  0.33882666501489184    0.3757109595928082    0.38256970553846353    0.37571096339454413    0.33882665579625354    
  0.26750463694439885    0.1934463154776966    0.14095954199882454    0.1124567876982764    0.1035581198994373    
  0.09815647762750071    0.10770398406821619    0.13847413512711065    0.19571726666496933    0.27628152626507724    
  0.35021752224061287    0.38256957911992706    0.3857957500934312    0.38256958238022093    0.3502175190085742    
  0.2762814606543306    0.19571711394164654    0.13847418893067798    0.10770397433403181    0.09815647762750071    
  0.10355809972014274    0.11245673261981963    0.14095950103907506    0.19344621301258905    0.267504625627344    
  0.33882662651473333    0.3757110540239002    0.3825696410819977    0.3757110338197839    0.3388267190857966    
  0.2675046580648089    0.193446263899433    0.14095950252395867    0.11245677488569161    0.10355809972014274    
  0.12073782533612487    0.12758101035119476    0.14937621014508437    0.188566273449569    0.24353019007824583    
  0.3008273774137842    0.3388266643346966    0.3502176506092867    0.3388267085381588    0.3008273820141858    
  0.24353018015741906    0.18856627815112473    0.14937618296344965    0.12758095853328527    0.12073782533612487    
  0.15172364472080435    0.154797042841523    0.1652632974616393    0.18472884077199273    0.21256554270918931    
  0.24353014250319635    0.2675046860770339    0.27628151797691947    0.26750464326721207    0.2435302390250772    
  0.2125655182025423    0.1847289347959151    0.16526329987174826    0.15479703063304298    0.15172364472080435    
  0.19571722662831637    0.19344613709397426    0.18856640686676313    0.18472882719983116    0.18472888886908936    
  0.18856628220261043    0.1934462466358729    0.19571717442519126    0.19344626521670397    0.18856633884765983    
  0.18472880498205685    0.18472875604226574    0.1885664067267465    0.19344613831687388    0.19571722662831637    
  0.24367539305726693    0.2359054083362632    0.2150203995153631    0.18856641400751498    0.1652633065228092    
  0.14937623979518133    0.1409595364104692    0.1384741373069322    0.14095953932329022    0.1493762349790378    
  0.1652632850844081    0.18856635480435743    0.2150204108471999    0.23590538695775226    0.24367539305726693    
  0.2796718615741641    0.2681351357344488    0.23590535508696647    0.1934462277135497    0.15479702245682533    
  0.1275810266584134    0.1124567721178059    0.10770400606430101    0.11245680577021787    0.1275810185883674    
  0.15479700260521273    0.19344618874467998    0.23590540694813103    0.2681352287387971    0.2796718615741641    
  0.29240268000652875    0.27967177602013227    0.2436752997110727    0.19571725424384978    0.1517235836213432    
  0.12073775235388695    0.1035580949477177    0.09815644610494635    0.10355807696873813    0.12073774257068268    
  0.15172356985938992    0.19571716477887688    0.24367533724003496    0.27967176836372687    0.29240268000652875    
  0.18108207383152203    0.17487827276307474    0.1586081303119904    0.13847409750620127    0.12073778678979318    
  0.1083981970550117    0.10187426953577015    0.10002363506059912    0.10187426386512716    0.10839814471919958    
  0.12073776494016633    0.13847403803735833    0.1586081838748459    0.17487828593987448    0.18108207383152203    
  0.17487834194169474    0.16980635594362947    0.15674204323158036    0.140959644585281    0.12758094218066904    
  0.11885096195274586    0.11464303291934158    0.11357693819575988    0.11464300723344635    0.11885097916862906    
  0.12758100305778547    0.14095963515570215    0.15674209186015367    0.16980637268832113    0.17487834194169474    
  0.15860824627380846    0.15674204596974847    0.15264564529662528    0.14937614982260522    0.14937625046304293    
  0.15264559039021972    0.15674217528832768    0.15860805820984344    0.1567421864957372    0.15264558266954212    
  0.14937622866427738    0.14937612353767488    0.15264565621673656    0.15674205797131213    0.15860824627380846    
  0.13847409393255233    0.14095960680103115    0.14937620417281539    0.16526338046711206    0.1885662905134964    
  0.2150205548274546    0.2359052462281447    0.24367543317472484    0.23590535251945532    0.2150205593996228    
  0.18856622452124924    0.16526342943627303    0.1493761801895039    0.14095956251541694    0.13847409393255233    
  0.12073783678143941    0.1275809541590214    0.1493762349288171    0.1885662583577363    0.24353013127233183    
  0.30082739398532293    0.3388266324182966    0.3502176236357569    0.33882671432386063    0.30082736785109965    
  0.24353015646152118    0.18856623890902896    0.14937627425529434    0.12758093181305732    0.12073783678143941    
  0.1083982597657589    0.11885097012775234    0.15264556113829533    0.2150205770697111    0.30082737502957674    
  0.3739305837483191    0.39545768107987045    0.39141069118735705    0.3954577364798242    0.3739306675484295    
  0.30082735660649    0.2150205047855545    0.15264550857526663    0.11885099354764178    0.1083982597657589    
  0.10187430829767731    0.11464303043517186    0.15674214640651316    0.23590531291353298    0.33882663394361523    
  0.39545779384872787    0.363782205428887    0.33200733356895    0.3637821671046257    0.39545779244283563    
  0.33882664059643663    0.2359053215872824    0.1567421617308952    0.1146430564404577    0.10187430829767731    
  0.10002366589243653    0.11357684454061158    0.15860805540453668    0.2436755638203772    0.350217587250059    
  0.3914105658957583    0.3320072521007522    0.2892573229272402    0.3320072870893122    0.3914104792391441    
  0.35021757971769163    0.24367539275259315    0.15860808332047566    0.11357684446299049    0.10002366589243653    
  0.10187428853528924    0.11464303033676833    0.15674211635607926    0.235905324902798    0.3388266602052809    
  0.39545773728636624    0.36378220467341377    0.33200729340907315    0.3637821188949555    0.39545770356718196    
  0.33882666998241057    0.2359053359247018    0.15674216432981142    0.11464305354363885    0.10187428853528924    
  0.10839823095100551    0.11885101496045072    0.1526455792141711    0.2150205311196461    0.3008273887485636    