#     DFTpy    
  CRYSTAL 
    
  PRIMVEC    
  1.2921986983872304    -2.2381537990810547    0.0    
  1.2921986983872304    2.2381537990810547    0.0    
  0.0    0.0    2.4323357087586204    
  PRIMCOORD    
  1    1    
  Si    0.0    0.0    0.0    
  BEGIN_BLOCK_DATAGRID_3D    
  3d_datagrid_density    
  BEGIN_DATAGRID_3D#0    
  11    11    11    
  0.0    0.0    0.0    
  1.2921986983872304    -2.2381537990810547    0.0    
  1.2921986983872304    2.2381537990810547    0.0    
  0.0    0.0    2.4323357087586204    
  0.050916469154988375    0.10423458686563038    0.28601181389826874    0.4114318969263891    0.37648726774988495    
  0.34556968952289174    0.37648725967439256    0.4114319109057462    0.2860117717439075    0.10423457232931696    
  0.050916469154988375    0.10423458087935554    0.10395833749072542    0.22956524503577863    0.3891263751034523    
  0.39483219329439034    0.34393962351005214    0.3440699679814185    0.39471512030431255    0.3890381095380491    
  0.22952238795528335    0.10423458087935554    0.2860118266399041    0.22956522586805048    0.2865611889676993    
  0.3889321086335465    0.39817420635303424    0.34146078944091557    0.3145648220588835    0.3414381742336142    
  0.39837645986110076    0.38903813639292906    0.2860118266399041    0.41143195123188125    0.3891263805817022    
  0.38893213977763197    0.41107606170855765    0.3947109205930615    0.3416885739328843    0.30298227849331427    
  0.3030647719845761    0.3414382047323044    0.3947150537565093    0.41143195123188125    0.376487281798609    
  0.3948321956479642    0.39817419600140186    0.3947108822934316    0.37691153796705534    0.3440014578706679    
  0.31438347225893454    0.30298232386547985    0.31456484411638685    0.3440699667130798    0.376487281798609    
  0.34556968856423553    0.343939619473466    0.34146084618870265    0.3416885137675207    0.3440014643029985    
  0.34517198578232694    0.34400141416474195    0.34168856927155816    0.341460799886003    0.3439395702241747    
  0.34556968856423553    0.37648722974424187    0.34406997173400494    0.31456489429303314    0.30298231081080895    
  0.31438346484163593    0.34400146603704873    0.37691150322457323    0.39471095510601495    0.39817416093498254    
  0.39483224145254053    0.37648722974424187    0.4114319901514967    0.3947150887311536    0.34143821041511285    
  0.3030647362253708    0.30298230294066303    0.34168852897896534    0.394710898542551    0.41107606607439207    
  0.38893216529298497    0.38912634524061673    0.4114319901514967    0.28601181232158657    0.3890380641295132    
  0.3983764282310997    0.34143818097170114    0.3145648751000513    0.3414608058266245    0.3981741994818197    
  0.38893217127222157    0.28656119921293344    0.22956518629837946    0.28601181232158657    0.1042345586595784    
  0.22952237601379638    0.38903815420748006    0.3947150731058914    0.34406995177679894    0.3439396269161969    
  0.3948323101270071    0.38912638264251675    0.22956523392766381    0.10395834771714747    0.1042345586595784    
  0.050916469154988375    0.10423458686563038    0.28601181389826874    0.4114318969263891    0.37648726774988495    
  0.34556968952289174    0.37648725967439256    0.4114319109057462    0.2860117717439075    0.10423457232931696    
  0.050916469154988375    0.09978020459273877    0.16199417366155452    0.32583589523810236    0.4019526266030993    
  0.35217743901689574    0.3210344534480989    0.3521774625035445    0.4019526114356727    0.32583588383658807    
  0.16199416251162355    0.09978020459273877    0.16199415858321856    0.16169558311974722    0.2803267917628071    
  0.39471469696215933    0.37286884817491167    0.3198927376783771    0.31998973847609247    0.37277762804113307    
  0.3946687317366265    0.2802644144350198    0.16199415858321856    0.3258358971141488    0.28032678532485905    
  0.32630148063741693    0.3945700792592166    0.37805968916076377    0.3179531268426429    0.2920331642310481    
  0.31794187535489454    0.3781858448453637    0.3946687178793805    0.3258358971141488    0.40195263516738006    
  0.39471471033455413    0.3945700962751508    0.40167324260199383    0.37278776491669036    0.3181036015623447    
  0.2812180902891829    0.28126937811257624    0.3179419094395606    0.37277754001400315    0.40195263516738006    
  0.35217744561868786    0.3728688747506603    0.37805969658070654    0.3727877147139637    0.352491680875662    
  0.3199362395835631    0.2919145270131888    0.2812181367752113    0.29203318019455393    0.3199897271154359    
  0.35217744561868786    0.3210344668799937    0.3198927656650136    0.31795314283519055    0.3181035724661822    
  0.3199362429670895    0.32074217255592324    0.31993621842974607    0.31810358614715806    0.3179531290296328    
  0.3198927373989202    0.3210344668799937    0.3521773932206726    0.319989665854385    0.2920332205317567    
  0.28121811808536895    0.2919144868660304    0.3199362371021353    0.3524917039603747    0.3727877233219605    
  0.37805960016622964    0.3728688644898273    0.3521773932206726    0.4019526917855334    0.3727775603636278    
  0.3179419005535088    0.28126938930848244    0.2812181113283646    0.31810357945212764    0.3727877110094687    
  0.4016732582070554    0.39457009420493494    0.39471469918547936    0.4019526917855334    0.32583588633667765    
  0.39466865041536925    0.37818575793925835    0.3179418559802212    0.29203317523759187    0.3179531325599642    
  0.3780596330801713    0.3945701153147502    0.32630151476551766    0.28032672749944665    0.32583588633667765    
  0.16199416789116555    0.28026440330855795    0.3946687315267399    0.3727775735178214    0.31998970415305417    
  0.31989275990834853    0.37286889660552697    0.39471472064262797    0.28032677855373056    0.16169557528003536    
  0.16199416789116555    0.09978020459273877    0.16199417366155452    0.32583589523810236    0.4019526266030993    
  0.35217743901689574    0.3210344534480989    0.3521774625035445    0.4019526114356727    0.32583588383658807    
  0.16199416251162355    0.09978020459273877    0.2842462257505474    0.3300005298000277    0.3934240084974763    
  0.3638157027581292    0.29286185939864573    0.26334182248835275    0.2928618472493853    0.3638157690481447    
  0.393423969792309    0.3300005355124466    0.2842462257505474    0.3300004823739979    0.32982194066738824    
  0.38312846320400723    0.3840960731139829    0.3159057936210632    0.2628814059683398    0.2629103898287714    
  0.31587573064404484    0.3840874742436753    0.38308686053498614    0.3300004823739979    0.3934239941498366    
  0.3831284065324279    0.3936188216820502    0.38404658123412666    0.3237678978302527    0.26172042474877    
  0.23879818299730413    0.26171942874003545    0.3237989510117923    0.38408745510370906    0.3934239941498366    
  0.3638157456773704    0.3840960956138546    0.38404656453857894    0.3637180483278074    0.3158825696064654    
  0.26176578583847404    0.22965236636908742    0.22966949732681477    0.26171943164126626    0.3158756839982201    
  0.3638157456773704    0.2928618272814621    0.315905822296365    0.32376791104273006    0.3158825437440197    
  0.29296507569901703    0.2628886328768391    0.2387684651587719    0.22965243422591608    0.23879818762480476    
  0.2629103949788865    0.2928618272814621    0.26334181675422125    0.26288142902588574    0.26172048010958326    
  0.26176576155392706    0.26288864323176375    0.2632547531114143    0.2628886446433984    0.26176577615978514    
  0.2617204251857566    0.2628814288068114    0.26334181675422125    0.2928617885510796    0.2629103725547553    
  0.2387982170380469    0.22965239961005576    0.23876841949191938    0.26288866475414185    0.292965093604186    
  0.31588260475664337    0.32376786294873033    0.31590584094607516    0.2928617885510796    0.36381584457137917    
  0.3158756824233622    0.26171942548521065    0.22966946537480323    0.2296524159677474    0.26176577848201493    
  0.3158825855988826    0.36371803613017956    0.38404653152434565    0.3840960614574799    0.36381584457137917    
  0.3934239707497816    0.38408743387605465    0.3237989017744482    0.26171941375193847    0.23879816509399773    
  0.26172045666052246    0.3237679152167486    0.3840466420658025    0.39361885565627797    0.3831284417942277    
  0.3934239707497816    0.3300005217459877    0.383086857681848    0.38408743257290534    0.31587566934072303    
  0.26291038102156283    0.26288145926306206    0.31590584513824466    0.38409613898096573    0.3831284603532823    
  0.32982197143942016    0.3300005217459877    0.2842462257505474    0.3300005298000277    0.3934240084974763    
  0.3638157027581292    0.29286185939864573    0.26334182248835275    0.2928618472493853    0.3638157690481447    
  0.393423969792309    0.3300005355124466    0.2842462257505474    0.47103644616379725    0.4567112727398712    
  0.3962417182386926    0.3016124423937788    0.22804623396048007    0.20276774544915954    0.22804622153127566    
  0.30161246798820057    0.3962416810202385    0.45671122417277876    0.47103644616379725    0.45671117648821685    
  0.4566837311847163    0.41767652969083807    0.3349956870370637    0.2497440440775655    0.202745845916683    
  0.2027480505811723    0.24974114287108246    0.334987273906732    0.41767714738460643    0.45671117648821685    
  0.3962416807949147    0.417676461806579    0.3962775439698304    0.3349823705202274    0.25823432443195415    
  0.20245327739249624    0.18348866733856004    0.20245374816506143    0.25824086075966424    0.3349872903367268    
  0.3962416807949147    0.30161248445235495    0.3349957107103594    0.33498235182552333    0.301601608857233    
  0.24974364774371619    0.20245987760677492    0.1763427968242594    0.17634209612721552    0.20245376219975328    
  0.24974111547901479    0.30161248445235495    0.22804618854514722    0.24974405600959598    0.2582343292575061    
  0.24974360495912545    0.22805514293160592    0.20274721559764533    0.18348163022014471    0.17634284811615555    
  0.18348864257493325    0.20274806494701403    0.22804618854514722    0.20276777071229193    0.2027458616224702    
  0.20245331213200238    0.20245988590158104    0.20274725869207377    0.20275726956561252    0.20274725174781688    
  0.202459920568122    0.2024532966776743    0.20274585089673497    0.20276777071229193    0.22804619585511496    
  0.20274803469821742    0.18348867780847677    0.17634281727350778    0.18348160338283503    0.20274726203687557    
  0.22805518028064414    0.24974365911888555    0.2582343013970077    0.24974407135484683    0.22804619585511496    
  0.30161256621621074    0.24974110499872484    0.20245374155354942    0.17634206794062493    0.17634283228140002    
  0.20245986813728514    0.24974364606813854    0.3016015695362498    0.3349823301010951    0.3349957035749763    
  0.30161256621621074    0.39624166328473764    0.3349872117099842    0.25824081242145885    0.20245372102246215    
  0.18348865343462037    0.20245329382281826    0.25823433958224423    0.33498242627028557    0.3962775652077683    
  0.41767646146604087    0.39624166328473764    0.4567112971935612    0.41767719406364195    0.33498725603861434    
  0.24974109534922928    0.20274805101945617    0.2027458884043084    0.2497440862589528    0.3349957444518367    
  0.41767647155108273    0.45668372800014095    0.4567112971935612    0.47103644616379725    0.4567112727398712    
  0.3962417182386926    0.3016124423937788    0.22804623396048007    0.20276774544915954    0.22804622153127566    
  0.30161246798820057    0.3962416810202385    0.45671122417277876    0.47103644616379725    0.493521421533155    
  0.4518713507832386    0.3518086555063523    0.24918258649161784    0.1830321655705948    0.16135636568665082    
  0.18303218077888966    0.24918257772321625    0.3518086358476446    0.451871267886063    0.493521421533155    
  0.4518712825185395    0.451873112146912    0.38123062447643735    0.28206044985727713    0.20218081836746324    
  0.16164794096062332    0.16165024460687824    0.20217776207697988    0.2820553046593012    0.38123848321796683    
  0.4518712825185395    0.35180864480661445    0.3812305511031886    0.35181547871603885    0.28205888895046305    
  0.20995991256664243    0.16212301203941823    0.14606230146275725    0.16212238727746783    0.20996683908171054    
  0.28205529913890576    0.35180864480661445    0.24918261726841057    0.2820604704665101    0.282058873337697    
  0.249179932771446    0.20218064930963783    0.16212473237061212    0.14047611464720378    0.14047483199865934    
  0.16212239569611142    0.20217774340652084    0.24918261726841057    0.1830321782839927    0.20218080087209978    
  0.20995991152147087    0.2021806091561777    0.18303148324408364    0.161649879796567    0.1460590857368142    
  0.14047613762389333    0.14606229623328443    0.16165021535858712    0.1830321782839927    0.161356390388432    
  0.1616479416571037    0.1621230319468261    0.16212472488277707    0.1616499068810638    0.16135523297094884    
  0.16164988572460565    0.1621247489393242    0.16212301618453046    0.16164793384383877    0.161356390388432    
  0.1830321540143631    0.16165017188371844    0.1460623229000015    0.1404761286911701    0.14605905726820612    
  0.16164987014066634    0.1830315263049817    0.2021806111757915    0.20995987827705156    0.20218080214817313    
  0.1830321540143631    0.24918267525822238    0.20217774075356668    0.16212238832601747    0.14047482482290247    
  0.14047614042776713    0.16212470901221554    0.20218061026881973    0.24917988808717215    0.2820588957200229    
  0.2820604515308927    0.24918267525822238    0.35180863573618354    0.2820552805983094    0.20996679342695468    
  0.1621223631622776    0.14606227297640523    0.16212302889216806    0.20995987566577146    0.2820588880177902    
  0.35181548474766117    0.3812305434612016    0.35180863573618354    0.45187132718320167    0.3812385236307698    
  0.2820553094380768    0.20217771495650275    0.16165021991427536    0.1616479653556456    0.20218082474947258    
  0.28206047649097077    0.3812305644698303    0.45187308510848534    0.45187132718320167    0.493521421533155    
  0.4518713507832386    0.3518086555063523    0.24918258649161784    0.1830321655705948    0.16135636568665082    
  0.18303218077888966    0.24918257772321625    0.3518086358476446    0.451871267886063    0.493521421533155    
  0.4746145148225895    0.43060059843659443    0.32913808545743894    0.23007291460794763    0.1677127738743715    
  0.14726459606271805    0.1677127616357022    0.23007291852878592    0.3291380324880614    0.4306005151402535    
  0.4746145148225895    0.4306005131897706    0.43061365516163674    0.3583237869342911    0.2612573973361569    
  0.1857387609608031    0.1476591375231017    0.1476578668779496    0.18574022149857794    0.26125040654009124    
  0.3583342759286604    0.4306005131897706    0.3291380827766659    0.35832373545342544    0.3291386451755633    
  0.26125003766001176    0.19305532995440072    0.14836692363773823    0.13328189779440275    0.14836719156604775    
  0.193056717444627    0.2612504171426427    0.3291380827766659    0.23007296505880057    0.26125740678574133    
  0.2612500479746379    0.2300796160056281    0.18574245415476928    0.14836487283188998    0.12822518840707145    
  0.12822126176610035    0.14836722081256493    0.18574019842311174    0.23007296505880057    0.16771276460775897    
  0.1857387393082337    0.1930553218644525    0.18574243135924065    0.16770358260252377    0.14766098507176456    
  0.13327997550712037    0.12822521216083982    0.1332819013110026    0.14765785277410162    0.16771276460775897    
  0.1472646120164862    0.14765913633367217    0.14836695916294182    0.14836484987859794    0.14766100772830862    
  0.147267912207033    0.14766097080804136    0.14836487816029004    0.1483669386583926    0.1476591302710884    
  0.1472646120164862    0.1677127362190998    0.14765785619034685    0.13328192839649455    0.12822519650674982    
  0.13327997573805325    0.14766099198849747    0.1677035598414897    0.18574247650674677    0.19305530603663254    
  0.18573877875943168    0.1677127362190998    0.23007297946873853    0.18574022318519967    0.14836722030114227    
  0.1282212392868405    0.12822520176684274    0.14836484526951987    0.18574245438042206    0.23007961574571337    
  0.2612500757717781    0.2612573727084055    0.23007297946873853    0.3291380735293921    0.26125036989388606    
  0.1930566962658909    0.14836719880834365    0.13328193408225233    0.14836692924279693    0.19305533276380654    
  0.2612500696732611    0.32913863739371496    0.35832370296334265    0.3291380735293921    0.4306005443697229    
  0.35833427115890226    0.26125043270430187    0.18574020132159566    0.14765785171893153    0.147659150936474    
  0.18573883082894344    0.2612573960013547    0.3583237489470439    0.43061368612291256    0.4306005443697229    
  0.4746145148225895    0.43060059843659443    0.32913808545743894    0.23007291460794763    0.1677127738743715    
  0.14726459606271805    0.1677127616357022    0.23007291852878592    0.3291380324880614    0.4306005151402535    
  0.4746145148225895    0.4935214337851105    0.45187135231897535    0.35180865768079694    0.24918259086682717    
  0.18303216936442052    0.16135636097282735    0.1830321806137086    0.24918256574405925    0.3518086443191901    
  0.45187129092836276    0.4935214337851105    0.4518712826461585    0.45187309488833255    0.3812306131497747    
  0.28206046074919766    0.20218081240726646    0.161647929054404    0.16165024150512083    0.2021777628249738    
  0.28205531206352685    0.38123851459863456    0.4518712826461585    0.3518086567146976    0.3812305954082407    
  0.3518154602948141    0.2820588599758808    0.20995991810636166    0.1621230168613797    0.14606228588363615    
  0.16212236901264127    0.20996683264733612    0.28205528795908713    0.3518086567146976    0.24918259222333086    
  0.2820604818214973    0.28205886964231525    0.24917991444531606    0.20218065394754747    0.16212475681522706    
  0.14047612022166714    0.1404748247134076    0.16212239551313778    0.2021777231137396    0.24918259222333086    
  0.18303216993555832    0.20218080072442618    0.20995991455779328    0.2021806198368527    0.18303149349331554    
  0.16164988493776017    0.14605908403286536    0.14047613789124408    0.14606228528594328    0.1616502178448936    
  0.18303216993555832    0.16135639794989165    0.16164795015868547    0.16212303265369057    0.16212474016859385    
  0.16164990021191367    0.16135524924518402    0.16164987408631065    0.16212474966649618    0.16212303259746288    
  0.16164794884506742    0.16135639794989165    0.1830321345193103    0.16165017931147085    0.14606231832402458    
  0.1404761231004452    0.14605906279317096    0.1616498797461668    0.18303152141106832    0.20218062299833686    
  0.20995986555771204    0.20218082560855252    0.1830321345193103    0.24918264911655094    0.20217774935359314    
  0.16212239287746413    0.14047483041350106    0.14047612139263374    0.16212472847518697    0.20218062898511827    
  0.24917991857775715    0.2820588722218002    0.2820604644027284    0.24918264911655094    0.35180865328249555    
  0.28205526095514993    0.2099667894742627    0.16212236015660617    0.14606228055485315    0.16212302223097014    
  0.20995989152615546    0.2820588959966871    0.35181549032070264    0.38123052524319334    0.35180865328249555    
  0.4518713139692876    0.3812385285973635    0.28205532131401645    0.2021777322849722    0.16165021242886077    
  0.16164794407366545    0.20218083419220295    0.2820604711736185    0.38123058853508146    0.45187310834300376    
  0.4518713139692876    0.4935214337851105    0.45187135231897535    0.35180865768079694    0.24918259086682717    
  0.18303216936442052    0.16135636097282735    0.1830321806137086    0.24918256574405925    0.3518086443191901    
  0.45187129092836276    0.4935214337851105    0.4710364804819224    0.45671126959641173    0.39624170488477206    
  0.30161242871414434    0.22804623298456722    0.2027677505975013    0.22804621675638567    0.3016124783418176    
  0.39624165201629535    0.4567112530297061    0.4710364804819224    0.4567111943049188    0.45668371588365153    
  0.4176765134387828    0.33499571580966514    0.24974403787357924    0.20274583615552436    0.2027480493187996    
  0.24974113815427554    0.3349872595768574    0.4176771581085614    0.4567111943049188    0.39624167793183035    
  0.4176764366254136    0.3962775300352523    0.33498238583230927    0.258234328857844    0.20245327100093866    
  0.18348867004615887    0.2024537268201913    0.2582408566129628    0.3349872535381587    0.39624167793183035    
  0.30161245872174736    0.3349957201913126    0.33498235628629036    0.3016015923267555    0.24974364222326903    
  0.2024599022035293    0.1763428043389207    0.1763421011931987    0.20245374117327594    0.24974112656549852    
  0.30161245872174736    0.2280461979809665    0.24974405554646792    0.25823433483805275    0.24974360917194954    
  0.22805516828685057    0.20274724422225046    0.1834816374405629    0.17634286174451647    0.18348866434555297    
  0.2027480621400047    0.2280461979809665    0.20276775650905593    0.20274586853134538    0.20245331731789037    
  0.20245987312276778    0.20274724568919544    0.20275725251069976    0.20274724673176586    0.20245989328055558    
  0.20245328315780534    0.20274587123120205    0.20276775650905593    0.22804617392365362    0.20274804241778455    
  0.18348868817637357    0.1763428290850989    0.18348159739325715    0.2027472651767774    0.22805518556771331    
  0.24974367069016576    0.258234303768114    0.24974409154744862    0.22804617392365362    0.30161254092853296    
  0.24974113472813786    0.20245373650287332    0.17634207907224606    0.17634284139499987    0.20245987290559816    
  0.24974365002913465    0.3016015606416199    0.3349823429555485    0.3349956961329178    0.30161254092853296    
  0.39624165558216834    0.3349872519964273    0.258240825718027    0.2024537249871797    0.18348864526018346    
  0.20245330122595098    0.25823433642119004    0.33498243061683464    0.39627755492744104    0.41767647832707394    
  0.39624165558216834    0.4567112468676845    0.41767717615204486    0.3349872531854948    0.24974110649849432    
  0.20274804852179404    0.20274588293047913    0.2497440802849928    0.3349957699132642    0.4176764979758916    
  0.4566837501933219    0.4567112468676845    0.4710364804819224    0.45671126959641173    0.39624170488477206    
  0.30161242871414434    0.22804623298456722    0.2027677505975013    0.22804621675638567    0.3016124783418176    
  0.39624165201629535    0.4567112530297061    0.4710364804819224    0.2842462140844777    0.33000053457679746    
  0.39342402510837454    0.3638157304591863    0.29286185898127143    0.2633418039111761    0.29286184538290944    
  0.3638157447294731    0.39342399746014267    0.3300005101906632    0.2842462140844777    0.3300004693753528    
  0.32982194620732996    0.38312848697747515    0.3840960539372223    0.31590579155978654    0.2628814093228021    
  0.26291037403152245    0.31587570523112884    0.38408746270227306    0.38308682643602215    0.3300004693753528    
  0.3934239837319336    0.38312839667713605    0.39361883128577363    0.38404658247097373    0.32376790644472286    
  0.26172044272364436    0.23879818455987753    0.2617194374340248    0.3237989326104522    0.38408746826713713    
  0.3934239837319336    0.3638157510645646    0.3840960548080467    0.38404653915330467    0.3637180882962705    
  0.31588259229101473    0.2617657812121608    0.22965236651050022    0.2296694896996021    0.26171945387425183    
  0.31587568280331485    0.3638157510645646    0.29286181070492345    0.3159057977230944    0.3237678951402105    
  0.31588254809309824    0.2929650461824576    0.2628886287995409    0.23876846657605857    0.22965242951733417    
  0.23879816314541058    0.2629103984123356    0.29286181070492345    0.26334182689080976    0.2628814278775054    
  0.26172046458223297    0.26176576964770965    0.26288865033485626    0.26325477898104127    0.26288866613183537    
  0.2617658192199901    0.2617204566555487    0.2628814160488117    0.26334182689080976    0.2928618206553071    
  0.2629103724631082    0.23879820257069012    0.2296523867916712    0.23876843445950827    0.26288866774758657    
  0.29296508864523424    0.3158826105205341    0.3237678724723387    0.3159058313148128    0.2928618206553071    
  0.36381584667976163    0.31587566369158504    0.26171943903614336    0.22966945886534124    0.22965240435118336    
  0.261765758501488    0.31588258077593895    0.36371804729866386    0.3840465174741592    0.38409605833702104    
  0.36381584667976163    0.39342394889905224    0.3840873996694409    0.32379890025687197    0.2617194243813213    
  0.2387981716412237    0.26172045005983097    0.3237679045091111    0.38404664248648185    0.39361885698908666    
  0.3831284281568658    0.39342394889905224    0.33000054680313906    0.3830868853653689    0.3840874455970539    
  0.3158756816378112    0.2629103849679165    0.26288145727658724    0.3159058341149434    0.384096104166929    
  0.38312843388543527    0.32982195847580154    0.33000054680313906    0.2842462140844777    0.33000053457679746    
  0.39342402510837454    0.3638157304591863    0.29286185898127143    0.2633418039111761    0.29286184538290944    
  0.3638157447294731    0.39342399746014267    0.3300005101906632    0.2842462140844777    0.0997802039356437    
  0.1619941612571137    0.3258358886197386    0.40195263691277344    0.35217742345091313    0.3210344463222286    
  0.35217744486153535    0.4019526112193916    0.32583587290967886    0.16199415887520188    0.0997802039356437    
  0.16199416129351926    0.1616955838005344    0.2803267925626873    0.3947146763186831    0.3728688685831943    
  0.31989274448417304    0.31998975388492734    0.37277761643313345    0.3946686906296416    0.28026437511707875    
  0.16199416129351926    0.32583587845536416    0.28032674406223784    0.32630149147887383    0.3945701258387454    
  0.3780596860642687    0.31795312294895794    0.2920331875939927    0.31794189061911904    0.37818583579390186    
  0.3946687004411885    0.32583587845536416    0.4019526487078247    0.3947146803962233    0.39457009444600466    
  0.40167327005839015    0.3727877612372511    0.3181035913966346    0.2812180910821336    0.28126938852100464    
  0.3179418948998334    0.3727775644493954    0.4019526487078247    0.3521774609308609    0.3728688665364146    
  0.3780596760369128    0.37278769982088883    0.3524916797724789    0.3199362483527554    0.29191454786630333    
  0.28121814716412735    0.2920331973648498    0.31998971877533433    0.3521774609308609    0.3210344702913781    
  0.31989275389207594    0.31795314702574823    0.31810355675635665    0.31993626115174667    0.3207421506063196    
  0.31993623720500475    0.3181035963822315    0.3179531190797509    0.31989273899804027    0.3210344702913781    
  0.35217743154688913    0.3199896607838525    0.2920332395231428    0.2812181234382802    0.2919144815144874    
  0.3199362207222702    0.35249172464895095    0.37278771737332916    0.3780596347245921    0.37286885108739903    
  0.35217743154688913    0.40195273250406754    0.3727775582692207    0.317941895292842    0.2812693776964334    
  0.2812181400365905    0.3181035489059627    0.37278769292315617    0.40167323453371734    0.39457012790055634    
  0.3947146891611292    0.40195273250406754    0.32583586785111646    0.39466868329073024    0.37818577719075275    
  0.3179418591774921    0.29203315698046967    0.31795313820007604    0.37805961442162705    0.3945701164447563    
  0.3263015145014041    0.2803267374888209    0.32583586785111646    0.16199416025706592    0.28026440309939704    
  0.3946687160757089    0.372777545660279    0.31998971316367275    0.3198927852629493    0.3728688787965597    
  0.39471471642097117    0.2803267672450571    0.16169558077734691    0.16199416025706592    0.0997802039356437    
  0.1619941612571137    0.3258358886197386    0.40195263691277344    0.35217742345091313    0.3210344463222286    
  0.35217744486153535    0.4019526112193916    0.32583587290967886    0.16199415887520188    0.0997802039356437    
  0.050916469154988375    0.10423458686563038    0.28601181389826874    0.4114318969263891    0.37648726774988495    
  0.34556968952289174    0.37648725967439256    0.4114319109057462    0.2860117717439075    0.10423457232931696    
  0.050916469154988375    0.10423458087935554    0.10395833749072542    0.22956524503577863    0.3891263751034523    
  0.39483219329439034    0.34393962351005214    0.3440699679814185    0.39471512030431255    0.3890381095380491    
  0.22952238795528335    0.10423458087935554    0.2860118266399041    0.22956522586805048    0.2865611889676993    
  0.3889321086335465    0.39817420635303424    0.34146078944091557    0.3145648220588835    0.3414381742336142    
  0.39837645986110076    0.38903813639292906    0.2860118266399041    0.41143195123188125    0.3891263805817022    
  0.38893213977763197    0.41107606170855765    0.3947109205930615    0.3416885739328843    0.30298227849331427    
  0.3030647719845761    0.3414382047323044    0.3947150537565093    0.41143195123188125    0.376487281798609    
  0.3948321956479642    0.39817419600140186    0.3947108822934316    0.37691153796705534    0.3440014578706679    
  0.31438347225893454    0.30298232386547985    0.31456484411638685    0.3440699667130798    0.376487281798609    
  0.34556968856423553    0.343939619473466    0.34146084618870265    0.3416885137675207    0.3440014643029985    