#     DFTpy    
  CRYSTAL 
    
  PRIMVEC    
  7.040275862068965    0.0    0.0    
  0.0    7.040275862068965    0.0    
  0.0    0.0    7.040275862068965    
  PRIMCOORD    
  8    1    
  Si    0.0    0.0    0.0    
  Si    1.7600689655172412    1.7600689655172412    1.7600689655172412    
  Si    0.0    3.5201379310344825    3.5201379310344825    
  Si    1.7600689655172412    5.280206896551723    5.280206896551723    
  Si    3.5201379310344825    0.0    3.5201379310344825    
  Si    5.280206896551723    1.7600689655172412    5.280206896551723    
  Si    3.5201379310344825    3.5201379310344825    0.0    
  Si    5.280206896551723    5.280206896551723    1.7600689655172412    
  BEGIN_BLOCK_DATAGRID_3D    
  3d_datagrid_density    
  BEGIN_DATAGRID_3D#0    
  31    31    31    
  0.0    0.0    0.0    
  7.040275862068965    0.0    0.0    
  0.0    7.040275862068965    0.0    
  0.0    0.0    7.040275862068965    
  0.0951418464592947    0.16243566018921865    0.3681228363481006    0.47582787415073785    0.3398001267005587    
  0.17806932447403212    0.0858572360679073    0.04341809160147263    0.025001668702185096    0.017019014138416264    
  0.013489437851801267    0.011960964213576597    0.011356784557341917    0.011186462392107842    0.011168873915284159    
  0.011172703157700265    0.011168879706660565    0.011186452622987706    0.011356793788635867    0.011960952686911535    
  0.013489437454887883    0.01701899681993729    0.02500167686904407    0.04341807863934268    0.0858572562058291    
  0.17806931165400364    0.3398001528222816    0.4758277632978555    0.36812287895996376    0.16243565342344238    
  0.0951418464592947    0.16243569652788875    0.23602404096202553    0.4172978567258068    0.467581484287498    
  0.3191160722199224    0.16754363777482828    0.08224035140756882    0.04252119408734839    0.024996572885744167    
  0.01725938374318871    0.013750373355366151    0.01217151633428532    0.011495075660746016    0.011251902264697852    
  0.01118092854933535    0.011168873127419692    0.01118092059902993    0.01125188995461389    0.011495083409399445    
  0.012171529541855847    0.013750355328556754    0.01725939102743356    0.024996570635750937    0.04252121145184156    
  0.08224035755092679    0.16754364983310682    0.3191160044400004    0.46758147219982815    0.4172978966146254    
  0.23602403729050633    0.16243569652788875    0.3681228110129235    0.4172978809515257    0.48142449819219596    
  0.4149270241101544    0.26233590758343134    0.14046768610885604    0.07287019877196596    0.04022222618167325    
  0.025108430624197264    0.018034649344850467    0.014566525605032429    0.012821336161157186    0.011923308928346575    
  0.011466857571641823    0.011251900402859701    0.011186445313026242    0.011251894624689188    0.011466840780452299    
  0.011923318881792747    0.012821334140093723    0.014566519773693727    0.01803463739682563    0.02510844693015301    
  0.04022222448418433    0.07287020289747287    0.1404677019470782    0.26233592940353423    0.4149269296701485    
  0.4814246232237831    0.4172977740000389    0.3681228110129235    0.47582785856625154    0.4675814079186844    
  0.41492695168791965    0.3050054952864109    0.18889731303571722    0.10739405040482665    0.06126020281075493    
  0.03751063009737856    0.025596317932972477    0.01942129143308614    0.01598607218326909    0.013958308654431664    
  0.012701469917981144    0.011923322587314728    0.011495070894958666    0.011356796466280268    0.011495075323236507    
  0.011923315706175424    0.012701475756405423    0.013958314407543871    0.015986067235314386    0.01942128780558773    
  0.025596319333976436    0.03751065529475956    0.06126017685402849    0.10739406299608159    0.1888973161895894    
  0.30500551085238814    0.41492694938317426    0.46758140349397    0.47582785856625154    0.339800083314737    
  0.3191160130301926    0.26233592325178595    0.18889731122518208    0.12347793231043541    0.07799121310612536    
  0.050676320396122375    0.03530662048722784    0.026647934331543284    0.021444931670297828    0.018030287552591222    
  0.015647738204110157    0.013958307354964762    0.012821354029942882    0.012171512078710287    0.011960959936810586    
  0.012171524490675106    0.01282133640591239    0.013958318976551701    0.015647734350201187    0.01803028601630501    
  0.021444927668960327    0.0266479314439363    0.03530659222305953    0.05067632886862389    0.0779912102810754    
  0.12347791565009876    0.188897295340809    0.26233598738514224    0.3191160056339263    0.339800083314737    
  0.17806931378894056    0.1675436575199742    0.14046772626620727    0.10739406507186322    0.0779912129275002    
  0.05656279885955585    0.042668299935473095    0.03397083841938259    0.02823322383946655    0.024031153643935363    
  0.020704229519734368    0.018030275442767935    0.015986083037351956    0.014566530321778681    0.013750368788761774    
  0.013489444013019186    0.013750377036787775    0.01456652160008137    0.01598607474316735    0.018030289890965844    
  0.020704214600445508    0.02403116400803658    0.028233215488273844    0.03397085427656244    0.04266828303336344    
  0.05656283233336761    0.07799119633830875    0.1073940741137014    0.14046772598331875    0.16754361521794106    
  0.17806931378894056    0.0858572291293156    0.08224033217880294    0.07287021680338615    0.06126021293505708    
  0.05067631217067218    0.04266830023387534    0.03718298523610653    0.03329104750569314    0.030045052560817895    
  0.02696976137815029    0.024031169266574448    0.021444938373488785    0.019421276863766556    0.018034650645903896    
  0.017259393030053437    0.017019005310929338    0.01725939141024303    0.01803464689990205    0.019421299507769343    
  0.02144492452391208    0.02403116239670205    0.026969747924699698    0.030045077446518628    0.03329103463398717    
  0.03718300713831307    0.042668279452951895    0.05067631519529205    0.06126018225972314    0.0728702229975468    
  0.08224036865221433    0.0858572291293156    0.04341807240778498    0.04252118812476717    0.040222214186646094    
  0.037510645346145455    0.03530660172464765    0.03397083080794515    0.03329105056359518    0.03267473439746875    
  0.03162502584793028    0.03004506773316552    0.028233229896840576    0.02664791726450529    0.02559631816858904    
  0.025108439433006446    0.024996574730819943    0.025001671882429355    0.024996553658580518    0.025108442729538535    
  0.02559632229606996    0.026647914275110596    0.02823321742595759    0.030045064769990266    0.031625018241304835    
  0.03267474105775839    0.03329104270096488    0.03397085411057604    0.03530658844654333    0.0375106322565023    
  0.0402222243411404    0.04252120020131647    0.04341807240778498    0.025001668914256786    0.02499656718090607    
  0.0251084457327921    0.025596327708168668    0.02664792926902476    0.028233229028608767    0.030045072942041905    
  0.03162504873021322    0.03267473217348547    0.033291061191330344    0.033970830434721766    0.03530660640760764    
  0.037510646630274536    0.04022222262256563    0.04252120493989166    0.043418080228804536    0.0425211889632043    
  0.040222226800722356    0.03751065118952629    0.03530659012681686    0.03397085039757143    0.033291029298468916    
  0.03267473506231915    0.03162503306403014    0.03004507129780807    0.028233218652346626    0.026647931876193458    
  0.025596317391317236    0.025108446983393214    0.024996571458526615    0.025001668914256786    0.01701900089684202    
  0.017259381171413096    0.018034654465197086    0.019421284132170195    0.02144492959245203    0.024031161617848556    
  0.026969759305098533    0.030045074510102705    0.03329105906724741    0.03718296495713531    0.04266831881483071    
  0.050676328957128466    0.06126017815272723    0.07287022242466881    0.082240328057886    0.0858572350205811    
  0.08224033739264476    0.07287021851800143    0.06126018182942049    0.05067633168694494    0.04266827300369961    
  0.03718299905663241    0.0332910440934843    0.03004508463190199    0.026969756201477464    0.024031162674477136    
  0.021444938774077243    0.019421279958537332    0.01803465233358737    0.017259378349382952    0.01701900089684202    
  0.013489426090553557    0.013750365909406448    0.014566518279359099    0.01598608664928393    0.01803027788415582    
  0.0207042096935505    0.024031170040115665    0.028233224135914847    0.03397083906507585    0.04266828943574865    
  0.05656283555100273    0.07799122501383021    0.10739408024720505    0.14046774137405535    0.16754364109555553    
  0.17806935654913947    0.1675436703820999    0.1404677081076793    0.10739407551579613    0.07799120986479918    
  0.05656282940184455    0.042668293491747895    0.03397084445321288    0.028233217722859468    0.024031175528647992    
  0.020704206066494243    0.018030290853582022    0.015986071263558593    0.014566541774248798    0.01375036854077638    
  0.013489426090553557    0.01196095119877263    0.012171515494507727    0.012821342188020703    0.013958317506552093    
  0.015647746293203115    0.018030276879897368    0.021444934847118183    0.026647938973749882    0.03530661851388241    
  0.050676332516163235    0.07799123706411683    0.12347793444054146    0.1888972747607733    0.2623359487882066    
  0.31911599636981863    0.3398001470616142    0.31911603719966725    0.2623359349971413    0.1888973086752745    
  0.12347794619164439    0.07799120395922471    0.05067635297685881    0.03530658838653629    0.026647935191624224    
  0.021444927693411865    0.01803027583905154    0.015647731318937833    0.013958311362212416    0.012821348768857242    
  0.012171524278045232    0.01196095119877263    0.011356779842186788    0.011495073137837456    0.01192329997535679    
  0.012701484255525282    0.013958304714962944    0.015986074522066254    0.01942128179934984    0.025596307403568937    
  0.03751064399658172    0.06126020095484139    0.1073940751921102    0.18889729127250102    0.30500549802879984    
  0.4149269481652736    0.467581553660299    0.4758277834521393    0.4675814261608856    0.4149269371301405    
  0.3050055270020609    0.1888972721919595    0.10739407403311933    0.061260178960238235    0.03751065087524546    
  0.025596303781042974    0.019421294074888625    0.01598606937336887    0.013958318483562252    0.012701470946384305    
  0.011923308025014723    0.011495072016999727    0.011356779842186788    0.011186443273752084    0.011251892006248933    
  0.011466857223360076    0.011923322136416073    0.01282134202041736    0.014566514905506199    0.018034652692739784    
  0.0251084409620304    0.04022222858090536    0.07287019144462903    0.1404677069662506    0.2623359055366972    
  0.41492687938819567    0.48142448715325264    0.41729782065354853    0.368122769880672    0.41729779045086607    
  0.48142451915338963    0.41492694296080057    0.262335881766568    0.1404677009615913    0.07287021079018349    
  0.04022221835776521    0.025108447720959274    0.018034651304827294    0.01456652654172706    0.01282134129689217    
  0.011923318678212527    0.01146685963117899    0.011251893401892045    0.011186443273752084    0.011168871436360285    
  0.011180923912362969    0.011251906577847387    0.011495080214937841    0.012171518188118378    0.013750371398076576    
  0.017259375088897622    0.02499659156477139    0.0425212148055152    0.08224033643926881    0.16754368285834992    
  0.319116048737266    0.4675813879687638    0.4172978713118153    0.2360241248116509    0.1624356824988194    
  0.23602413962219027    0.41729781697006124    0.46758152230776057    0.3191159542310447    0.16754366082127442    
  0.08224032942711196    0.0425212051923319    0.024996555460834406    0.01725938728444068    0.013750360311819362    
  0.012171522445733832    0.011495073332766108    0.011251907029131236    0.011180924772741607    0.011168871436360285    
  0.011172703060543824    0.011168870173570385    0.011186446481561061    0.011356791343941817    0.011960958324965885    
  0.013489432355086749    0.0170190022901541    0.0250016644850318    0.04341808904806201    0.08585723906048506    
  0.17806936049514185    0.33980011517801006    0.47582774037121534    0.3681228794233964    0.16243567846243742    
  0.09514185869179871    0.16243564843396321    0.36812281505240557    0.4758277836889513    0.33980017787127226    
  0.17806932611660287    0.08585725319747692    0.04341807795380682    0.02500167201696905    0.017018995941176857    
  0.013489430835247044    0.011960957514535511    0.011356791155768535    0.011186456027532744    0.011168878851042357    
  0.011172703060543824    0.011168876315052895    0.011180917456715456    0.011251904371070955    0.011495074534375063    
  0.012171522802570308    0.013750371593460585    0.017259385117166133    0.024996584710369734    0.04252119135065708    
  0.08224034136610223    0.1675436706547908    0.3191159557822954    0.4675814530534697    0.41729783840419266    
  0.23602409363656401    0.16243565453604572    0.2360241150376286    0.41729779138395895    0.4675814271421297    
  0.31911601132698897    0.16754365870486781    0.08224034911076407    0.04252121861233216    0.024996561117726437    
  0.017259397075085524    0.013750355647773447    0.012171520852666777    0.011495065866299926    0.011251915679059058    
  0.011180924837839796    0.011168876315052895    0.01118644426436835    0.011251903186889116    0.011466860463306775    
  0.011923311116862404    0.012821336916109642    0.014566514893073567    0.01803465005303077    0.025108440013120542    
  0.04022222267164621    0.07287021856971779    0.14046769855707136    0.262335904091715    0.4149269619344186    
  0.4814245553336015    0.4172977980472767    0.36812280899232047    0.4172977957971548    0.48142464285649444    
  0.4149269747021265    0.26233593846156456    0.14046766229553745    0.0728702299783888    0.04022220172306084    
  0.025108447398694066    0.018034649058723318    0.014566529977826209    0.012821336895475793    0.011923318648105911    
  0.01146685711794059    0.01125190297944408    0.01118644426436835    0.011356790962479577    0.011495072567658644    
  0.011923309730007551    0.01270149075071735    0.013958316775942916    0.015986078218052053    0.01942128558418584    
  0.025596327181972436    0.03751063962421476    0.06126019420591655    0.10739405360290251    0.18889729248008616    
  0.30500546662347044    0.41492692291804667    0.4675814794367007    0.47582778242325907    0.46758141660968655    
  0.41492694875399544    0.30500553535257424    0.1888972783940934    0.10739407692419257    0.06126017763536685    
  0.037510657964388426    0.025596299801416304    0.01942130112829528    0.015986067306176733    0.013958316743610439    
  0.012701471897150873    0.011923315327274865    0.011495072883754733    0.011356790962479577    0.011960956520043484    
  0.012171516418538624    0.012821341847241331    0.013958321781230017    0.015647748760231037    0.01803027379865481    
  0.021444931394933718    0.026647940029926157    0.035306610051973296    0.0506763131006504    0.0779912210895268    
  0.12347790448994996    0.1888972848652047    0.26233597815749415    0.319116004381571    0.33980012118439706    
  0.3191160279338823    0.2623359681751882    0.1888973015317449    0.12347792014707537    0.07799119041173962    
  0.05067634523404123    0.03530658753745075    0.026647928298815664    0.021444933647332562    0.01803028734698222    
  0.01564773669036445    0.01395831665126852    0.01282134226612574    0.012171516701126261    0.011960956520043484    
  0.013489434779948937    0.013750363757078091    0.014566526731682329    0.015986076306214868    0.018030281655421143    
  0.020704204669842005    0.024031164656587216    0.028233234981170714    0.033970836856142    0.0426682906965361    
  0.056562832033349726    0.07799119526389692    0.1073940605377921    0.1404677468664662    0.16754364749727002    
  0.17806932618568647    0.1675436807714    0.14046767776082397    0.10739409548488667    0.07799119107932902    
  0.05656285165539979    0.042668305239141446    0.03397084764173883    0.02823321121705085    0.02403117512596098    
  0.020704209374780166    0.018030289378332388    0.015986066693717986    0.01456653148487491    0.013750364575493699    
  0.013489434779948937    0.01701899878510246    0.01725937842251724    0.01803464830664649    0.01942130013938558    
  0.021444938547463915    0.02403116909887312    0.026969748807154255    0.030045064769151638    0.03329103539664706    
  0.037182981371722566    0.04266829490532317    0.05067631914819348    0.06126017298369201    0.07287022196410085    
  0.0822403250610439    0.08585724876972073    0.08224035601667713    0.07287022060695883    0.06126018239157766    
  0.05067632547044438    0.04266828447858205    0.03718299654938039    0.033291018988060674    0.0300450737114855    
  0.02696974724179709    0.024031163456143586    0.0214449278337518    0.019421294770844973    0.018034653647654525    
  0.01725939414034639    0.01701899878510246    0.02500168032446932    0.024996565384444412    0.02510844193849178    
  0.0255963195961185    0.026647929214431057    0.02823321858833371    0.03004506058095369    0.03162502584986685    
  0.03267473618904053    0.03329104607147192    0.033970852228601335    0.035306588914768504    0.03751063856667516    
  0.0402222230071191    0.04252120770056012    0.04341807161320773    0.04252119554512726    0.04022220644679652    
  0.03751066345882961    0.03530657905143628    0.03397084291794363    0.033291036653540454    0.03267474770503513    
  0.03162501878995573    0.030045065470149217    0.028233233900759543    0.026647944195148886    0.025596300311367032    
  0.02510844818493331    0.024996559537738116    0.02500168032446932    0.04341808192813335    0.04252118862650831    
  0.04022221578406841    0.03751065402251442    0.03530661332550896    0.03397083908383506    0.03329104220158066    
  0.032674734064786444    0.031625027638617166    0.03004507395796359    0.02823322833252968    0.02664793224298274    
  0.025596306276786593    0.025108451584416436    0.024996568207338435    0.025001667191858496    0.02499655897578341    
  0.02510844387948406    0.025596314913145488    0.026647940323889358    0.028233217185740848    0.030045072673253983    
  0.03162502243361994    0.03267474776050181    0.03329102505461568    0.033970847600167706    0.03530660061070161    
  0.03751063732203008    0.040222227672797844    0.04252121329154974    0.04341808192813335    0.08585724525004719    
  0.08224032971676627    0.07287022608519163    0.06126019827712476    0.05067632483103219    0.04266827681860956    
  0.03718298460445192    0.033291061079561986    0.03004507184874079    0.026969751418981124    0.024031159916426886    
  0.021444929118829163    0.01942127101569704    0.018034649360436934    0.01725938641318812    0.01701899230829307    
  0.017259391561918313    0.018034643974482366    0.019421293255258876    0.021444927757025133    0.02403115796433495    
  0.026969755144023846    0.030045083666306174    0.033291036334695365    0.03718300501694975    0.042668297744430116    
  0.05067633122422969    0.06126017696370987    0.07287023264112212    0.08224032508447608    0.08585724525004719    
  0.17806934230282292    0.1675436452388292    0.14046772581648362    0.1073940797814832    0.07799121430177    
  0.05656280574443204    0.042668303649208296    0.03397084277833213    0.028233224984781435    0.024031156016647487    
  0.020704224485648626    0.01803028319740781    0.015986078628293425    0.014566537953247005    0.013750365401732488    
  0.013489438242208628    0.013750367399089391    0.014566531373640446    0.015986070694644115    0.018030290616216815    
  0.02070421120303833    0.024031171684930238    0.028233206416847862    0.03397084570573183    0.042668288690065205    
  0.05656283695857182    0.0779911913689878    0.10739408347951876    0.14046772608357885    0.16754362871393796    
  0.17806934230282292    0.3398001889626589    0.31911597868795466    0.26233593850899833    0.18889731695539042    
  0.12347792662324986    0.0779911986325596    0.050676314433558314    0.03530660542924181    0.026647926023656645    
  0.021444937040339698    0.01803028726379416    0.01564774210119689    0.013958311530959883    0.012821354038373046    
  0.01217151911847872    0.011960947718966244    0.012171526712970693    0.012821336198083443    0.013958327676645463    
  0.0156477314193136    0.01803028868380323    0.021444926423586374    0.02664792824105923    0.03530658398922292    
  0.05067633368834511    0.07799119483902178    0.12347793760633066    0.18889730420089706    0.26233595882428234    
  0.31911604552628703    0.3398001889626589    0.47582788177698077    0.4675814027222348    0.4149269711395695    
  0.30500554671052754    0.1888973224688504    0.10739406416138576    0.06126019680672552    0.0375106319082261    
  0.025596308380050066    0.019421295808052335    0.01598607674719164    0.013958301206524144    0.01270147104184971    
  0.011923323188420595    0.011495074200571435    0.011356788583791612    0.011495072232245088    0.01192331457722005    
  0.012701469545695638    0.013958318155747268    0.015986066203194402    0.019421293686301865    0.025596302421962196    
  0.0375106626472752    0.0612601782452908    0.107394110120692    0.18889730240473052    0.3050055086015593    
  0.4149269607375103    0.46758146718824395    0.47582788177698077    0.36812279162996636    0.4172977394666781    
  0.4814245369217842    0.4149270234153664    0.26233588094901716    0.14046770884360596    0.07287022084746994    
  0.04022222097140154    0.025108433139108297    0.018034647934469746    0.014566511226174625    0.012821340526830503    
  0.011923314920332752    0.011466855519470815    0.01125190857561554    0.011186443064481674    0.011251902050549014    
  0.01146684935201128    0.011923322095877478    0.012821340351041394    0.014566518817772853    0.01803463339935715    
  0.025108445179800095    0.040222209964216424    0.07287021662950009    0.1404676967297177    0.2623359443122666    
  0.4149269142329833    0.48142457177652004    0.4172977453810612    0.36812279162996636    0.16243568798451594    
  0.23602410543910762    0.41729785137200154    0.4675814774290173    0.31911602605431333    0.16754362892803912    
  0.08224034884251166    0.04252121367381732    0.024996581592110607    0.017259376743389447    0.013750369388425334    
  0.0121715153110418    0.011495060599793978    0.011251905287899844    0.011180923390922233    0.011168870606875901    
  0.011180919303624786    0.011251905718160165    0.011495071779240825    0.01217152365078096    0.013750367887403359    
  0.017259387669920512    0.0249965620685597    0.04252122070736273    0.08224032577001067    0.1675436763053198    
  0.31911598156115917    0.46758151638497586    0.4172979372524768    0.23602410584149752    0.16243568798451594    
  0.0951418464592947    0.16243566018921865    0.3681228363481006    0.47582787415073785    0.3398001267005587    
  0.17806932447403212    0.0858572360679073    0.04341809160147263    0.025001668702185096    0.017019014138416264    
  0.013489437851801267    0.011960964213576597    0.011356784557341917    0.011186462392107842    0.011168873915284159    
  0.011172703157700265    0.011168879706660565    0.011186452622987706    0.011356793788635867    0.011960952686911535    
  0.013489437454887883    0.01701899681993729    0.02500167686904407    0.04341807863934268    0.0858572562058291    
  0.17806931165400364    0.3398001528222816    0.4758277632978555    0.36812287895996376    0.16243565342344238    
  0.0951418464592947    0.16243565505514249    0.23602406719229646    0.41729787964616327    0.46758146501417863    
  0.31911603936089017    0.16754363958424148    0.08224034831774178    0.04252119593852677    0.024996583295273243    
  0.017259389895156397    0.013750370881504213    0.012171515997338152    0.011495079008802925    0.011251911763967858    
  0.011180923246003126    0.011168868996391496    0.011180926918915134    0.01125190883074585    0.011495084459147743    
  0.012171519843910806    0.013750368193895458    0.017259386533487478    0.02499657015689635    0.04252121809684798    
  0.0822403373256289    0.16754364738191485    0.31911605732587534    0.4675814814163856    0.41729787920117356    
  0.23602407886355065    0.16243565505514249    0.23602408141821024    0.30814686957919507    0.4547938033568828    
  0.457918068578702    0.30416365268095724    0.16220536561874577    0.08235481289349895    0.04436176050537166    
  0.02705716249578646    0.019088511792593004    0.015239231167341027    0.013298067050655017    0.012271093069698398    
  0.011721391537725495    0.011397579496811005    0.01118091783179946    0.011032631409484335    0.01097059941852809    
  0.01108521804123995    0.011604482544609522    0.012978196312829773    0.016172106725452176    0.023288176873431307    
  0.03943770697923511    0.0759325084447738    0.1540685412109517    0.2950953520331161    0.45010076628905443    
  0.4499681991982751    0.3062889082065007    0.23602408141821024    0.41729777747860197    0.4547937561501107    
  0.48668940072061984    0.40237798703777045    0.2555952994202236    0.14184529739928595    0.0776409061761378    
  0.04553022355394092    0.02989112136768705    0.022009777793093183    0.017704150777095803    0.015146958989175896    
  0.01351232082722028    0.012437291646698033    0.011721382384924567    0.011251901230585075    0.010970598279225547    
  0.010858192248677762    0.01097042418862499    0.011479441536873488    0.012764391954986468    0.015635470337733468    
  0.021804117444114545    0.03529862154290539    0.06477646099864476    0.12617959287518288    0.2383029113276467    
  0.3865385735641382    0.47577935109791086    0.44996810824406247    0.41729777747860197    0.4675814356444013    
  0.4579179829109    0.4023779708384066    0.29819015825782647    0.19135845641937513    0.11559732398197671    
  0.07122371015450701    0.04714390735655225    0.03406331856934221    0.026411150522672757    0.021413459187938626    
  0.017891709279729332    0.015336265719565336    0.013512322001592462    0.012271087431908901    0.011495084779361793    
  0.011085203001162424    0.010970420353853766    0.011157799749647935    0.0117471941583705    0.0130085503415955    
  0.015544748621062957    0.02059404921264964    0.030872325813242646    0.05194608810045583    0.09360617761290035    
  0.16815669491805532    0.27675991492581503    0.3865386282250337    0.4501007997061264    0.4675814356444013    
  0.31911602217113744    0.3041636839067035    0.25559532681692193    0.19135846091474704    0.13324801945339848    
  0.09181684148886199    0.06580880621331692    0.05002086044498062    0.03987010014449677    0.032464784970741144    
  0.02651274427665179    0.02166599849975098    0.017891716623029123    0.015146972090162044    0.01329805809379119    
  0.012171521297191078    0.01160449586788223    0.011479436758914543    0.011747196139468402    0.01243219113254836    
  0.013678712422519316    0.0158644614296537    0.019774693795189147    0.02696534780895473    0.040444017616747326    
  0.06516862313762292    0.10706239336553157    0.168156685491742    0.23830297255362376    0.295095322120802    
  0.31911602217113744    0.16754364023408122    0.16220535652372683    0.14184530442512036    0.11559733556718696    
  0.0918168331198431    0.07424076454904786    0.062418456788475685    0.054051806660294105    0.04690920302592181    
  0.03983718348688921    0.03284030277320201    0.02651273483340483    0.021413473850571404    0.017704155820342724    
  0.015239240145934361    0.013750374873457838    0.012978198447678673    0.012764388887034158    0.013008554503253817    
  0.013678726594187729    0.014821862001640835    0.016597987918608333    0.019404049893286392    0.023988162878034024    
  0.03172018994913675    0.044710782085783524    0.06516861845298438    0.09360617778314499    0.1261796064526148    
  0.15406854081340893    0.16754364023408122    0.08224032962772819    0.08235478540932778    0.07764092413148442    
  0.07122373633480335    0.06580878183424177    0.06241847246980046    0.06040766639918677    0.058045087337593955    
  0.05382422653687218    0.047444547247698914    0.03983719340473687    0.03246479985868098    0.026411124395875514    
  0.022009787037874668    0.019088517033065713    0.017259384107416544    0.016172114043594497    0.015635474621338453    
  0.015544760191609552    0.015864461273026608    0.016597988350088105    0.017755333862137217    0.019455762724397436    
  0.021962903332535515    0.025791362171700007    0.0317201802822924    0.040443999946363406    0.05194608832682928    
  0.06477647748872703    0.07593248181821198    0.08224032962772819    0.04252119416454665    0.0443617475853399    
  0.045530232424496685    0.04714392596501653    0.050020827454873545    0.05405179256559189    0.05804508707700713    
  0.060061065325486905    0.058663287922758864    0.05382423077972482    0.046909197786773604    0.0398700934565365    
  0.03406333544234892    0.02989111732192676    0.027057177476141833    0.024996570754576394    0.023288157797151026    
  0.02180411634651232    0.02059404788166549    0.019774691508772323    0.019404046007185198    0.019455752126545982    
  0.01988614912621915    0.020681954973033195    0.02196290546225311    0.023988164074750722    0.02696533149676448    
  0.0308723144162601    0.03529861218562683    0.0394377040845801    0.04252119416454665    0.024996575229315976    
  0.027057155741799597    0.029891126967921337    0.034063329949352725    0.03987010092025506    0.04690919567789951    