#     DFTpy    
  CRYSTAL 
    
  PRIMVEC    
  4.69655172413793    0.0    0.0    
  0.0    4.69655172413793    0.0    
  0.0    0.0    4.69655172413793    
  PRIMCOORD    
  4    1    
  Si    0.0    0.0    0.0    
  Si    0.0    2.348275862068965    2.348275862068965    
  Si    2.348275862068965    0.0    2.348275862068965    
  Si    2.348275862068965    2.348275862068965    0.0    
  BEGIN_BLOCK_DATAGRID_3D    
  3d_datagrid_density    
  BEGIN_DATAGRID_3D#0    
  21    21    21    
  0.0    0.0    0.0    
  4.69655172413793    0.0    0.0    
  0.0    4.69655172413793    0.0    
  0.0    0.0    4.69655172413793    
  0.07246183675807873    0.1266000287983512    0.30058272080734855    0.41233526931551584    0.3200431890919806    
  0.19033094520167607    0.11030558594069888    0.07068127120507962    0.05266988002640685    0.04519233176321175    
  0.04312870478734815    0.04519236412235463    0.052669857849843335    0.0706812902136338    0.11030551471810195    
  0.19033098464163162    0.32004317004918437    0.41233532117827537    0.30058271837822903    0.1266000298420718    
  0.07246183675807873    0.12660003206515089    0.18712802702880765    0.34434849511652427    0.40855684109915924    
  0.3032813473906436    0.1810519848503426    0.1071880074299773    0.07053361081146287    0.053871811838325484    
  0.047047153917650346    0.045192334921893944    0.04704716362722429    0.05387184563605187    0.07053357808189172    
  0.10718805986620553    0.181051972948394    0.3032814187617544    0.40855672674294347    0.34434851339032574    
  0.18712799327665988    0.12660003206515089    0.30058273064661994    0.3443484880850963    0.4096047677552877    
  0.3725646533097428    0.257132296209661    0.15789944005228967    0.10007970861985481    0.07140229013509951    
  0.058685436855640705    0.053871801195070915    0.05266987328020479    0.05387180802418216    0.05868540135390217    
  0.07140231805910811    0.10007966952880586    0.15789948953460234    0.25713227399615624    0.37256469392679264    
  0.40960474156698035    0.3443484989085582    0.30058273064661994    0.41233535927170295    0.40855676331826596    
  0.37256460813586817    0.2891996337339143    0.19737970019851633    0.13138413226498377    0.09438858885949676    
  0.07727499221868692    0.0714022614356539    0.07053359199050596    0.07068121317718565    0.07053359661663085    
  0.07140229732466234    0.0772749827113187    0.09438862778566823    0.1313840956298214    0.19737974657087995    
  0.28919959861184047    0.3725646841281576    0.4085567753749194    0.41233535927170295    0.3200431578931211    
  0.30328135424717856    0.25713229651796865    0.19737973776336676    0.14533614645946044    0.11188970859050668    
  0.09642982328023818    0.09438859181325088    0.1000797507167211    0.1071879559872838    0.11030562683333878    
  0.10718798471472045    0.10007971466479605    0.09438859896624993    0.09642979057306764    0.1118897518671212    
  0.1453360938169172    0.19737978072716533    0.2571322445580742    0.3032813896386731    0.3200431578931211    
  0.19033103670353138    0.18105194643309364    0.15789952535889895    0.13138412199203872    0.11188972111868327    
  0.10499047081119105    0.11188972214598361    0.13138418530643337    0.1578994425681047    0.18105208939293552    
  0.19033087000131313    0.18105205771191388    0.1578994241836011    0.13138415406862963    0.11188973950412959    
  0.1049904180400681    0.11188978998816758    0.13138408483523117    0.15789955723283094    0.18105192898260947    
  0.19033103670353138    0.11030550518738431    0.10718807363868871    0.10007966202575855    0.094388629459525    
  0.09642978589137159    0.1118897212675893    0.14533612709887228    0.1973796449002002    0.25713240565212003    
  0.30328120587813195    0.32004332196786933    0.3032812477496893    0.25713241106347323    0.19737968047355647    
  0.14533609939471917    0.11188976904389389    0.09642976831638682    0.09438866741908868    0.10007963656115612    
  0.10718807070569386    0.11030550518738431    0.07068131433179785    0.07053353421068731    0.07140234917116954    
  0.07727493963820378    0.09438863646076774    0.13138412395325957    0.19737968783923945    0.2891997111058841    
  0.372564534939342    0.408556951563614    0.41233509031541293    0.40855695473889875    0.3725645486457076    
  0.28919969208279095    0.1973797000533707    0.13138408573459306    0.09438867096459581    0.0772749186746376    
  0.07140236737043058    0.07053350585657421    0.07068131433179785    0.05266979512288511    0.05387189964976505    
  0.05868533819225359    0.0714023518427651    0.1000796520196872    0.15789949219703872    0.2571323085536319    
  0.37256454676254497    0.4096048635909911    0.34434835229371313    0.30058288411514494    0.34434835001520253    
  0.4096048388295651    0.37256461029395016    0.2571322549738431    0.1578995288241741    0.10007963122462203    
  0.07140236808050608    0.0586853450684663    0.05387189254585245    0.05266979512288511    0.0451924282252179    
  0.047047086185514585    0.053871895537741445    0.07053353261071146    0.10718806918175877    0.18105196883883054    
  0.30328134267533324    0.4085569084198006    0.34434836790363726    0.1871281059976092    0.1265999298523754    
  0.18712807384475533    0.3443484138702746    0.40855682611538663    0.3032813688464877    0.18105191486993694    
  0.10718809600906211    0.07053353715526507    0.05387189966632226    0.047047082043228675    0.0451924282252179    
  0.043128637363763676    0.04519240725353082    0.05266979081980267    0.07068134321599293    0.11030549552208929    
  0.19033097756426517    0.3200432542353851    0.41233521159895276    0.300582839379677    0.12659992118369956    
  0.07246190086714101    0.1265999432067485    0.30058283087852883    0.4123353298411914    0.3200431200488653    
  0.1903310086417758    0.11030548849354838    0.07068134411618661    0.052669775800070734    0.04519241143358779    
  0.043128637363763676    0.04519242342327343    0.04704709418624973    0.053871896877752894    0.07053352027488886    
  0.10718808572186037    0.18105192256108435    0.3032813292438797    0.4085568408445257    0.34434844151034477    
  0.1871280940582161    0.12659994095008495    0.18712806457521464    0.3443484940120614    0.4085568623559717    
  0.30328138141176353    0.18105191472808907    0.10718809958365196    0.07053350900766531    0.053871920739249866    
  0.047047073603828454    0.04519242342327343    0.05266978125127865    0.05387191447067864    0.05868532159972836    
  0.07140238013589952    0.10007962733557638    0.15789951522873602    0.2571322752447957    0.372564630197809    
  0.40960482500007345    0.34434841927685933    0.30058281737524134    0.34434842691329864    0.4096047484987698    
  0.37256470362311805    0.2571322252732864    0.1578995612931309    0.10007959917342961    0.07140238803838239    
  0.05868530174457446    0.05387190939672862    0.05266978125127865    0.07068137943900453    0.07053349304909201    
  0.07140238418908895    0.07727489393884948    0.0943886790360354    0.13138407408898994    0.19737975213592174    
  0.289199589854194    0.3725646594551828    0.40855685237105793    0.41233522277937856    0.40855682064422216    
  0.37256463204181467    0.28919958312167654    0.19737977501897902    0.13138401983761072    0.09438871366057788    
  0.07727488709601517    0.07140241561151195    0.07053347451908074    0.07068137943900453    0.11030546014578486    
  0.10718813666496209    0.1000796029043982    0.09438869239371957    0.09642976615709636    0.11188978130460486    
  0.14533608582144433    0.19737974760678567    0.2571323165371201    0.3032813130349025    0.3200432274016899    
  0.3032813824766883    0.25713224820819797    0.19737979140731354    0.1453360040388738    0.11188986039801625    
  0.09642970526551073    0.09438874184182149    0.10007958743401123    0.10718815633576403    0.11030546014578486    
  0.1903310955872771    0.1810518464630218    0.1578995937362805    0.13138403843913024    0.11188978847617607    
  0.10499041165488157    0.11188977731911796    0.13138411832718283    0.15789949015644295    0.18105197285968858    
  0.19033098429497483    0.18105195739410015    0.15789949035397716    0.13138408871917517    0.11188980387297814    
  0.10499035874340605    0.11188984253936517    0.13138399448285387    0.15789962331720067    0.18105185029757268    
  0.1903310955872771    0.3200430436633751    0.30328147627892266    0.25713221628296684    0.19737978140802184    
  0.1453360677230703    0.11188979385296251    0.09642975317468215    0.09438863362006725    0.1000796785354897    
  0.10718803928400723    0.11030556263233732    0.1071880254421762    0.1000796669639335    0.09438866219224769    
  0.09642972051262706    0.11188980161469067    0.14533601406902272    0.1973798484440523    0.25713215992640137    
  0.303281481379078    0.3200430436633751    0.4123354372900945    0.4085566972290245    0.3725647162371371    
  0.2891995543652138    0.1973797689291169    0.13138407626169785    0.09438865149724401    0.07727495129498374    
  0.07140232127194332    0.07053356942872638    0.07068124377158468    0.07053356901182778    0.07140233088162408    
  0.07727493365948075    0.09438863758865357    0.131384045427974    0.19737981328983145    0.2891994956443547    
  0.3725647776825079    0.40855670974015845    0.4123354372900945    0.3005826728945004    0.34434852633785323    
  0.4096046467662642    0.37256471497876864    0.2571322592936215    0.15789951342491979    0.10007966007646155    
  0.07140231730097388    0.058685386560363824    0.053871819186690616    0.05266983128960606    0.05387183776347158    
  0.058685385416304275    0.07140234337134059    0.10007964132669356    0.1578995531455814    0.25713221336736375    
  0.37256472888792946    0.4096046635964189    0.34434852088778756    0.3005826728945004    0.12660005223058002    
  0.1871279591645586    0.3443485075667665    0.40855681306665087    0.3032813818655354    0.18105198569936315    
  0.10718804327872318    0.07053358698835285    0.05387183420399749    0.047047146658922616    0.045192349209968535    
  0.04704715084489724    0.053871850368757086    0.07053356007583128    0.10718804827204907    0.18105192433585252    
  0.3032814400515782    0.4085567426914331    0.3443486171059501    0.18712794038258831    0.12660005223058002    
  0.07246183675807873    0.1266000287983512    0.30058272080734855    0.41233526931551584    0.3200431890919806    
  0.19033094520167607    0.11030558594069888    0.07068127120507962    0.05266988002640685    0.04519233176321175    
  0.04312870478734815    0.04519236412235463    0.052669857849843335    0.0706812902136338    0.11030551471810195    
  0.19033098464163162    0.32004317004918437    0.41233532117827537    0.30058271837822903    0.1266000298420718    
  0.07246183675807873    0.1265999824414234    0.18712806726710038    0.344348438788779    0.40855689289589436    
  0.30328126720579895    0.1810520924908637    0.10718799637972576    0.07053363419551359    0.05387179740847317    
  0.04704718546815684    0.04519232064467197    0.047047200778263076    0.05387180647633711    0.07053361722341746    
  0.10718800672611532    0.1810520108228459    0.30328136911854536    0.4085568400237208    0.34434852028016966    
  0.18712801503235865    0.1265999824414234    0.18712805795112172    0.24694025473739484    0.3766915965131317    
  0.3994216195529504    0.28668343818171166    0.17217669889464376    0.10410116357283679    0.07027075298802211    
  0.05491788032704483    0.04871435300662504    0.04704720571424109    0.04871438861918527    0.054917843372658745    
  0.07027076226084913    0.10410111611554615    0.17217675343371056    0.28668336283778256    0.39942166239523474    
  0.37669157787129376    0.2469402702562891    0.18712805795112172    0.3443484473117996    0.37669158931443475    
  0.4119806232381082    0.355429497588573    0.24225345111976224    0.1502272835179438    0.09705723538093018    
  0.07074380315992322    0.059192814263543156    0.054917872448621424    0.053871771129033304    0.05491786173804117    
  0.05919282263482353    0.07074376612462578    0.09705726289533978    0.15022727338032046    0.24225353487744591    
  0.3554294225322602    0.41198068600497517    0.376691519342874    0.3443484473117996    0.4085569322371127    
  0.3994215909772012    0.35542943641876906    0.27228472212242166    0.18621041947232875    0.12529452223951626    
  0.09129752626570857    0.07578363980753064    0.07074378241491898    0.07027071217703391    0.07053365355962919    
  0.0702707394124758    0.07074379373272076    0.07578367713331953    0.09129750424179896    0.12529455866242667    
  0.18621037459123144    0.2722847577956094    0.3554293990838372    0.39942168259488087    0.4085569322371127    
  0.30328135601970463    0.28668334763459125    0.24225350734416162    0.1862103987990798    0.13792602624725156    
  0.10695661885696273    0.09281107901653128    0.09129754450692722    0.09705720508812823    0.1041011687531315    
  0.10718795024496977    0.10410119278022283    0.09705725160722607    0.09129752156642391    0.09281109171694739    
  0.10695659320394556    0.1379260518253739    0.18621035617900927    0.24225354586750386    0.28668329364322587    
  0.30328135601970463    0.18105201970741325    0.17217678863833003    0.1502272789445028    0.1252945821355356    
  0.10695658171300912    0.10044432819543771    0.10695664687993549    0.12529454260491305    0.1502273522605819    
  0.17217666278473392    0.18105213828628103    0.17217667624043337    0.15022730715002988    0.1252945573316443    
  0.10695661190753204    0.10044434582380068    0.10695657486934944    0.12529461056180993    0.1502272319129074    
  0.17217680385006542    0.18105201970741325    0.10718805279403433    0.10410108151874736    0.09705729603365837    
  0.09129747647613083    0.09281110741755695    0.10695661166643136    0.13792596746344846    0.18621043956463995    
  0.24225341338943168    0.28668346990360727    0.3032811932651648    0.28668348571236174    0.2422534830728261    
  0.18621041426464377    0.13792600851795203    0.10695660080895081    0.09281113973265619    0.09129746037674004    
  0.09705732758121441    0.10410106612297547    0.10718805279403433    0.070533567857495    0.07027079125404258    
  0.07074372825669643    0.07578371222482308    0.09129748293222768    0.12529453937625673    0.18621047616922576    
  0.2722846109142248    0.3554295498730885    0.3994214962851685    0.4085570072436975    0.3994215330711424    
  0.35542950290184466    0.27228468291811664    0.1862103878509754    0.12529459673471027    0.09129745987894285    
  0.07578371801120576    0.07074371239168838    0.07027080452507187    0.070533567857495    0.053871873623986814    
  0.05491779360674725    0.059192874300885004    0.07074374711855956    0.0970572973084435    0.15022727901518398    
  0.24225343502678656    0.3554295387488905    0.41198047673425986    0.37669168780051815    0.34434824608908937    
  0.3766916926381066    0.41198056330820215    0.3554295096828268    0.2422534974325253    0.1502272293017168    
  0.09705731008158217    0.0707437221193102    0.05919290418030877    0.054917784548016844    0.053871873623986814    
  0.04704712424885562    0.048714434333843336    0.05491778545236726    0.07027079528208206    0.10410113971543987    
  0.1721767313620596    0.2866834479065223    0.3994215685751042    0.37669173593627087    0.24694014464127292    
  0.1871281721230721    0.24694013058760375    0.3766916774947656    0.39942157148447477    0.28668338048214687    
  0.17217679702829447    0.10410110022719006    0.07027083769109248    0.05491778036237448    0.04871446363009873    
  0.04704712424885562    0.045192404716838226    0.047047114215429536    0.05387185243472779    0.07053356130116308    
  0.10718800747494359    0.1810520254203949    0.303281307720386    0.4085569910393161    0.34434832842817525    
  0.18712815236707953    0.1265998781516799    0.18712817048235167    0.34434835991208107    0.40855691621087875    
  0.30328127734772714    0.18105196932516396    0.10718807513729815    0.07053352522992712    0.05387188322041577    
  0.047047112446461974    0.045192404716838226    0.047047106856784315    0.04871446943736338    0.0549177753403563    
  0.07027082284970325    0.10410110416047644    0.1721767800909465    0.2866833848799065    0.39942156107597915    
  0.3766916706953659    0.24694017321034675    0.18712815131397942    0.24694018381131735    0.3766916495599899    
  0.399421649684626    0.286683352306047    0.17217681915211502    0.10410107798816504    0.07027084724032721    
  0.05491777786834145    0.048714454576044744    0.047047106856784315    0.0538718990686047    0.05491775223648762    
  0.05919291548246211    0.07074370585702686    0.09705731249677507    0.15022722709494107    0.24225349004658098    
  0.3554294900351708    0.41198058455238407    0.37669161967245673    0.34434831278879735    0.37669161061963685    
  0.4119805480583098    0.3554294664839702    0.24225352357968036    0.15022719946292862    0.09705734969948063    
  0.07074367221604984    0.05919291897029204    0.05491773327596558    0.0538718990686047    0.07053352312538923    
  0.0702708531818416    0.07074367990367687    0.07578375499062857    0.09129744392238795    0.1252945925303251    
  0.18621037710940674    0.272284672809462    0.3554294703289326    0.3994215912607208    0.4085569435267306    
  0.3994215983130838    0.35542947961213295    0.27228474410357095    0.18621030527064358    0.12529463692646348    
  0.09129742023197811    0.07578377109424837    0.07074366469335283    0.07027086336517414    0.07053352312538923    
  0.10718811393889134    0.10410103931670384    0.09705735985547363    0.09129741856649311    0.09281117999303305    
  0.10695655154242846    0.13792605664473426    0.18621041602967855    0.2422535225179901    0.286683383565086    
  0.3032812902520096    0.28668334075365237    0.24225349163389273    0.18621036328440443    0.1379260894316203    
  0.10695653637935192    0.09281120444315241    0.09129740712480768    0.09705739746401747    0.10410100456111039    
  0.10718811393889134    0.18105192582764126    0.17217685557310414    0.15022720314749688    0.12529465091778466    
  0.10695652807400885    0.10044437857342553    0.10695659334226257    0.12529461043079268    0.15022728776389602    
  0.1721767517550808    0.18105205206530856    0.17217676772538387    0.15022723377846328    0.12529463060940213    
  0.10695653605317948    0.10044440477049206    0.10695651920924952    0.1252946566463472    0.15022718186132689    
  0.17217686679004665    0.18105192582764126    0.30328144624452447    0.286683276902235    0.24225358823077536    
  0.1862103131579817    0.13792609627993985    0.1069565587550409    0.0928111227461544    0.09129748652784081    
  0.0970572898589711    0.104101139582335    0.10718801912394049    0.10410112290807377    0.09705729810007482    
  0.09129745828573164    0.09281115142939791    0.10695652735734568    0.13792612682109934    0.18621029694739213    
  0.24225366495650394    0.2866832218863949    0.30328144624452447    0.408556811014667    0.39942170736291627    
  0.35542938399298957    0.27228478020890795    0.18621033980956225    0.12529457562928628    0.09129749930495139    
  0.07578368581010705    0.07074377709676988    0.0702707653850327    0.0705336030342848    0.07027079944450497    
  0.0707437530795444    0.07578372975923116    0.09129743171136208    0.1252946388106487    0.186210331107433    
  0.27228480589105925    0.35542931223644114    0.3994217335236436    0.408556811014667    0.34434851398002264    
  0.37669151494227077    0.41198063275598756    0.3554293997692698    0.24225351447146176    0.15022728800967372    
  0.09705727668305135    0.07074375913523549    0.05919283627027789    0.05491783675130215    0.053871809170877985    
  0.05491784907599015    0.059192856058060773    0.07074374441679335    0.09705731478352427    0.15022721398550007    
  0.24225358690908805    0.3554293330478766    0.4119806756352064    0.3766914924497081    0.34434851398002264    
  0.18712804896674035    0.24694027495363946    0.3766915916709036    0.399421683173505    0.28668338031907914    
  0.17217674430838079    0.10410114122027721    0.07027076308092634    0.054917861782363395    0.0487143698568821    
  0.04704719994731322    0.04871440151285617    0.054917829254613526    0.07027077334578417    0.10410109187778252    
  0.17217677179126145    0.2866832957386464    0.3994217559412309    0.3766915821767074    0.2469402981398331    
  0.18712804896674035    0.1265999824414234    0.18712806726710038    0.344348438788779    0.40855689289589436    
  0.30328126720579895    0.1810520924908637    0.10718799637972576    0.07053363419551359    0.05387179740847317    
  0.04704718546815684    0.04519232064467197    0.047047200778263076    0.05387180647633711    0.07053361722341746    
  0.10718800672611532    0.1810520108228459    0.30328136911854536    0.4085568400237208    0.34434852028016966    
  0.18712801503235865    0.1265999824414234    0.30058283525243673    0.34434834196663205    0.4096049095389455    
  0.3725644953632173    0.25713241935332404    0.15789938811418303    0.10007980589114483    0.0714022239941495    
  0.058685478472128495    0.05387176664039922    0.05266994173966995    0.053871755161725064    0.05868546223626399    
  0.07140224950372784    0.10007975237787958    0.1578994110129464    0.25713239499846696    0.3725645418080895    
  0.4096048579240467    0.34434836881001235    0.30058283525243673    0.34434839769217196    0.3766916760530067    
  0.41198052414461733    0.3554295070452239    0.24225340479331633    0.15022733377519856    0.09705720913706073    
  0.07074382330133501    0.05919277461818786    0.05491788925555292    0.05387176493716861    0.05491788748202047    
  0.05919280136821057    0.07074381400169588    0.09705722349673584    0.15022728508000094    0.24225347977761952    
  0.3554294360625342    0.4119805611598438    0.37669164454797854    0.34434839769217196    0.40960489275300166    
  0.4119804997083942    0.38571650222501536    0.30268027592913765    0.204009905990169    0.13145296914306895    
  0.09012963699830871    0.07000833416506567    0.06176447454763313    0.05919275463553223    0.05868548558056842    
  0.05919276628708327    0.06176443150619835    0.07000835137304728    0.09012959538069483    0.13145302693758604    
  0.20400987272236226    0.302680338937281    0.38571648730778435    0.41198050685646564    0.40960489275300166    
  0.37256456095765617    0.35542948892765336    0.3026802340080333    0.22743539280761138    0.15797072452715527    
  0.11033192486721317    0.08408847216926481    0.07276165596311535    0.0700082998885163    0.07074385022701915    
  0.07140220795532337    0.07074383374017147    0.07000833197605216    0.07276163642952774    0.08408851286309849    
  0.11033186263727446    0.15797079610256304    0.22743533091082574    0.30268029276735625    0.35542951914485715    
  0.37256456095765617    0.2571323971823625    0.24225342841009626    0.2040098571289933    0.15797074292948637    
  0.11928704879232081    0.09477887262310677    0.08412588327383257    0.08408846627684043    0.09012967667970269    
  0.09705716831598311    0.10007983569164186    0.0970572012047019    0.09012963400787803    0.08408848949276078    
  0.0841258446791092    0.09477890310806932    0.11928701148583211    0.1579707912499813    0.20400985829633944    
  0.24225343567574043    0.2571323971823625    0.15789946179098494    0.15022728803270577    0.13145303981929032    
  0.11033188631772083    0.09477886999257835    0.08921444206675447    0.094778855191162    0.11033198378654527    
  0.13145294991187415    0.15022740616750507    0.15789929993618634    0.1502274000342327    0.1314529645055434    
  0.1103319221723285    0.09477889098165367    0.08921438267563771    0.09477892691889853    0.11033186094817289    
  0.13145308158292424    0.15022728454513506    0.15789946179098494    0.10007974762400648    0.09705725882134389    
  0.09012957048813959    0.08408852579513307    0.08412584455339958    0.09477887899773571    0.11928705290315787    
  0.15797066948825694    0.2040100020418818    0.24225328899465037    0.25713253040401096    0.24225333666315219    
  0.20400996445722133    0.15797073694595154    0.11928702622277633    0.09477890825921248    0.0841258276247293    
  0.0840885488720369    0.09012955971650873    0.09705726034571731    0.10007974762400648    0.07140229268617004    
  0.07074374572759    0.07000838534924621    0.07276159195087303    0.08408851453654108    0.11033191327394955    
  0.1579707139834649    0.22743542262215724    0.3026802077360735    0.35542964429397766    0.3725643502365835    
  0.35542961356705605    0.30268020856022354    0.22743540800705728    0.15797074740408104    0.1103318598667315    
  0.08408856834899914    0.07276157055493464    0.07000840943583837    0.07074375649919429    0.07140229268617004    
  0.05868541230349968    0.05919285400840547    0.061764376664955316    0.07000840205190952    0.09012957692923776    
  0.13145300097151694    0.20400991830004814    0.3026801942539486    0.3857166583746634    0.411980397765134    
  0.40960501884834316    0.41198040562261845    0.3857166030085968    0.30268024584897585    0.20400989981559758    
  0.1314530423818306    0.09012954293371647    0.07000841036137422    0.06176436916543092    0.05919284895729396    
  0.05868541230349968    0.053871844280189256    0.054917807144847695    0.059192860383178066    0.07074376543251766    
  0.09705726021888939    0.15022732458681717    0.2422533970018054    0.35542964089426854    0.411980424452229    
  0.3766917701133775    0.34434823452410396    0.376691759391397    0.41198044458239425    0.3554294931339231    
  0.24225341788869276    0.15022726621252902    0.09705729127286852    0.07074374673419025    0.05919288509922591    
  0.05491779828894449    0.053871844280189256    0.052669869233641864    0.05387183571490909    0.058685396741414424    
  0.07140228828664208    0.10007972933612681    0.1578993883892832    0.2571324468544044    0.37256442107909626    
  0.4096050454033438    0.34434819533382544    0.30058299955791    0.34434826826183823    0.4096049903782976    
  0.37256450777919875    0.25713237244380505    0.15789942842950272    0.10007972228901459    0.07140230443252885    
  0.05868540197697119    0.05387183318473906    0.052669869233641864    0.053871838093344754    0.05491780411299578    
  0.059192872441134144    0.07074372935419701    0.09705726391779898    0.15022727951030623    0.2422534111902767    
  0.35542955620654715    0.41198049453847824    0.3766917437421332    0.34434827369422183    0.3766917605768675    
  0.4119804797531411    0.3554295158414714    0.2422534281962624    0.1502272530294438    0.0970572968667963    
  0.07074373775874376    0.05919289156704958    0.05491778135206244    0.053871838093344754    0.05868537429597036    
  0.059192887473585844    0.06176435404007132    0.07000843508807647    0.09012955338528673    0.131453050061457    
  0.20400990030523794    0.30268025319963276    0.38571659466530783    0.41198039844856216    0.40960498058420663    
  0.41198047217050215    0.38571649726953405    0.3026802990089382    0.20400982830481906    0.1314530722832866    
  0.09012953198089173    0.07000844233451617    0.06176432502072135    0.05919286388896832    0.05868537429597036    
  0.07140234479504463    0.07074369980379079    0.07000843443634612    0.07276154140969057    0.08408856830399213    
  0.1103318448409373    0.15797079298360903    0.22743537653992446    0.30268024978374636    0.35542953645656905    
  0.37256445587119097    0.3554295081492916    0.3026802851694786    0.22743532658297497    0.15797080637956193    
  0.11033180079600124    0.0840885999342555    0.07276153194889118    0.07000845689904477    0.07074370337863368    
  0.07140234479504463    0.10007967352940221    0.09705732457102696    0.09012951118126797    0.08408856774383375    
  0.08412581596934138    0.0947789355551089    0.11928699741427896    0.15797077030069517    0.20400993457515948    
  0.24225339931313067    0.2571324540750065    0.2422534001283693    0.20400985830192456    0.15797081526997386    
  0.1192869579878534    0.09477897631869901    0.08412576314687348    0.08408860831021477    0.09012952930224041    
  0.0970572985905217    0.10007967352940221    0.15789952157811835    0.1502272146850139    0.1314531071732466    
  0.1103318335615047    0.0947789370675229    0.08921437754490853    0.09477892224884776    0.11033190379808051    
  0.13145301521744    0.15022733121346493    0.15789939185712287    0.15022730631152623    0.13145302208893964    
  0.11033186990445812    0.09477895575947308    0.08921432103941693    0.09477898446599721    0.1103317952152325    
  0.13145315331994073    0.15022719177476346    0.15789952157811835    0.2571323106649925    0.2422535038934663    
  0.20400978816749726    0.15797085886020767    0.11928698117511484    0.09477892627429758    0.08412582538449756    
  0.08408851362646448    0.09012961266556048    0.09705719444102227    0.10007976376999289    0.09705723274645589    
  0.09012957429421888    0.08408854390142398    0.08412578690926098    0.09477895411692468    0.11928694787101417    
  0.15797085832810845    0.20400978532604422    0.24225352229446315    0.2571323106649925    0.37256464267752787    
  0.3554293923980113    0.3026803314228259    0.22743530777172016    0.15797080267619426    0.11033185050217516    
  0.0840885229200166    0.07276162469277622    0.07000836807596328    0.0707438038879587    0.07140224210800711    
  0.07074380624325925    0.07000836211129165    0.07276160497383122    0.08408853441217687    0.11033185842958386    