#     DFTpy    
  CRYSTAL 
    
  PRIMVEC    
  2.087407444013711    -3.6154957491292334    0.0    
  2.087407444013711    3.6154957491292334    0.0    
  0.0    0.0    6.90037431740691    
  PRIMCOORD    
  4    1    
  Si    2.087407444013711    1.2051652497097436    0.43478913555264925    
  Si    2.087407444013711    -1.2051652497097454    3.884976294256104    
  Si    2.087407444013711    1.205165249709744    3.0153980231508055    
  Si    2.0874074440137114    -1.205165249709745    6.465585181854261    
  BEGIN_BLOCK_DATAGRID_3D    
  3d_datagrid_density    
  BEGIN_DATAGRID_3D#0    
  19    19    31    
  0.0    0.0    0.0    
  2.087407444013711    -3.6154957491292334    0.0    
  2.087407444013711    3.6154957491292334    0.0    
  0.0    0.0    6.90037431740691    
  0.04626560920328629    0.0482261217177736    0.05479613207659654    0.06833573230838784    0.092945232464054    
  0.13335023981649188    0.191444614960361    0.25967076376819204    0.3179377909851595    0.3414377903224037    
  0.31793781954767186    0.25967075311506826    0.19144454474742978    0.13335028542489946    0.09294523559253492    
  0.06833574622649877    0.05479611720809591    0.04822612613749066    0.04626560920328629    0.04822612666430286    
  0.04822722235222144    0.05250325305048967    0.06269578179514065    0.0822925786773217    0.11620815054961349    
  0.16872999667346433    0.23759899133934229    0.30720227436418346    0.35214542047433023    0.3521241793600556    
  0.3072182815924749    0.23762320242151305    0.16870704363398942    0.11620199691071463    0.08230051908666831    
  0.06269448588840099    0.0525046627686101    0.04822612666430286    0.0547961244379504    0.05250324772994755    
  0.054796159596183745    0.06269488472606002    0.07935850654308763    0.10986058696845138    0.15992389464491574    
  0.23100702556910926    0.3103631913080822    0.3713303670856652    0.3934581521027147    0.3713341654527097    
  0.3103186210426695    0.23101204958301844    0.15995199465547832    0.10985795781719296    0.07935216296588808    
  0.06269450161973787    0.0547961244379504    0.06833576146135092    0.06269580005200942    0.06269491501482334    
  0.06833630867330405    0.08229281266465084    0.10985722300803244    0.15810848105212205    0.2305913929917552    
  0.31399366196662754    0.3745848449252583    0.396426700015218    0.3964470194741914    0.3746158844875181    
  0.31400195246686213    0.2305800949338415    0.15809174679136392    0.10985795804025465    0.08230052349086484    
  0.06833576146135092    0.09294522164588559    0.08229255752978964    0.07935849957650111    0.08229278953603267    
  0.09295255873886171    0.11620299813067494    0.15993459342062827    0.23058289945224028    0.31495049272013037    
  0.36386832565182287    0.3523506244594715    0.33497188883035944    0.3522944891312528    0.3638803660627282    
  0.3149509308029499    0.23058008080786885    0.15995199606017307    0.1162020393503619    0.09294522164588559    
  0.1333502115809498    0.1162081790650829    0.10986059067520228    0.10985721307969064    0.11620299574335045    
  0.13334677637576017    0.16872893433900352    0.23100237987839584    0.3139955340428338    0.3638923740079097    
  0.3245795589330373    0.26047448952686686    0.26051706439159633    0.32458133375515297    0.36388030286596584    
  0.31400187237711313    0.2310119948848517    0.16870705807859446    0.1333502115809498    0.19144457278122398    
  0.16872996347268043    0.15992385692727057    0.15810843009335138    0.15993460759213976    0.1687289671862652    
  0.19142414693696644    0.23763056733782745    0.310329918407968    0.3746134158118393    0.3522951822456868    
  0.2605181727890075    0.21500246894611824    0.2605171073568151    0.3522945594329131    0.3746158901806562    
  0.31031861120164095    0.237623237000939    0.19144457278122398    0.25967075183367677    0.23759898646782904    
  0.23100701712608898    0.2305913420522201    0.2305828932289975    0.23100238784841864    0.2376305481965593    
  0.25965517581243075    0.3072138274333113    0.3713287344518454    0.3964386039355249    0.3349694881317554    
  0.26051812725462264    0.26047454138891213    0.334971909378305    0.39644702812155325    0.3713341948865195    
  0.3072183382609075    0.25967075183367677    0.3179378066034568    0.3072022540805997    0.3103631622496799    
  0.3139935738036259    0.3149505405455117    0.3139955831340116    0.31032997208039736    0.3072137642935284    
  0.31794909569963536    0.35212290453795597    0.3934726484389665    0.3964385653704117    0.3522951357226953    
  0.3245795893343511    0.3523505883582798    0.3964266971461733    0.39345816971496966    0.3521241045949239    
  0.3179378066034568    0.34143782285175095    0.3521454764182451    0.37133035760198296    0.37458478629149616    
  0.3638683414668012    0.3638923746642259    0.3746134016094441    0.37132873410169737    0.3521229773694044    
  0.34144846226602926    0.35212297963720984    0.37132877257616037    0.374613342030753    0.3638924157860209    
  0.3638684209494974    0.37458487382174593    0.3713303924870489    0.35214548916474747    0.34143782285175095    
  0.31793778189745603    0.3521240969091358    0.3934581772553442    0.3964267212244415    0.3523506332987354    
  0.32457950232976557    0.3522951967986577    0.3964385482472623    0.3934726401043606    0.3521228866912556    
  0.31794908770189034    0.3072138801370547    0.31032985491540693    0.31399561287548083    0.3149504851327452    
  0.31399363880803216    0.31036313922737274    0.30720231048812446    0.31793778189745603    0.2596707226389185    
  0.3072182797436426    0.37133421239278797    0.39644693051341656    0.33497192695618866    0.26047445643657124    
  0.26051820388216257    0.33496943257949974    0.39643859283224614    0.37132869400743257    0.307213833694023    
  0.25965520664883684    0.2376305432486246    0.23100245142998613    0.23058290134125392    0.23059134060151446    
  0.2310070297018023    0.23759901575346873    0.2596707226389185    0.19144456376341387    0.23762321426750854    
  0.310318616427708    0.3746158870429153    0.35229458865426627    0.2605171202311446    0.2150025171883608    
  0.26051818945790156    0.35229517872187893    0.3746133783829412    0.3103298762198712    0.2376305658114362    
  0.1914241051874999    0.1687289633576327    0.1599346147478051    0.15810846993737399    0.15992382928837456    
  0.1687299888329313    0.19144456376341387    0.13335024349641603    0.16870704507807832    0.2310120384842381    
  0.3140018896958639    0.36388033831793803    0.3245812887173093    0.260517033938565    0.2604744719913811    
  0.3245795525606049    0.36389233090992396    0.31399558468079586    0.23100245222936142    0.16872890099393956    
  0.133346790864572    0.11620299445367639    0.1098572202311422    0.10986060771783586    0.11620817089617948    
  0.13335024349641603    0.09294522536755995    0.11620201917831659    0.1599519842557305    0.2305800772860883    
  0.31495091673510095    0.3638802885881239    0.35229453426741686    0.33497176657992705    0.3523505779031843    
  0.363868371322361    0.31495046545570404    0.230582879337263    0.15993457171114014    0.11620299267040031    
  0.09295253662042006    0.08229278393993653    0.07935849935810485    0.08229256521208965    0.09294522536755995    
  0.06833575341181075    0.08230054672536088    0.10985794797935676    0.15809170381672885    0.23058012448469933    
  0.3140019100022011    0.3746159415547251    0.39644697804742624    0.39642672189492717    0.374584892652406    
  0.3139936446910813    0.23059138998071718    0.15810846434234768    0.10985726692817972    0.08229281181162952    
  0.06833632658395809    0.06269490406127129    0.06269580151867554    0.06833575341181075    0.0547961296899623    
  0.06269449094639024    0.07935219286922954    0.10985794043405807    0.15995202334359707    0.231012049512529    
  0.31031862683124745    0.37133415358590144    0.39345817533342753    0.37133033778226177    0.3103631722281766    
  0.23100708552064064    0.159923843043369    0.10986061477864441    0.07935850408698124    0.06269490929636057    
  0.05479614848530436    0.052503272055245194    0.0547961296899623    0.04822612320630017    0.05250464609624629    
  0.06269449033965335    0.08230050625355533    0.11620202028458809    0.16870705166106875    0.23762326682155488    
  0.30721820678957895    0.35212408861413164    0.3521454522008466    0.30720228341089884    0.23759899854820127    
  0.16872997917583207    0.11620815559933842    0.08229255566182447    0.06269578325181012    0.05250323796867646    
  0.04822723804585351    0.04822612320630017    0.04626560920328629    0.0482261217177736    0.05479613207659654    
  0.06833573230838784    0.092945232464054    0.13335023981649188    0.191444614960361    0.25967076376819204    
  0.3179377909851595    0.3414377903224037    0.31793781954767186    0.25967075311506826    0.19144454474742978    
  0.13335028542489946    0.09294523559253492    0.06833574622649877    0.05479611720809591    0.04822612613749066    
  0.04626560920328629    0.04558098508559732    0.04749175276457801    0.053880398737429044    0.06697929462633019    
  0.0906251431245356    0.1291223429456057    0.1840234252651369    0.24807446546665388    0.30243187851204945    
  0.3242250029938523    0.30240321900562994    0.24806993149057358    0.18405573783987764    0.12911950983607481    
  0.090613169394099    0.06698242466957699    0.05388039022227075    0.04749078161118815    0.04558098508559732    
  0.04749078374121415    0.047491620642165916    0.051250824262687185    0.06014986542567186    0.07715849656628106    
  0.10642425892937014    0.1513845233243792    0.20999388907550887    0.2692881712458542    0.30784045682874117    
  0.3078308325981462    0.2693219709717994    0.20999690380969857    0.15135553443722086    0.10642117169699647    
  0.07717292432218728    0.06014659906211731    0.051252867117592    0.04749078374121415    0.05388040387040907    
  0.05205256167232669    0.05388065180055993    0.06014538746764227    0.0733778250408119    0.09750102332380378    
  0.13683847495788465    0.19295924385869856    0.25755164815881465    0.31045257496023354    0.3309455618969497    
  0.310454717347514    0.2575180293205928    0.1929587166650734    0.13687072019934    0.09750141481027003    
  0.0733633959569211    0.06014661310170623    0.05388040387040907    0.06698244453186263    0.06291285672399848    
  0.06291416341760733    0.06698255220121926    0.07715937323262537    0.09749722938210334    0.1331092967912901    
  0.18741835799247966    0.255261724047904    0.3172839428338345    0.35228427481161767    0.3522854544530056    
  0.31729185728729326    0.25528410631513543    0.1874201044886252    0.13307500837639122    0.09750141185562543    
  0.07717295162314149    0.06698244453186263    0.0906131421943885    0.08369722675806857    0.08186086924534956    
  0.08369618024018549    0.09062799578553646    0.10642535774339824    0.13684060179409585    0.18741902960569207    
  0.2554830813075743    0.32001298965258895    0.35596676965192425    0.36467442487691826    0.3559520549182659    
  0.32001936317239904    0.25545886064801593    0.1874201127155383    0.13687072717583212    0.10642120788472895    
  0.0906131421943885    0.12911946314301892    0.11947245296310628    0.11652207592684012    0.11652252078499908    
  0.11945420159651202    0.12911773063605164    0.1513838867758923    0.19295802199233564    0.2552600576462887    
  0.3200271801341971    0.35298001657593514    0.353066455950025    0.35307936833342274    0.3529817803113789    
  0.3200193293195441    0.2552840254539885    0.1929586684193546    0.15135551462378988    0.12911946314301892    
  0.18405577848305868    0.17445002531374446    0.17323818070364813    0.17385054217570348    0.17326206299801034    
  0.17445356860900554    0.1840200028627356    0.21000313623874417    0.2575422024972742    0.31728492013123183    
  0.3559521703251997    0.3530815119280429    0.3425671032174964    0.35307942100970885    0.3559521392533229    
  0.3172918558983227    0.25751798325185093    0.20999697217496485    0.18405577848305868    0.2480699094691891    
  0.24567978604125415    0.2519232432202027    0.25750067949040917    0.2574760255181532    0.2519097494411964    
  0.24572677571426735    0.24806281445012493    0.26929508410767566    0.31045898662802124    0.35228699822312254    
  0.3646701974120604    0.35308139676290284    0.3530665342351079    0.3646744420005762    0.35228545936026223    
  0.31045472600382074    0.2693219896477813    0.2480699094691891    0.3024031711564603    0.3163993940841793    
  0.33466002773394066    0.34218953830670545    0.3424205089890668    0.34220278953768296    0.33461465163943516    
  0.3163996223431384    0.30243568055629766    0.30782530400769503    0.33094804985743526    0.3522870133128766    
  0.35595214759536703    0.3529800654118919    0.355966721449638    0.3522842997145271    0.3309455587915862    
  0.3078307524438943    0.3024031711564603    0.3242251026257902    0.36108165171005935    0.3915554456883575    
  0.38067053415545227    0.34894208392533643    0.34896837651009893    0.38070984507900385    0.3915631948315921    
  0.36103596256650494    0.32424279011018736    0.3078253025999463    0.31045901978614593    0.31728487304449954    
  0.3200273068592133    0.32001302143784927    0.3172839271921862    0.3104525554632117    0.3078405432969242    
  0.3242251026257902    0.3024318951279992    0.3610483999383322    0.40986291294433363    0.37520195345374957    
  0.27746489239526734    0.23017145324809796    0.2774052621101361    0.37519519227928805    0.4099127112106492    
  0.3610358969531008    0.30243562893615245    0.26929509559484704    0.2575421779132754    0.25526012092013695    
  0.25548306217393385    0.25526165513372273    0.2575516335379484    0.2692882301702758    0.3024318951279992    
  0.24807443958693953    0.3163912629534679    0.39156851299353995    0.37523117073379464    0.23711114144696058    
  0.13332915053234942    0.13335042578070622    0.23713558772338453    0.37519520262311434    0.3915631919938036    
  0.31639969848669414    0.24806282945432442    0.21000311475352443    0.19295806321275716    0.18741905220288363    
  0.18741835187021194    0.1929592504462617    0.20999395481768993    0.24807443958693953    0.18402339251636132    
  0.24572408540064786    0.33461130700241765    0.38070953371878313    0.27740476559699045    0.13335079545794679    
  0.08510751617011596    0.13335038906386526    0.27740526801102844    0.3807097746098505    0.33461454830077414    
  0.2457267965626841    0.18401995942353613    0.15138391737341805    0.13684062850069445    0.13310933651908718    
  0.13683845787664603    0.15138452466421876    0.18402339251636132    0.12912233291222933    0.17444228656612262    
  0.2519240520822852    0.3421996669816579    0.348935717993053    0.2301945148618374    0.1333507795294583    
  0.13332919247581762    0.230171434274298    0.34896835601166326    0.34220282082261966    0.25190979991965207    
  0.17445351721729319    0.12911775021494715    0.1064253574728401    0.09749721754386544    0.09750102965851608    
  0.10642427786859192    0.12912233291222933    0.0906251338043105    0.11945573539842376    0.173265083551341    
  0.2574630289071264    0.3424631236640523    0.34893566305525403    0.2774047811735322    0.23711109492607213    
  0.27746478630435834    0.3489420761346925    0.34242046380524105    0.2574760107402446    0.17326202815997416    
  0.11945421276473407    0.09062798391910425    0.07715935477791397    0.07337782437947159    0.07715848539258471    
  0.0906251338043105    0.0669793165531021    0.08370252600251375    0.11651666239659339    0.17386142794846235    
  0.25746310552951834    0.3421997290742141    0.3807096063664326    0.37523119810410094    0.3752019815202983    
  0.38067060437607886    0.3421896683874103    0.2575007649638912    0.17385054337176906    0.11652256450589978    
  0.08369621151529331    0.06698256012657024    0.06014540158674698    0.06014988519737355    0.0669793165531021    
  0.05388040946929151    0.06291390592539711    0.08185892796238806    0.11651667119840681    0.17326512374191483    
  0.25192403627061954    0.3346113547787427    0.391568560319823    0.40986292323170254    0.391555331694223    
  0.33466007565397293    0.25192326277722626    0.1732381639459751    0.11652209318933654    0.08186088615512668    
  0.06291416161813679    0.0538806377797622    0.05125083807974892    0.05388040946929151    0.04749175194643415    
  0.05205175369302687    0.06291391298494467    0.08370249512597637    0.11945572771793221    0.17444231242876043    
  0.24572410028540256    0.31639119801679244    0.3610484315087635    0.3610816106695845    0.3163994296227069    
  0.24567976651871037    0.17444999678842926    0.11947242332201659    0.08369722702477006    0.06291284448465713    
  0.052052545493639836    0.047491646457148456    0.04749175194643415    0.04558098508559732    0.04749175276457801    
  0.053880398737429044    0.06697929462633019    0.0906251431245356    0.1291223429456057    0.1840234252651369    
  0.24807446546665388    0.30243187851204945    0.3242250029938523    0.30240321900562994    0.24806993149057358    
  0.18405573783987764    0.12911950983607481    0.090613169394099    0.06698242466957699    0.05388039022227075    
  0.04749078161118815    0.04558098508559732    0.04367319910602785    0.04543837904808994    0.05131531226606972    
  0.063166275930391    0.08412098063517098    0.11752431234011822    0.16419304185053696    0.21758938813669432    
  0.26219218506774333    0.2798814200169115    0.2621575373047635    0.21758377636705023    0.16422696358430913    
  0.11752352979128307    0.08410616129131536    0.06317062500127775    0.05131506993108137    0.045436766553672986    
  0.04367319910602785    0.04543675880542852    0.045439269134398046    0.04861044127686303    0.05597912276558822    
  0.06973162863951776    0.09293172569734212    0.12780976032604127    0.1722810671702695    0.21661124331257894    
  0.24525264838163824    0.24524496623940928    0.2166465910053817    0.17227910617957926    0.12778523982042486    
  0.09292615189644819    0.06974922158938791    0.055973574946679025    0.048614646976855164    0.04543675880542852    
  0.051315084081609036    0.04993376228411361    0.05131460161087975    0.05597321304573453    0.06567996732017425    
  0.08313365571008269    0.11110343430830089    0.1502882602137696    0.19513492305957592    0.2323993310876069    
  0.2471161918992949    0.23240300572778408    0.19510646963301959    0.15028546563009382    0.11113362906850395    
  0.08313434346763976    0.06566487927060055    0.055973582829603186    0.051315084081609036    0.06317064242476263    
  0.06058052076392725    0.06058229275830022    0.06317141430089648    0.06973282801208854    0.08313162296688426    
  0.1065977196184031    0.14214883489029667    0.18736130839613002    0.231691268118891    0.25954599145480106    
  0.25954282665059003    0.2316894467014701    0.18738875994463958    0.14214917475226158    0.1065663642758517    
  0.08313434777643262    0.06974925096034257    0.06317064242476263    0.08410616156090168    0.08071602838873562    
  0.0799064496129402    0.08071478868470519    0.08412270188195503    0.09293153857407459    0.1111047476903709    
  0.14214624207147425    0.18598661385630869    0.23412774240512182    0.2712332051844689    0.284921892918876    
  0.2712334301478347    0.23413054522500742    0.1859601998212915    0.14214913766405002    0.1111336125606923    
  0.09292617848752618    0.08410616156090168    0.11752351292304464    0.11485206405575603    0.11503100634589733    
  0.11503096807643166    0.11483065826896148    0.11752179032819765    0.1278096287583903    0.15029057610319077    
  0.18736054132476337    0.23414011221883446    0.2756376802107532    0.2980867166205408    0.29808322543863247    
  0.2756430174428199    0.23413050476785152    0.18738869178025253    0.1502854448442983    0.12778523311663412    
  0.11752351292304464    0.1642269887373899    0.1663703160243204    0.1719073599590406    0.1746277829572564    
  0.17193680925485486    0.16637540734553052    0.16419381091081672    0.17228038836235054    0.1951330572944635    
  0.23168124142950924    0.27123318720582995    0.298085231292121    0.3065621682361626    0.29808328867758993    
  0.27123351341606555    0.23168943102818432    0.1951064919022582    0.17227915291599    0.1642269887373899    
  0.21758379198885905    0.23168976225915489    0.24910091989895755    0.26001514609073817    0.25998499154881505    
  0.24908180317864273    0.23173323539976282    0.21758517079788997    0.21661370409703548    0.23241151225211443    
  0.25954391054380893    0.2849220863148356    0.2980851454511028    0.29808676700731285    0.2849218985410817    
  0.2595428608455675    0.23240294988282886    0.2166466078516726    0.21758379198885905    0.2621575108458659    
  0.295016827867087    0.3268680929363447    0.340909329511572    0.34244364911591624    0.34092872264334506    
  0.326831857574702    0.2950054042234222    0.2621964502519761    0.24523718053806748    0.2471170321534281    
  0.2595439702392539    0.27123313953426126    0.2756377083110131    0.2712331287843481    0.2595459753097534    
  0.24711616726898894    0.24524490813807073    0.2621575108458659    0.2798814824128372    0.33415765272123715    
  0.37651057067955096    0.3667232080057064    0.33104631468764606    0.33106954112966386    0.3667503584697956    
  0.37653087874861724    0.3341022274195898    0.2799039218689684    0.24523717015523075    0.23241157563345938    
  0.2316812221394757    0.23414012721923871    0.23412772777388982    0.23169121708546153    0.23239932655676795    
  0.24525267685993177    0.2798814824128372    0.26219222993959296    0.3341223695485029    0.3911676018063117    
  0.34963821853321725    0.24156841113763103    0.19221358048119236    0.24152707864840137    0.34961250672467736    
  0.3912354598106684    0.33410220617853786    0.2621964208340804    0.2166137473717733    0.19513301858174556    
  0.18736055584344313    0.18598661456026008    0.18736126841173234    0.19513487116873154    0.2166112596107281    
  0.26219222993959296    0.21758936784752705    0.2949997555540575    0.3765300819201145    0.3496645349037151    
  0.19676298307500653    0.09578274575674818    0.09578272780172556    0.19680457116736555    0.3496125403801096    
  0.3765308238372462    0.2950054967199959    0.21758520556351219    0.1722803678852982    0.15029060708639677    
  0.14214626244670855    0.14214879568474217    0.15028823647948766    0.17228109802307934    0.21758936784752705    
  0.16419305025191852    0.23173346338475237    0.32682753645776863    0.3667497916534794    0.24152688098133887    
  0.09578406313931018    0.05375000695232439    0.09578274406812186    0.24152710022196333    0.3667503042870374    
  0.32683173183029246    0.23173322581425035    0.16419379279802976    0.12780966643952588    0.11110478299058169    
  0.10659772109770276    0.11110341013463612    0.12780974887711863    0.16419305025191852    0.11752427793657325    
  0.16636915356654897    0.24909447825070846    0.34093043539273554    0.3310228579520937    0.19224995417031568    
  0.09578403352221249    0.09578277677073381    0.19221360021220033    0.3310694986534843    0.3409286925632483    
  0.24908181866294238    0.1663753608910073    0.11752177765697461    0.09293151983609695    0.08313159915349468    
  0.08313365631826014    0.0929317724449824    0.11752427793657325    0.08412097861561815    0.11483245058762674    
  0.17193675041076895    0.2599644559099706    0.34250470108546055    0.33102297386078433    0.2415269165693882    
  0.19676294367647365    0.24156832262884242    0.3310462382974377    0.3424436018979276    0.2599849924822511    
  0.17193678059287462    0.1148306531913064    0.08412269376556422    0.06973282059964535    0.06567995600347422    
  0.06973162919818579    0.08412097861561815    0.06316631077526728    0.08072224185921788    0.11502173439422213    
  0.174650814363405    0.2599645680616473    0.34093053725478695    0.3667497994785044    0.3496646285620392    
  0.349638184993075    0.36672330771178535    0.34090942845584105    0.2600151913904266    0.17462782627306012    
  0.11503101710164473    0.0807148160377253    0.06317140932783061    0.055973215335301175    0.05597913610658822    
  0.06316631077526728    0.05131532653937027    0.060581276636270574    0.07990667551498365    0.11502171143445086    
  0.17193676045063525    0.2490944406623307    0.32682753430043854    0.3765300912474331    0.3911675839459143    
  0.3765105039641884    0.32686809752985113    0.2491009672154226    0.17190734446033834    0.11503101897650894    
  0.07990644974928711    0.06058228920194234    0.05131458295207038    0.048610466506739176    0.05131532653937027    
  0.045438369209243386    0.04993291806721496    0.060581263905665456    0.08072220344119214    0.11483244612698933    
  0.1663691986273199    0.23173348187303716    0.2949996653959419    0.33412235617658914    0.33415759495566605    
  0.29501688110515045    0.23168976871351424    0.16637031675578468    0.11485205166691971    0.08071603338218901    
  0.06058048364000839    0.049933757158574926    0.04543928522468403    0.045438369209243386    0.04367319910602785    
  0.04543837904808994    0.05131531226606972    0.063166275930391    0.08412098063517098    0.11752431234011822    
  0.16419304185053696    0.21758938813669432    0.26219218506774333    0.2798814200169115    0.2621575373047635    
  0.21758377636705023    0.16422696358430913    0.11752352979128307    0.08410616129131536    0.06317062500127775    
  0.05131506993108137    0.045436766553672986    0.04367319910602785    0.040938022396197656    0.04248122382774717    
  0.04759306410978238    0.05768587748128958    0.07498180873966624    0.10170900320841549    0.13790847875315482    
  0.1782087946603733    0.21119735265326278    0.2241518667546142    0.2111736065479012    0.17820826321335922    
  0.13793634061880317    0.1017042800279076    0.07497165731800695    0.057688766414806095    0.04759288015812801    
  0.042479702523129194    0.040938022396197656    0.042479693886063125    0.042481018888568686    0.04505041614007567    
  0.05093060168104366    0.061540589367293834    0.07881301551478766    0.10393623170985596    0.134903244172108    
  0.16496457408134488    0.18407469926948686    0.18407310546938205    0.16498358493192922    0.1349027017636893    
  0.10391620410453596    0.07881165426291961    0.06155251849876251    0.05092724382580131    0.04505296840227423    
  0.042479693886063125    0.04759289247941992    0.04659802096507648    0.04759253320626701    0.050926693465876416    
  0.05772922407917357    0.06963639534973369    0.08817049441634708    0.1133415699017786    0.1413331471507446    
  0.16420615237001707    0.1731712189559599    0.16420828843935817    0.14131813670472856    0.11333686840392396    
  0.08819454520913442    0.06963530560528403    0.05771837613896783    0.0509272479850832    0.04759289247941992    
  0.057688785844613066    0.05621910265823704    0.05622010702049262    0.05768982423175726    0.0615411057401014    
  0.0696321000155217    0.0838212985234119    0.10495765252899987    0.1313993017285538    0.15722516887195134    
  0.17357152218311378    0.17356797237982532    0.15722396800419625    0.1314153299171812    0.1049605051136877    
  0.08379651471150512    0.06963530330373074    0.061552541360460275    0.057688785844613066    0.07497165055154015    
  0.07406430396069956    0.07399451117611631    0.0740632300045587    0.07498275486491329    0.07881616708388704    
  0.08817101847088998    0.10496201571890951    0.12902764721551283    0.15615634758512165    0.17817260426694312    
  0.1867144896521079    0.17817495656519597    0.1561560641735538    0.1290133534904103    0.10496049101989245    
  0.08819454321090694    0.07881168407435345    0.07497165055154015    0.10170424629064534    0.103599012779937    
  0.10581020072189984    0.10581062967704925    0.10358380862802269    0.10170367734087492    0.10393742867167219    
  0.11333630324235473    0.13139947137070018    0.15616112586821712    0.18062049926854704    0.1958541891502274    
  0.1958505228625756    0.18062417318296659    0.15615599960917284    0.1314152946497868    0.11333684390220061    
  0.10391619658494103    0.10170424629064534    0.13793635617649438    0.14707778304944566    0.15649356793997451    
  0.16043056356594398    0.15651493132192662    0.14707981719075716    0.13790702220884685    0.1349084640250761    
  0.14133294340950486    0.15721973113281099    0.17817447725662242    0.19585253012484397    0.20270602055330894    
  0.1958505982727596    0.17817505047123708    0.15722397783622977    0.14131812426074933    0.13490272038627782    
  0.13793635617649438    0.1782082692576633    0.20102527851399557    0.2247336651359597    0.23923972918765005    
  0.23921620989528988    0.2247226537302526    0.20106574197616472    0.17820162306435225    0.1649659442349373    
  0.16421206941022712    0.17356981931072263    0.1867134184785258    0.19585245519458414    0.19585422400818345    
  0.18671448585544223    0.17356801196684213    0.16420826923193968    0.16498360480242152    0.1782082692576633    
  0.21117360063124388    0.25256168234210724    0.294384408563607    0.31928674824686426    0.3258710253033976    
  0.3192984717676153    0.29434402047865643    0.25256296176212106    0.21119710457498536    0.18406686286030804    
  0.1731724609854079    0.17356984784038146    0.1781744357498603    0.1806205377637923    0.17817255669004797    
  0.17357155644916153    0.17317119211968654    0.18407309694281349    0.21117360063124388    0.2241518742439669    