#     DFTpy    
  CRYSTAL 
    
  PRIMVEC    
  3.569379310344827    0.0    0.0    
  0.0    3.569379310344827    0.0    
  0.0    0.0    3.569379310344827    
  PRIMCOORD    
  4    1    
  Si    0.0    0.0    0.0    
  Si    0.0    1.7846896551724134    1.7846896551724134    
  Si    1.7846896551724134    0.0    1.7846896551724134    
  Si    1.7846896551724134    1.7846896551724134    0.0    
  BEGIN_BLOCK_DATAGRID_3D    
  3d_datagrid_density    
  BEGIN_DATAGRID_3D#0    
  17    17    17    
  0.0    0.0    0.0    
  3.569379310344827    0.0    0.0    
  0.0    3.569379310344827    0.0    
  0.0    0.0    3.569379310344827    
  0.05402237003121159    0.09439211363742368    0.24125868459122427    0.39899675824711106    0.3985701456699808    
  0.31468897874097496    0.24650166770781057    0.2097083343552378    0.1982341004962896    0.2097083281803093    
  0.24650168969965808    0.31468901213657763    0.39857015233493265    0.3989967101239322    0.24125865590386622    
  0.0943921154409379    0.05402237003121159    0.09439210118108886    0.14216174285388866    0.28806413468158176    
  0.4153555824930608    0.3981838879616611    0.31734393944650063    0.25430757839569096    0.22034699176244224    
  0.20970830389321188    0.22034698378351972    0.2543075893074627    0.31734395893969214    0.3981838894179056    
  0.41535556638943416    0.2880641100673972    0.14216175069267872    0.09439210118108886    0.24125863009721998    
  0.2880641165528606    0.38990460627541024    0.43733504612102947    0.393872988733503    0.3268695184067791    
  0.2793625953754538    0.2543075589709788    0.24650164400130617    0.25430757895902484    0.27936262799885475    
  0.32686954267585866    0.39387299247080065    0.4373350140100445    0.38990454948043735    0.2880640909607432    
  0.24125863009721998    0.39899674261623574    0.41535558286639    0.43733499114237057    0.424904070716246    
  0.3851099436723001    0.34831700512141894    0.32686952733970903    0.3173439430586397    0.3146890101872898    
  0.3173439516262398    0.326869491498511    0.34831695889376735    0.3851099436821471    0.42490414513015656    
  0.4373350312279492    0.415355556892784    0.39899674261623574    0.39857017291713953    0.39818387057938115    
  0.393872968234552    0.3851099986878759    0.3802842243342805    0.38510999989794603    0.3938729269672439    
  0.3981838179684507    0.39857017060905847    0.398183868699082    0.3938729843475755    0.38511000300567666    
  0.3802842199566736    0.38511000592430267    0.39387292650625455    0.3981838077630032    0.39857017291713953    
  0.3146890036580403    0.3173439567247796    0.3268695475284029    0.3483169721096633    0.38511001138357637    
  0.42490411384173143    0.43733506227337426    0.4153555770464665    0.3989967302985654    0.41535557692791986    
  0.43733505092004377    0.42490410606536333    0.38511001018536206    0.3483169850280065    0.32686955669602696    
  0.317343948881286    0.3146890036580403    0.24650166442741978    0.25430759941874354    0.2793626412479479    
  0.32686957354522883    0.39387293181739713    0.4373350078874115    0.38990454591216467    0.2880641139420738    
  0.24125865582193834    0.2880641295753946    0.38990460386024    0.4373350919168248    0.3938729510154129    
  0.3268695031104042    0.2793625842354876    0.2543075860532272    0.24650166442741978    0.20970830042617425    
  0.22034694321003115    0.25430752696094855    0.3173439849061484    0.398183814730719    0.4153555843572409    
  0.2880641228451669    0.14216175328550296    0.09439210164316723    0.1421617088871617    0.28806405738479196    
  0.41535562994780895    0.3981838102157897    0.3173439619423667    0.2543075830577637    0.22034698775037348    
  0.20970830042617425    0.1982341004962896    0.2097083281803093    0.24650168969965808    0.31468901213657763    
  0.39857015233493265    0.3989967101239322    0.24125865590386622    0.0943921154409379    0.05402237003121159    
  0.09439211363742368    0.24125868459122427    0.39899675824711106    0.3985701456699808    0.31468897874097496    
  0.24650166770781057    0.2097083343552378    0.1982341004962896    0.20970830389321188    0.22034698378351972    
  0.2543075893074627    0.31734395893969214    0.3981838894179056    0.41535556638943416    0.2880641100673972    
  0.14216175069267872    0.09439210118108886    0.14216174285388866    0.28806413468158176    0.4153555824930608    
  0.3981838879616611    0.31734393944650063    0.25430757839569096    0.22034699176244224    0.20970830389321188    
  0.24650164400130617    0.25430757895902484    0.27936262799885475    0.32686954267585866    0.39387299247080065    
  0.4373350140100445    0.38990454948043735    0.2880640909607432    0.24125863009721998    0.2880641165528606    
  0.38990460627541024    0.43733504612102947    0.393872988733503    0.3268695184067791    0.2793625953754538    
  0.2543075589709788    0.24650164400130617    0.3146890101872898    0.3173439516262398    0.326869491498511    
  0.34831695889376735    0.3851099436821471    0.42490414513015656    0.4373350312279492    0.415355556892784    
  0.39899674261623574    0.41535558286639    0.43733499114237057    0.424904070716246    0.3851099436723001    
  0.34831700512141894    0.32686952733970903    0.3173439430586397    0.3146890101872898    0.39857017060905847    
  0.398183868699082    0.3938729843475755    0.38511000300567666    0.3802842199566736    0.38511000592430267    
  0.39387292650625455    0.3981838077630032    0.39857017291713953    0.39818387057938115    0.393872968234552    
  0.3851099986878759    0.3802842243342805    0.38510999989794603    0.3938729269672439    0.3981838179684507    
  0.39857017060905847    0.3989967302985654    0.41535557692791986    0.43733505092004377    0.42490410606536333    
  0.38511001018536206    0.3483169850280065    0.32686955669602696    0.317343948881286    0.3146890036580403    
  0.3173439567247796    0.3268695475284029    0.3483169721096633    0.38511001138357637    0.42490411384173143    
  0.43733506227337426    0.4153555770464665    0.3989967302985654    0.24125865582193834    0.2880641295753946    
  0.38990460386024    0.4373350919168248    0.3938729510154129    0.3268695031104042    0.2793625842354876    
  0.2543075860532272    0.24650166442741978    0.25430759941874354    0.2793626412479479    0.32686957354522883    
  0.39387293181739713    0.4373350078874115    0.38990454591216467    0.2880641139420738    0.24125865582193834    
  0.09439210164316723    0.1421617088871617    0.28806405738479196    0.41535562994780895    0.3981838102157897    
  0.3173439619423667    0.2543075830577637    0.22034698775037348    0.20970830042617425    0.22034694321003115    
  0.25430752696094855    0.3173439849061484    0.398183814730719    0.4153555843572409    0.2880641228451669    
  0.14216175328550296    0.09439210164316723    0.05402237003121159    0.09439211363742368    0.24125868459122427    
  0.39899675824711106    0.3985701456699808    0.31468897874097496    0.24650166770781057    0.2097083343552378    
  0.1982341004962896    0.2097083281803093    0.24650168969965808    0.31468901213657763    0.39857015233493265    
  0.3989967101239322    0.24125865590386622    0.0943921154409379    0.05402237003121159    0.09439209809456123    
  0.14216171890009902    0.28806411595902337    0.41535559539551714    0.39818383156028564    0.31734394601244004    
  0.2543075744856388    0.22034695756242406    0.20970829849971592    0.22034695492727377    0.25430757522234365    
  0.31734396360514766    0.3981838286753323    0.4153555595170296    0.2880641111865309    0.14216172478685035    
  0.09439209809456123    0.14216173243033342    0.19314539609130468    0.32897132854909805    0.42600495940366445    
  0.395948564023916    0.3188665414568232    0.2609523121271889    0.23001342005670938    0.22034697780974746    
  0.23001342734691546    0.26095232736182744    0.3188665699751881    0.39594857001363304    0.426004909580001    
  0.3289712962496164    0.193145395736997    0.14216173243033342    0.2880641084318276    0.3289712757234183    
  0.4100236650021978    0.43599698136788045    0.3880634310446227    0.3256872473734116    0.2829096584879674    
  0.26095231985449685    0.2543075722522715    0.26095229314709256    0.28290962729583613    0.3256872847441404    
  0.38806343151123285    0.435996948100267    0.41002368380111126    0.32897130033278354    0.2880641084318276    
  0.415355547920825    0.4260049185841095    0.43599694651143445    0.41614268900774437    0.37674208728954317    
  0.3436008885711615    0.3256873301009334    0.3188665421226184    0.31734395099011103    0.3188665348844856    
  0.3256872446692533    0.34360088188713483    0.3767420899473322    0.41614270110406876    0.4359970357671311    
  0.42600490626544507    0.415355547920825    0.39818388576874725    0.3959485570531652    0.38806344548277866    
  0.3767420939325387    0.37109323269977795    0.376742118209175    0.38806344967999185    0.3959485095699577    
  0.39818387966826485    0.3959485430159255    0.38806344951535193    0.37674211062949725    0.37109323930817956    
  0.37674211487199616    0.38806344742884474    0.3959485165716036    0.39818388576874725    0.3173439322989911    
  0.3188665482329355    0.3256872908090666    0.3436009245232261    0.37674214413549456    0.4161426589537452    
  0.43599703418716784    0.4260049169330557    0.41535554436742617    0.4260048950217193    0.4359969854908974    
  0.4161427417711802    0.37674213942508267    0.3436008457734996    0.3256873235110816    0.31886655405875686    
  0.3173439322989911    0.2543075746212074    0.2609523104856393    0.2829096585955414    0.32568734039804814    
  0.3880634690625715    0.43599698534799264    0.4100236741652682    0.3289713393919109    0.2880640921211233    
  0.32897128732487796    0.4100236560129086    0.4359970680776738    0.38806347032960786    0.3256872654640434    
  0.2829096482270731    0.2609523502043658    0.2543075746212074    0.22034696395877906    0.23001338034528185    
  0.26095227286378897    0.31886658678969443    0.3959485036996329    0.4260048968069485    0.32897130581813294    
  0.19314541876331115    0.14216172180391368    0.19314535561298107    0.32897124801829125    0.426004975819531    
  0.39594851312050283    0.31886654167025424    0.26095231492497195    0.2300134380517363    0.22034696395877906    
  0.20970829849971592    0.22034695492727377    0.25430757522234365    0.31734396360514766    0.3981838286753323    
  0.4153555595170296    0.2880641111865309    0.14216172478685035    0.09439209809456123    0.14216171890009902    
  0.28806411595902337    0.41535559539551714    0.39818383156028564    0.31734394601244004    0.2543075744856388    
  0.22034695756242406    0.20970829849971592    0.22034697780974746    0.23001342734691546    0.26095232736182744    
  0.3188665699751881    0.39594857001363304    0.426004909580001    0.3289712962496164    0.193145395736997    
  0.14216173243033342    0.19314539609130468    0.32897132854909805    0.42600495940366445    0.395948564023916    
  0.3188665414568232    0.2609523121271889    0.23001342005670938    0.22034697780974746    0.2543075722522715    
  0.26095229314709256    0.28290962729583613    0.3256872847441404    0.38806343151123285    0.435996948100267    
  0.41002368380111126    0.32897130033278354    0.2880641084318276    0.3289712757234183    0.4100236650021978    
  0.43599698136788045    0.3880634310446227    0.3256872473734116    0.2829096584879674    0.26095231985449685    
  0.2543075722522715    0.31734395099011103    0.3188665348844856    0.3256872446692533    0.34360088188713483    
  0.3767420899473322    0.41614270110406876    0.4359970357671311    0.42600490626544507    0.415355547920825    
  0.4260049185841095    0.43599694651143445    0.41614268900774437    0.37674208728954317    0.3436008885711615    
  0.3256873301009334    0.3188665421226184    0.31734395099011103    0.39818387966826485    0.3959485430159255    
  0.38806344951535193    0.37674211062949725    0.37109323930817956    0.37674211487199616    0.38806344742884474    
  0.3959485165716036    0.39818388576874725    0.3959485570531652    0.38806344548277866    0.3767420939325387    
  0.37109323269977795    0.376742118209175    0.38806344967999185    0.3959485095699577    0.39818387966826485    
  0.41535554436742617    0.4260048950217193    0.4359969854908974    0.4161427417711802    0.37674213942508267    
  0.3436008457734996    0.3256873235110816    0.31886655405875686    0.3173439322989911    0.3188665482329355    
  0.3256872908090666    0.3436009245232261    0.37674214413549456    0.4161426589537452    0.43599703418716784    
  0.4260049169330557    0.41535554436742617    0.2880640921211233    0.32897128732487796    0.4100236560129086    
  0.4359970680776738    0.38806347032960786    0.3256872654640434    0.2829096482270731    0.2609523502043658    
  0.2543075746212074    0.2609523104856393    0.2829096585955414    0.32568734039804814    0.3880634690625715    
  0.43599698534799264    0.4100236741652682    0.3289713393919109    0.2880640921211233    0.14216172180391368    
  0.19314535561298107    0.32897124801829125    0.426004975819531    0.39594851312050283    0.31886654167025424    
  0.26095231492497195    0.2300134380517363    0.22034696395877906    0.23001338034528185    0.26095227286378897    
  0.31886658678969443    0.3959485036996329    0.4260048968069485    0.32897130581813294    0.19314541876331115    
  0.14216172180391368    0.09439209809456123    0.14216171890009902    0.28806411595902337    0.41535559539551714    
  0.39818383156028564    0.31734394601244004    0.2543075744856388    0.22034695756242406    0.20970829849971592    
  0.22034695492727377    0.25430757522234365    0.31734396360514766    0.3981838286753323    0.4153555595170296    
  0.2880641111865309    0.14216172478685035    0.09439209809456123    0.24125864389177132    0.28806412625437744    
  0.38990457436459164    0.4373350754812552    0.3938729242475879    0.3268694990065518    0.2793625563867823    
  0.2543075738830041    0.24650165060736776    0.2543075984463712    0.27936260086759207    0.3268695587094035    
  0.39387293721854116    0.43733497959475    0.38990450815233196    0.28806410919549563    0.24125864389177132    
  0.28806407784513116    0.3289713146229989    0.410023679732687    0.4359970070714636    0.38806351449682724    
  0.3256872938585953    0.2829096459858873    0.2609523358214639    0.2543075485321036    0.2609523156428954    
  0.28290965996142214    0.3256873005400775    0.38806351489850704    0.43599701070894936    0.4100236698426198    
  0.32897132817794617    0.28806407784513116    0.3899045443815277    0.41002366927745115    0.4378949570514903    
  0.42325137387730977    0.37347386830185203    0.32585039305030683    0.2963678585993495    0.2829096690327544    
  0.2793626010196947    0.2829096488604258    0.2963678653027246    0.3258504399965281    0.3734738721897562    
  0.4232513462081771    0.43789495070798395    0.4100237043663465    0.3899045443815277    0.43733502842995825    
  0.4359969881600578    0.42325133405711823    0.39250296636619425    0.35766888166618455    0.3346550260350296    
  0.32585040811948807    0.32568727650863005    0.3268695387216548    0.32568727625663935    0.32585040576843466    
  0.33465501798011776    0.35766887581328805    0.39250298965800834    0.4232513481882232    0.4359969728827283    
  0.43733502842995825    0.393872960775646    0.3880634930251477    0.3734738329945052    0.35766888368284844    
  0.3506611213805378    0.35766889370187355    0.37347383556905456    0.38806345155805183    0.3938729629456596    
  0.3880634985714079    0.37347384520963495    0.35766889466835805    0.35066112269082533    0.3576688937506317    
  0.37347381582903755    0.38806345689985083    0.393872960775646    0.3268695109185369    0.325687309379016    
  0.32585042999483216    0.3346550005672142    0.35766887597135366    0.392502938496068    0.4232513768183564    
  0.43599700682753767    0.43733500370338685    0.4359970080942267    0.42325133606279974    0.39250296156708353    
  0.3576688718908423    0.33465498998902155    0.3258504551341482    0.32568730841176347    0.3268695109185369    
  0.27936260022756676    0.2829096662937825    0.2963679009598683    0.3258504645154672    0.3734738435627856    
  0.42325134737074643    0.4378949732894316    0.4100236939063567    0.38990454282820747    0.4100236796063792    
  0.43789498693430845    0.4232514000752545    0.37347384183059446    0.32585041110752405    0.2963678809626484    
  0.2829096691780402    0.27936260022756676    0.25430755715567765    0.26095228735124026    0.28290962165972106    
  0.32568727871409253    0.38806341517299725    0.4359970168942896    0.41002366476598684    0.32897130092057675    
  0.2880640765390529    0.3289712757372062    0.4100236347694761    0.4359969836783058    0.3880634112597496    
  0.32568730903563536    0.2829096460357567    0.2609523145342809    0.25430755715567765    0.24650165060736776    
  0.2543075984463712    0.27936260086759207    0.3268695587094035    0.39387293721854116    0.43733497959475    
  0.38990450815233196    0.28806410919549563    0.24125864389177132    0.28806412625437744    0.38990457436459164    
  0.4373350754812552    0.3938729242475879    0.3268694990065518    0.2793625563867823    0.2543075738830041    
  0.24650165060736776    0.2543075485321036    0.2609523156428954    0.28290965996142214    0.3256873005400775    
  0.38806351489850704    0.43599701070894936    0.4100236698426198    0.32897132817794617    0.28806407784513116    
  0.3289713146229989    0.410023679732687    0.4359970070714636    0.38806351449682724    0.3256872938585953    
  0.2829096459858873    0.2609523358214639    0.2543075485321036    0.2793626010196947    0.2829096488604258    
  0.2963678653027246    0.3258504399965281    0.3734738721897562    0.4232513462081771    0.43789495070798395    
  0.4100237043663465    0.3899045443815277    0.41002366927745115    0.4378949570514903    0.42325137387730977    
  0.37347386830185203    0.32585039305030683    0.2963678585993495    0.2829096690327544    0.2793626010196947    
  0.3268695387216548    0.32568727625663935    0.32585040576843466    0.33465501798011776    0.35766887581328805    
  0.39250298965800834    0.4232513481882232    0.4359969728827283    0.43733502842995825    0.4359969881600578    
  0.42325133405711823    0.39250296636619425    0.35766888166618455    0.3346550260350296    0.32585040811948807    
  0.32568727650863005    0.3268695387216548    0.3938729629456596    0.3880634985714079    0.37347384520963495    
  0.35766889466835805    0.35066112269082533    0.3576688937506317    0.37347381582903755    0.38806345689985083    
  0.393872960775646    0.3880634930251477    0.3734738329945052    0.35766888368284844    0.3506611213805378    
  0.35766889370187355    0.37347383556905456    0.38806345155805183    0.3938729629456596    0.43733500370338685    
  0.4359970080942267    0.42325133606279974    0.39250296156708353    0.3576688718908423    0.33465498998902155    
  0.3258504551341482    0.32568730841176347    0.3268695109185369    0.325687309379016    0.32585042999483216    
  0.3346550005672142    0.35766887597135366    0.392502938496068    0.4232513768183564    0.43599700682753767    
  0.43733500370338685    0.38990454282820747    0.4100236796063792    0.43789498693430845    0.4232514000752545    
  0.37347384183059446    0.32585041110752405    0.2963678809626484    0.2829096691780402    0.27936260022756676    
  0.2829096662937825    0.2963679009598683    0.3258504645154672    0.3734738435627856    0.42325134737074643    
  0.4378949732894316    0.4100236939063567    0.38990454282820747    0.2880640765390529    0.3289712757372062    
  0.4100236347694761    0.4359969836783058    0.3880634112597496    0.32568730903563536    0.2829096460357567    
  0.2609523145342809    0.25430755715567765    0.26095228735124026    0.28290962165972106    0.32568727871409253    
  0.38806341517299725    0.4359970168942896    0.41002366476598684    0.32897130092057675    0.2880640765390529    
  0.24125864389177132    0.28806412625437744    0.38990457436459164    0.4373350754812552    0.3938729242475879    
  0.3268694990065518    0.2793625563867823    0.2543075738830041    0.24650165060736776    0.2543075984463712    
  0.27936260086759207    0.3268695587094035    0.39387293721854116    0.43733497959475    0.38990450815233196    
  0.28806410919549563    0.24125864389177132    0.3989967410908806    0.4153555731753623    0.4373350398299116    
  0.4249040986080625    0.3851100059729262    0.34831692523169916    0.3268695537209193    0.3173439363802714    
  0.3146890129197662    0.31734395114226505    0.3268695079006436    0.34831697638098097    0.3851100117030964    
  0.42490403928361276    0.4373350594500005    0.4153555509547464    0.3989967410908806    0.4153555785456681    
  0.4260049235816889    0.43599701847576705    0.41614274476284796    0.37674214248506827    0.34360089677196043    
  0.325687305589431    0.31886658938072315    0.31734395139152327    0.3188665511965295    0.32568730007637237    
  0.34360092464161596    0.3767421478269449    0.4161427063643188    0.435997012445615    0.42600496070652083    
  0.4153555785456681    0.43733501326434027    0.4359969802562539    0.42325136774039473    0.3925030053720197    
  0.35766886284834065    0.3346549489333461    0.32585041696480327    0.32568729481857867    0.32686951822154703    
  0.3256872785834267    0.3258504365785488    0.3346550581147421    0.3576688614425408    0.3925029030425106    
  0.4232513505918503    0.4359969940328289    0.43733501326434027    0.42490407484982334    0.4161427046040178    
  0.392502958415882    0.36250634484055394    0.3392234980126694    0.33071068598154796    0.3346550339771369    
  0.34360086041312404    0.34831694127920504    0.3436008939874979    0.3346550169403959    0.330710684008749    
  0.3392235038400878    0.3625063517279208    0.3925029856309126    0.4161426669296119    0.42490407484982334    
  0.38511001461587324    0.37674212788918754    0.3576688421748726    0.3392235240596037    0.33150373699884844    
  0.3392235058837846    0.3576688904199929    0.3767420986293719    0.3851100151562331    0.3767421325288624    
  0.35766885772325024    0.3392235247595877    0.3315037444335263    0.33922350335861673    0.3576688916156376    
  0.37674209043346346    0.38511001461587324    0.3483169492557933    0.34360090447405245    0.33465501543037035    
  0.3307106768090568    0.3392235567471765    0.36250629721712924    0.3925029838571788    0.4161427135049507    
  0.4249040754692634    0.4161427115766953    0.39250295263832774    0.36250633498005413    0.3392235546832528    
  0.33071065575957986    0.3346550278668015    0.3436008984426019    0.3483169492557933    0.3268694933812899    
  0.3256872929936501    0.3258504339014346    0.33465504523469264    0.3576688767412495    0.39250294672515024    
  0.42325133204714976    0.43599701605765023    0.43733497622330225    0.4359969951641354    0.4232513559242695    
  0.3925029981551724    0.35766887847240136    0.3346549937466213    0.32585041196817843    0.3256872906910769    
  0.3268694933812899    0.31734395521339076    0.3188665137580774    0.3256872335298411    0.3436009381685391    
  0.3767421034231948    0.41614269486204286    0.4359969642292609    0.4260049620031482    0.41535555270838825    
  0.4260048735314437    0.43599693705853676    0.41614274856018557    0.376742090382038    0.34360089133464045    
  0.32568726062750825    0.3188665786971757    0.31734395521339076    0.3146890129197662    0.31734395114226505    
  0.3268695079006436    0.34831697638098097    0.3851100117030964    0.42490403928361276    0.4373350594500005    
  0.4153555509547464    0.3989967410908806    0.4153555731753623    0.4373350398299116    0.4249040986080625    
  0.3851100059729262    0.34831692523169916    0.3268695537209193    0.3173439363802714    0.3146890129197662    
  0.31734395139152327    0.3188665511965295    0.32568730007637237    0.34360092464161596    0.3767421478269449    
  0.4161427063643188    0.435997012445615    0.42600496070652083    0.4153555785456681    0.4260049235816889    
  0.43599701847576705    0.41614274476284796    0.37674214248506827    0.34360089677196043    0.325687305589431    
  0.31886658938072315    0.31734395139152327    0.32686951822154703    0.3256872785834267    0.3258504365785488    
  0.3346550581147421    0.3576688614425408    0.3925029030425106    0.4232513505918503    0.4359969940328289    
  0.43733501326434027    0.4359969802562539    0.42325136774039473    0.3925030053720197    0.35766886284834065    
  0.3346549489333461    0.32585041696480327    0.32568729481857867    0.32686951822154703    0.34831694127920504    
  0.3436008939874979    0.3346550169403959    0.330710684008749    0.3392235038400878    0.3625063517279208    
  0.3925029856309126    0.4161426669296119    0.42490407484982334    0.4161427046040178    0.392502958415882    
  0.36250634484055394    0.3392234980126694    0.33071068598154796    0.3346550339771369    0.34360086041312404    
  0.34831694127920504    0.3851100151562331    0.3767421325288624    0.35766885772325024    0.3392235247595877    
  0.3315037444335263    0.33922350335861673    0.3576688916156376    0.37674209043346346    0.38511001461587324    
  0.37674212788918754    0.3576688421748726    0.3392235240596037    0.33150373699884844    0.3392235058837846    
  0.3576688904199929    0.3767420986293719    0.3851100151562331    0.4249040754692634    0.4161427115766953    
  0.39250295263832774    0.36250633498005413    0.3392235546832528    0.33071065575957986    0.3346550278668015    
  0.3436008984426019    0.3483169492557933    0.34360090447405245    0.33465501543037035    0.3307106768090568    
  0.3392235567471765    0.36250629721712924    0.3925029838571788    0.4161427135049507    0.4249040754692634    
  0.43733497622330225    0.4359969951641354    0.4232513559242695    0.3925029981551724    0.35766887847240136    
  0.3346549937466213    0.32585041196817843    0.3256872906910769    0.3268694933812899    0.3256872929936501    
  0.3258504339014346    0.33465504523469264    0.3576688767412495    0.39250294672515024    0.42325133204714976    
  0.43599701605765023    0.43733497622330225    0.41535555270838825    0.4260048735314437    0.43599693705853676    
  0.41614274856018557    0.376742090382038    0.34360089133464045    0.32568726062750825    0.3188665786971757    
  0.31734395521339076    0.3188665137580774    0.3256872335298411    0.3436009381685391    0.3767421034231948    
  0.41614269486204286    0.4359969642292609    0.4260049620031482    0.41535555270838825    0.3989967410908806    
  0.4153555731753623    0.4373350398299116    0.4249040986080625    0.3851100059729262    0.34831692523169916    
  0.3268695537209193    0.3173439363802714    0.3146890129197662    0.31734395114226505    0.3268695079006436    
  0.34831697638098097    0.3851100117030964    0.42490403928361276    0.4373350594500005    0.4153555509547464    
  0.3989967410908806    0.39857015166896337    0.3981838850121897    0.39387297107149405    0.38511003350895606    
  0.38028423134193756    0.38510998684771586    0.39387294109100157    0.3981838580423278    0.3985701586603285    
  0.39818388908565683    0.393872969364961    0.3851100340570467    0.3802842364358752    0.38510998232380717    
  0.3938729458022317    0.39818385155170216    0.39857015166896337    0.39818383995142825    0.3959485366735262    
  0.3880635010277768    0.37674210760225146    0.37109327279242565    0.3767421014757936    0.38806346557065274    
  0.39594853317176565    0.3981838407262905    0.395948552695616    0.3880635024080936    0.37674210320153695    
  0.3710932674218376    0.37674209105360057    0.3880634558885452    0.39594851709580847    0.39818383995142825    
  0.3938729326174055    0.3880634918451633    0.37347386038240815    0.35766891830969194    0.3506611679345256    
  0.35766885531817627    0.3734738511208614    0.388063513105814    0.3938729412789824    0.38806350469313666    
  0.3734738592044832    0.35766891596045236    0.3506611686297032    0.3576688586896618    0.37347384524201105    
  0.3880635000495784    0.3938729326174055    0.38511001669783734    0.37674212030299986    0.3576688455871733    
  0.3392235414006303    0.33150373662369675    0.33922355082777933    0.35766889240536676    0.3767421186009366    
  0.38511001814272855    0.37674211914579603    0.3576688507930393    0.33922353195144617    0.3315037484492045    
  0.3392235573258063    0.3576688857987717    0.37674211745797503    0.38511001669783734    0.38028426506595736    
  0.37109327671785663    0.35066114960939565    0.3315037902134455    0.32362798630147505    0.3315037710223728    
  0.3506611287816491    0.37109320037950755    0.380284262097427    0.37109328040332584    0.3506611596685393    
  0.33150379032200855    0.3236279813621032    0.3315037631480929    0.3506611220167625    0.37109320463414786    
  0.38028426506595736    0.3851099873911443    0.3767421187820408    0.3576688944228398    0.33922354254200804    
  0.33150379162998744    0.33922354228652973    0.35766890671162715    0.37674212856519546    0.3851099837101687    
  0.3767421266260305    0.35766889179359285    0.3392235318404178    0.3315037948465381    0.3392235364407167    
  0.3576689134116248    0.376742127336259    0.3851099873911443    0.3938729551025808    0.38806349599401196    
  0.3734738895523281    0.3576689365935911    0.35066114571614737    0.357668847268302    0.3734738418088866    
  0.38806351357455315    0.3938729531347341    0.38806350198372164    0.3734738952795777    0.35766892757466867    