#     DFTpy    
  CRYSTAL 
    
  PRIMVEC    
  3.0081720857993575    -1.6527484e-10    3.1326653379310344e-10    
  -1.6527484e-10    3.0081720856245604    1.509469634482759e-10    
  5.724550931034482e-10    2.758823862068966e-10    5.511029561459648    
  PRIMCOORD    
  4    1    
  Si    1.5040860428423668    1.5040860436400265    1.6935076932338269    
  Si    5.577539123788332e-10    -5.161938117572343e-10    1.0620070856434556    
  Si    8.554634039746539e-11    3.8984959761118457e-10    4.449022472690294    
  Si    1.5040860432933258    1.504086042497368    3.817521871815932    
  BEGIN_BLOCK_DATAGRID_3D    
  3d_datagrid_density    
  BEGIN_DATAGRID_3D#0    
  13    13    25    
  0.0    0.0    0.0    
  3.0081720857993575    -1.6527484e-10    3.1326653379310344e-10    
  -1.6527484e-10    3.0081720856245604    1.509469634482759e-10    
  5.724550931034482e-10    2.758823862068966e-10    5.511029561459648    
  0.7274477207037418    0.6594613558507516    0.49920634911575806    0.3301001528077818    0.20825975536051514    
  0.14318151550826128    0.12350763202978408    0.143181520150812    0.208259714478285    0.3301001095589513    
  0.49920642372912455    0.6594612809880102    0.7274477207037418    0.659461341870769    0.6008434173825177    
  0.46096773097369503    0.3110846699346193    0.2015991604971463    0.14210501807004322    0.12384160554468529    
  0.14210506563802516    0.20159916292906827    0.3110847167089648    0.4609677918616564    0.6008433228773745    
  0.659461341870769    0.49920637037993737    0.4609678252633274    0.3677725758309084    0.2639930844870753    
  0.18451648806116813    0.1389078997943381    0.12427573469908534    0.13890790721380455    0.18451648270253607    
  0.2639930955499591    0.3677725584764005    0.46096770214618416    0.49920637037993737    0.3301001323231359    
  0.3110846722221977    0.263993079127461    0.2085574938149779    0.16257290902143043    0.13413767050160463    
  0.12455140551428391    0.13413766511434838    0.16257288914153373    0.20855746181054793    0.263993082247088    
  0.311084649546817    0.3301001323231359    0.2082597126529458    0.20159916962722255    0.18451647854193556    
  0.1625728990944414    0.14241004048477382    0.12915585671195184    0.1246187109514057    0.1291558688206537    
  0.14241001450936758    0.1625729443421322    0.1845165193996746    0.20159912762761995    0.2082597126529458    
  0.14318149028460275    0.14210507493051913    0.13890789670499606    0.13413767614530664    0.12915587242679585    
  0.1254752298469377    0.12413378908862034    0.12547521238470563    0.1291558650061715    0.13413770339798375    
  0.1389079485903493    0.14210504622239034    0.14318149028460275    0.12350760738143991    0.12384159165894643    
  0.12427575105569644    0.12455138583674229    0.12461870731743512    0.1241338114194808    0.12376555872573929    
  0.12413378566025812    0.12461871099184531    0.12455138749049481    0.12427576876230358    0.12384162137846924    
  0.12350760738143991    0.14318146827818268    0.1421050351008564    0.13890794718810082    0.13413765503280345    
  0.12915587350589233    0.12547523819982367    0.12413379927800337    0.12547521882665463    0.1291558734798361    
  0.13413770849607495    0.13890795443436443    0.14210503251248074    0.14318146827818268    0.2082597451808901    
  0.20159922657924892    0.1845164867203607    0.1625729304130273    0.1424100765392788    0.1291558679652327    
  0.12461870252822604    0.12915587678522375    0.14241003193915755    0.16257290708573555    0.18451656780763914    
  0.2015991269138453    0.2082597451808901    0.33010010879704305    0.31108470725999293    0.2639930592908695    
  0.20855745578472804    0.16257292186351038    0.13413769065735573    0.1245514042477508    0.1341376853740544    
  0.16257290773798894    0.2085574548924326    0.2639931091308915    0.31108461058714315    0.33010010879704305    
  0.4992062903922206    0.46096775606959794    0.36777254751391314    0.26399308036671965    0.1845164623014749    
  0.13890792306891794    0.12427571378922965    0.13890791139376021    0.1845164628531416    0.2639931430801165    
  0.3677725379427091    0.46096772199581265    0.4992062903922206    0.6594614277954709    0.600843433426862    
  0.4609677696800649    0.3110847052700487    0.20159913404847354    0.1421050106828414    0.12384161451229005    
  0.14210504072250105    0.20159909786683006    0.3110847232608638    0.46096779459599785    0.600843383209859    
  0.6594614277954709    0.7274477207037418    0.6594613558507516    0.49920634911575806    0.3301001528077818    
  0.20825975536051514    0.14318151550826128    0.12350763202978408    0.143181520150812    0.208259714478285    
  0.3301001095589513    0.49920642372912455    0.6594612809880102    0.7274477207037418    0.6763820422692493    
  0.6283188071362464    0.4984409950571606    0.34125345035098453    0.21937935061491529    0.1524568171432853    
  0.13210057503138942    0.15245682890890605    0.21937929027667497    0.3412534220016786    0.4984410161077601    
  0.628318813069963    0.6763820422692493    0.6283188732653886    0.5837079868584061    0.46520143393551494    
  0.3235153848496955    0.2133889934595775    0.15205109296843314    0.13312922842340852    0.1520510971425412    
  0.21338893810449377    0.3235154713839794    0.4652014897240134    0.583707948951419    0.6283188732653886    
  0.4984410454416428    0.4652015864983634    0.37967489503618174    0.27855763692182334    0.19790669040178166    
  0.1507149235037796    0.13552428121046312    0.15071494617316947    0.19790664109366246    0.2785576549991969    
  0.37967494751090997    0.4652014125259387    0.4984410454416428    0.34125347400234063    0.32351548099708854    
  0.27855761618077673    0.22411309675486943    0.17769284994927007    0.1483295212272346    0.138334106634276    
  0.1483294812388914    0.17769283491054916    0.22411311010264032    0.2785576141109709    0.32351542340141337    
  0.34125347400234063    0.2193793298311315    0.2133889939339553    0.19790666372794943    0.1776928209200252    
  0.15845703065276856    0.14519918899392134    0.14051085972847344    0.14519921801350993    0.1584570249824121    
  0.17769286880503438    0.19790666360910233    0.2133889235707436    0.2193793298311315    0.15245684327312609    
  0.15205110625907564    0.15071495751558575    0.14832949418518446    0.14519920834520367    0.1424710702653251    
  0.1414392811121518    0.14247103598360983    0.1451992071735966    0.14832951093635047    0.15071497789885924    
  0.15205106542751534    0.15245684327312609    0.13210056316875435    0.13312925021425287    0.1355243355466162    
  0.13833409098057778    0.1405108470062016    0.141439314874794    0.14165788278317726    0.14143930056805884    
  0.14051085920213108    0.13833408066894576    0.1355242945809055    0.1331292197917629    0.13210056316875435    
  0.15245675750355164    0.1520511213144984    0.15071497797914393    0.14832948002622426    0.14519920833738462    
  0.1424711141074525    0.14143930212152106    0.14247109769521202    0.14519920270538922    0.14832952504311062    
  0.15071495657429276    0.15205108687779545    0.15245675750355164    0.21937933322597633    0.21338901731031112    
  0.19790666456223713    0.1776928503315936    0.15845703617937398    0.14519920423343738    0.14051084837685338    
  0.14519921175508646    0.1584569821451061    0.17769282981636433    0.197906724362871    0.21338892825037314    
  0.21937933322597633    0.3412534660008925    0.3235154738375541    0.27855763713667897    0.22411306693920335    
  0.17769281394531874    0.14832954317665067    0.13833408994889557    0.1483295109719047    0.17769284662137216    
  0.22411309935934542    0.27855765659809634    0.323515422137061    0.3412534660008925    0.49844091117473166    
  0.4652015038104085    0.3796748693778392    0.27855762935089984    0.19790661655027125    0.1507149461248943    
  0.13552424578067782    0.1507149380868662    0.19790665745866254    0.2785576840336732    0.37967489022771445    
  0.4652014070464831    0.49844091117473166    0.628318960864273    0.5837079677268242    0.46520146183307676    
  0.32351551071265044    0.21338897274003937    0.15205108777273324    0.13312922997629528    0.15205109177686574    
  0.21338891861503126    0.32351549587588785    0.4652014865603287    0.583707943626334    0.628318960864273    
  0.6763820422692493    0.6283188071362464    0.4984409950571606    0.34125345035098453    0.21937935061491529    
  0.1524568171432853    0.13210057503138942    0.15245682890890605    0.21937929027667497    0.3412534220016786    
  0.4984410161077601    0.628318813069963    0.6763820422692493    0.46854841046674    0.48249210028032014    
  0.46539973292850834    0.36630119717167325    0.25179977164884904    0.1802679544391227    0.15769737896826058    
  0.18026793735846727    0.2517997476076439    0.3663012102758392    0.4653997596540639    0.4824921204602327    
  0.46854841046674    0.4824921087398194    0.4864850411373519    0.45396676027479616    0.3549396241766383    
  0.2486547758166692    0.1823715386337145    0.16126951904873038    0.18237157632410064    0.24865476126030636    
  0.35493973547210284    0.45396692574576336    0.48648503622749706    0.4824921087398194    0.4653998045937782    
  0.4539669207297539    0.40516626684040113    0.3208142560410604    0.23925766997298809    0.18747784211493357    
  0.17044932459177456    0.1874778693918419    0.23925766866118442    0.32081424057552954    0.4051663241464807    
  0.45396674032588696    0.4653998045937782    0.36630121698053003    0.35493970956765447    0.32081425227938903    
  0.2718069447394187    0.224913641575738    0.19311779967416087    0.18201031422201686    0.19311779792301909    
  0.2249136311482691    0.2718069399759467    0.32081425871901587    0.35493961840512706    0.36630121698053003    
  0.2517997283687077    0.24865481135949394    0.2392576390674293    0.22491365014840195    0.20918444732491082    
  0.19676392825510292    0.19198862601610472    0.19676393588094201    0.20918443273508486    0.22491372776141294    
  0.23925767171079718    0.24865473978963193    0.2517997283687077    0.18026794381808117    0.1823715830235978    
  0.18747786462031382    0.19311778625706208    0.19676393489660604    0.198035201477443    0.19832566561069936    
  0.19803521952390954    0.19676388957247373    0.19311779437051874    0.18747789694233702    0.18237152138888268    
  0.18026794381808117    0.15769736725230973    0.16126952614769346    0.1704493249441349    0.18201028066935393    
  0.19198861169475026    0.19832572849333768    0.20067279833930773    0.19832570359658674    0.19198860646419613    
  0.18201025471590457    0.17044935165445207    0.16126948419686837    0.15769736725230973    0.18026788207958216    
  0.18237154044583562    0.18747786729019053    0.19311776617642254    0.1967639185286889    0.19803521640290148    
  0.19832567428990627    0.19803522127955878    0.19676395080078476    0.19311785119393887    0.18747790894419952    
  0.18237152841858298    0.18026788207958216    0.2517997540893727    0.2486547998115298    0.23925763533398905    
  0.2249137105253245    0.20918446490663503    0.19676388630354735    0.19198859310734462    0.19676389332489086    
  0.20918443006819673    0.22491364616705584    0.2392577137180563    0.24865471752857168    0.2517997540893727    
  0.36630126977436217    0.354939705327361    0.3208142450186085    0.2718068959834163    0.22491366788080663    
  0.19311781135944084    0.1820102883454105    0.19311781311969461    0.2249136817581094    0.27180686557289535    
  0.32081429659227384    0.3549396330823124    0.36630126977436217    0.46539971792263846    0.4539668702911346    
  0.4051662739061363    0.3208142199634737    0.2392576163787895    0.1874778392217333    0.17044927539867102    
  0.18747787513559094    0.2392576372469735    0.3208143136530435    0.40516625260785083    0.4539667669875178    
  0.46539971792263846    0.4824922098448272    0.4864850765394054    0.4539668975638628    0.35493972822087594    
  0.24865479140454108    0.18237153611506765    0.16126950364779763    0.18237156927262974    0.24865474337069643    
  0.3549397378889879    0.4539668799049243    0.48648501790773285    0.4824922098448272    0.46854841046674    
  0.48249210028032014    0.46539973292850834    0.36630119717167325    0.25179977164884904    0.1802679544391227    
  0.15769737896826058    0.18026793735846727    0.2517997476076439    0.3663012102758392    0.4653997596540639    
  0.4824921204602327    0.46854841046674    0.19336315010376942    0.25341161921309235    0.3753041349448915    
  0.3907475447627448    0.30168519897707674    0.22508199911316065    0.19909019430110564    0.22508198107412605    
  0.3016850807224475    0.39074755093338237    0.37530418572061186    0.25341155844771446    0.19336315010376942    
  0.2534116096606414    0.3072097187507639    0.4010817343791603    0.39352323440950726    0.30456620089932696    
  0.23212692675785673    0.2075379375249526    0.23212693583018246    0.30456624266423293    0.39352334326491395    
  0.4010818102051657    0.3072097284464436    0.2534116096606414    0.3753041219800704    0.4010818270888171    
  0.42656021602003374    0.3853789578766447    0.30830291105053204    0.25004018217640706    0.22999468654137722    
  0.2500402637056208    0.3083028749092719    0.3853789721537862    0.4265601823512082    0.4010817431780062    
  0.3753041219800704    0.3907475756615941    0.3935233058540281    0.3853789207849327    0.35147185263468855    
  0.30654554072021767    0.2718217322266274    0.2591374705392267    0.2718217403883553    0.30654557921990366    
  0.3514718115266959    0.38537892543989627    0.39352330827840243    0.3907475756615941    0.3016851073695773    
  0.30456619035283217    0.308302882683026    0.30654555530940336    0.29884948814540757    0.2889951791724393    
  0.28426769315990436    0.2889951739393377    0.29884943344483256    0.3065456577924749    0.30830289226124374    
  0.3045661471592329    0.3016851073695773    0.22508195317192153    0.23212695840762834    0.25004019642008574    
  0.2718217425905231    0.2889951571838878    0.2967595135315709    0.29829992423287066    0.29675949619945874    
  0.2889951619683584    0.2718217242948307    0.250040294442596    0.23212693434038772    0.22508195317192153    
  0.19909018289530467    0.20753795794262075    0.22999468979515458    0.2591374393286514    0.2842676436647519    
  0.29829998738130586    0.30241139553144547    0.2982999432774208    0.28426764358441686    0.25913745262005    
  0.22999470666078276    0.20753793657347094    0.19909018289530467    0.2250819324582536    0.23212693804527085    
  0.25004025238939176    0.2718216602970397    0.2889951615986853    0.29675953953263035    0.2982999076837407    
  0.29675950980710014    0.28899518475421715    0.2718217644775306    0.2500402542047545    0.23212689512798315    
  0.2250819324582536    0.30168517446696813    0.30456624191613924    0.30830288326615    0.30654562151416376    
  0.2988494923864028    0.288995151695042    0.2842676335382939    0.2889951338079202    0.2988494732785754    
  0.3065455861516097    0.30830291458988685    0.30456614361021467    0.30168517446696813    0.39074754476911294    
  0.3935233709140537    0.3853789304632413    0.35147183711468155    0.30654561950060644    0.27182173823761857    
  0.2591374620372584    0.2718217395385052    0.30654559802473835    0.35147176255269874    0.38537897590787357    
  0.39352321666672024    0.39074754476911294    0.3753041095006176    0.40108177827780617    0.42656021436941016    
  0.38537893795507777    0.30830285353701986    0.25004021992431685    0.2299946382661032    0.25004023334555825    
  0.3083028630770751    0.3853790111468726    0.42656014488572774    0.4010817271532597    0.3753041095006176    
  0.2534116631542043    0.3072097499543125    0.4010818052496749    0.3935233204502103    0.30456619444807864    
  0.2321269101215231    0.2075379699876405    0.23212691882811612    0.3045661626914874    0.3935233714187957    
  0.40108179295939594    0.307209712083465    0.2534116631542043    0.19336315010376942    0.25341161921309235    
  0.3753041349448915    0.3907475447627448    0.30168519897707674    0.22508199911316065    0.19909019430110564    
  0.22508198107412605    0.3016850807224475    0.39074755093338237    0.37530418572061186    0.25341155844771446    
  0.19336315010376942    0.06533637896665113    0.11952485030083271    0.2960914627955511    0.41510663445265694    
  0.3590664263757291    0.2788271604658288    0.24965580933069156    0.2788271205826597    0.3590663785638091    
  0.41510664932454816    0.29609146677453485    0.1195248206892458    0.06533637896665113    0.11952484073391116    
  0.18269664664729796    0.3499555929587155    0.4344479395232271    0.3701661435840594    0.29292841682729454    
  0.2650320535742097    0.2929284460415088    0.370166079734117    0.43444804328005976    0.34995562348797693    
  0.182696648203741    0.11952484073391116    0.2960914614046992    0.3499556556959779    0.44761127442417475    
  0.46070736723293415    0.393953359449496    0.33032519069773014    0.30725856715228533    0.3303252440112838    
  0.39395334170550605    0.46070738541174716    0.44761127866915673    0.34995556916391185    0.2960914614046992    
  0.4151067145291402    0.4344481232300098    0.46070735276006536    0.45133726572695515    0.4132996399313985    
  0.37606188833665444    0.36114374642002345    0.37606185209828913    0.4132996709112149    0.4513372820650766    
  0.4607073311834292    0.43444802183593256    0.4151067145291402    0.3590663972399789    0.37016612248000436    
  0.3939533176718694    0.41329966033959437    0.4169616653277002    0.4051372772468031    0.39646726605346316    
  0.4051373696651532    0.4169616466819864    0.4132996907108411    0.39395330821345226    0.37016598545094587    
  0.3590663972399789    0.27882710365133806    0.2929284376990919    0.3303252103122895    0.3760618497364336    
  0.4051372823266414    0.40350120350578506    0.3955603676728861    0.403501194256241    0.40513727591312776    
  0.37606184825486155    0.33032523839460554    0.2929283798492849    0.27882710365133806    0.24965579639624694    
  0.26503201707926505    0.3072585936509646    0.36114371296282366    0.39646728024506744    0.3955603988033743    
  0.38686361578919864    0.3955604232039912    0.3964673360485372    0.3611437510795312    0.3072585304738998    
  0.26503200432090646    0.24965579639624694    0.2788270349344478    0.29292844731558865    0.33032529539932026    
  0.376061824310889    0.4051373013627214    0.40350124240191076    0.39556039533895654    0.40350130218903146    
  0.40513732338180924    0.37606190888938446    0.3303252567952642    0.29292840006469867    0.2788270349344478    
  0.35906640052625305    0.3701661508149178    0.39395337816573484    0.41329969122546295    0.41696163893982013    
  0.40513727264042093    0.396467282735283    0.4051373070798033    0.416961618738387    0.4132997130325876    
  0.3939534337766912    0.3701660682049376    0.35906640052625305    0.41510664724710306    0.43444809051139527    
  0.46070737680976875    0.45133720593918053    0.41329967640521387    0.37606190303826514    0.3611437244875418    
  0.3760619218495533    0.41329970861181875    0.4513372310467648    0.4607073645062856    0.4344480489025945    
  0.41510664724710306    0.29609140334679573    0.34995565508617327    0.44761125726117706    0.4607073303900372    
  0.39395328108631783    0.33032525235207266    0.30725848965688113    0.33032523623477855    0.3939533315706519    
  0.4607074215722924    0.4476112144796353    0.3499555461454916    0.29609140334679573    0.1195248599306388    
  0.18269667172390977    0.34995563733989005    0.43444811951284057    0.370166102153627    0.2929284063654742    
  0.26503201358285433    0.2929284255643101    0.3701660650603149    0.43444809893544745    0.3499555898692859    
  0.18269661434998727    0.1195248599306388    0.06533637896665113    0.11952485030083271    0.2960914627955511    
  0.41510663445265694    0.3590664263757291    0.2788271604658288    0.24965580933069156    0.2788271205826597    
  0.3590663785638091    0.41510664932454816    0.29609146677453485    0.1195248206892458    0.06533637896665113    
  0.05484487935487311    0.10830040773434484    0.29924152854235236    0.4500155690023244    0.40574934706303434    
  0.32359271932508277    0.292796130714898    0.3235926922488059    0.4057492964028584    0.4500155909118082    
  0.29924154017499577    0.10830038187946003    0.05484487935487311    0.10830038381174482    0.17433123351115384    
  0.3630655266767767    0.4787749837960469    0.42475324575820766    0.34559650263452146    0.31608453381463275    
  0.34559653883770336    0.42475326482051584    0.47877506386520824    0.36306562527922154    0.17433126075396393    
  0.10830038381174482    0.29924155276852205    0.36306558988910004    0.4890126439572543    0.5282551041022566    
  0.4700336905764472    0.40487477880075623    0.3800815752772945    0.40487482062276925    0.47003369387836713    
  0.528255040802208    0.48901267099136164    0.36306548084969925    0.29924155276852205    0.4500156735805088    
  0.4787750494626583    0.5282550706654644    0.5412362714962017    0.5117937988488842    0.4694882274597719    
  0.4497042946948997    0.46948828758701583    0.5117938596398102    0.5412363397582839    0.5282550729608002    
  0.47877502689288504    0.4500156735805088    0.4057492916294298    0.4247533298926419    0.4700337166041553    
  0.5117937814819598    0.5146609371888826    0.4738587985590197    0.4466658267474955    0.4738588977138652    
  0.514660955590306    0.5117938574538112    0.4700336352908907    0.42475311285785894    0.4057492916294298    
  0.32359268462604135    0.3455965648389935    0.4048748313991567    0.46948828453318614    0.473858854499701    
  0.4044792129275821    0.3611119196348721    0.4044792640921981    0.4738588653989889    0.4694882758193166    
  0.4048748678051658    0.3455964905267069    0.32359268462604135    0.29279610901684966    0.3160845309277089    
  0.380081636129594    0.44970429376899895    0.44666582250090725    0.3611119745901976    0.31158891546629075    
  0.36111193315820944    0.4466658167624665    0.4497042113558213    0.38008163015814594    0.31608453098482014    
  0.29279610901684966    0.3235925989269091    0.3455965300911133    0.4048748781828776    0.4694883075103879    
  0.4738588816426906    0.40447925575771526    0.3611119661494737    0.4044792872421422    0.47385892897360365    
  0.4694884065357952    0.4048748563098601    0.34559646147762796    0.3235925989269091    0.4057492827844811    
  0.4247532813450845    0.4700336610347757    0.5117938453953437    0.5146608942962843    0.47385885482985945    
  0.4466657592812599    0.473858838707331    0.514660898476676    0.5117937682102075    0.4700337413155188    
  0.42475322959566936    0.4057492827844811    0.45001559877274677    0.47877510397515616    0.5282550529324174    
  0.5412362442306867    0.511793824065059    0.4694883249190538    0.44970424363146355    0.469488340888289    
  0.511793809754689    0.5412361915893812    0.5282551613532066    0.478775075454454    0.45001559877274677    
  0.2992414712612275    0.3630655427989245    0.48901264642164144    0.5282550930333538    0.4700336365314826    
  0.4048748092621758    0.3800815393066726    0.4048748248054822    0.47003360055910137    0.5282551688121218    
  0.48901265417463197    0.3630654696056515    0.2992414712612275    0.10830041255336859    0.17433127582558552    
  0.3630655599907168    0.4787751376741495    0.42475322677411126    0.3455964508798967    0.31608457719362354    
  0.3455965537395303    0.42475321822578044    0.47877512056605687    0.3630655561896177    0.17433123484400143    
  0.10830041255336859    0.05484487935487311    0.10830040773434484    0.29924152854235236    0.4500155690023244    
  0.40574934706303434    0.32359271932508277    0.292796130714898    0.3235926922488059    0.4057492964028584    
  0.4500155909118082    0.29924154017499577    0.10830038187946003    0.05484487935487311    0.1356321993214276    
  0.2035032744825402    0.38170929585982344    0.4772885335508986    0.41761804725259977    0.33897639806748875    
  0.30974482548371046    0.3389763892785572    0.41761799912909076    0.47728850407496975    0.38170934378533006    
  0.20350325959635063    0.1356321993214276    0.20350328088039207    0.2743012997890191    0.43585213564047354    
  0.5043373843605776    0.4415464947944557    0.36687288735034235    0.33897627312738593    0.3668729492471292    
  0.4415465282023908    0.5043374156328995    0.43585215859417253    0.27430127621645095    0.20350328088039207    
  0.38170930467196396    0.4358521669481415    0.5331417914116064    0.5554046816095168    0.5017122348034011    
  0.4415463711681304    0.4176180196364657    0.4415464590464794    0.5017123033623994    0.5554045695812593    
  0.5331416961700052    0.4358520628677685    0.38170930467196396    0.477288589554151    0.5043373785549388    
  0.555404621766955    0.579047221434555    0.5554045890084015    0.5043374114179157    0.4772886141037574    
  0.5043374428453457    0.555404643762024    0.5790472230538908    0.5554046119535058    0.5043374033190569    
  0.477288589554151    0.4176179953224721    0.4415464940722862    0.5017122202223671    0.5554045044806225    
  0.5331417146238486    0.43585213431562486    0.3817093228667999    0.43585214184307974    0.5331416026349999    
  0.5554045925928786    0.501712268312102    0.441546430223865    0.4176179953224721    0.33897633787919895    
  0.3668729942151899    0.4415464724699357    0.5043374437128569    0.43585215686610734    0.27430126621428014    
  0.20350326652014003    0.27430126645595504    0.4358521820025778    0.5043373909478883    0.44154652891664126    
  0.36687293771158075    0.33897633787919895    0.3097447958065708    0.33897626179559    0.4176180756804565    
  0.47728854135616006    0.3817092442283264    0.20350328988600555    0.13563223092087337    0.20350327738135396    
  0.3817093132925773    0.477288597203919    0.4176180425779618    0.33897630735746676    0.3097447958065708    
  0.33897629638002896    0.36687295724815105    0.441546505845883    0.5043373333943926    0.4358521304882539    
  0.2743013089505197    0.20350329412108928    0.27430128607303633    0.43585212362008036    0.5043374565239287    
  0.4415465230293868    0.36687291509518294    0.33897629638002896    0.4176180297300036    0.4415465247500516    
  0.5017122606631823    0.555404683744254    0.5331417121403721    0.43585211485920594    0.3817093119649002    
  0.4358521327859191    0.5331416901162919    0.5554045344053563    0.5017122985392648    0.4415463439171801    
  0.4176180297300036    0.47728854472560356    0.5043374235351495    0.5554046112783497    0.5790472207499426    
  0.5554046088484255    0.5043374517173678    0.4772885940584705    0.5043374775446412    0.5554046473752199    
  0.5790471843415522    0.5554046833130516    0.5043373147115009    0.47728854472560356    0.38170925338258777    
  0.4358521566351367    0.5331416967149665    0.5554045520489471    0.5017122104902981    0.4415464848843642    
  0.417617973460164    0.4415464254283343    0.5017122543952235    0.5554047209392408    0.5331416668758688    
  0.43585207436659257    0.38170925338258777    0.20350330900669233    0.2743013378193571    0.4358521689637355    
  0.5043373948906936    0.44154645249847063    0.36687291863864857    0.3389763346864529    0.3668729454616775    
  0.44154639315868244    0.5043374100021853    0.4358521738961929    0.2743012747839676    0.20350330900669233    
  0.1356321993214276    0.2035032744825402    0.38170929585982344    0.4772885335508986    0.41761804725259977    
  0.33897639806748875    0.30974482548371046    0.3389763892785572    0.41761799912909076    0.47728850407496975    
  0.38170934378533006    0.20350325959635063    0.1356321993214276    0.3115888770431647    0.36111188835872987    
  0.446665817137031    0.44970416583662604    0.3800816237990096    0.3160846178126082    0.2927960927510256    
  0.31608460312500547    0.38008161268446317    0.4497041784611505    0.4466658045706551    0.36111186323030425    
  0.3115888770431647    0.36111191492040634    0.4044792573263212    0.4738589200895192    0.4694881925014199    
  0.404874900112777    0.34559650960568056    0.32359259097827775    0.34559653593188516    0.4048748496521085    
  0.4694882997456567    0.4738588740519646    0.40447925350778263    0.36111191492040634    0.44666587923630646    
  0.47385902364100235    0.5146609830800049    0.5117938964390112    0.4700337453494783    0.42475318412971297    
  0.40574925477911783    0.4247532599791849    0.4700336735407367    0.5117938543847905    0.5146609510388791    
  0.473858803627557    0.44666587923630646    0.44970421392950016    0.4694883149669112    0.5117937653875486    
  0.5412363499908528    0.5282550878430351    0.47877511369364906    0.45001568844688933    0.47877507661095786    
  0.528255034859059    0.5412362911589219    0.5117938134643708    0.4694881972638746    0.44970421392950016    
  0.38008156397693055    0.4048748945657643    0.47003370493782853    0.5282550530260273    0.4890126049827691    
  0.36306548110933123    0.2992415210975586    0.3630655140562149    0.4890126644241358    0.5282551544099794    
  0.47003369097098885    0.4048747900032718    0.38008156397693055    0.316084604234195    0.34559653152520864    
  0.4247532707630088    0.4787750403099709    0.36306553827788846    0.17433122585061844    0.10830038749676812    
  0.17433122032104556    0.3630655376452939    0.4787751233533785    0.42475327507572935    0.3455964541266307    