#     DFTpy    
  CRYSTAL 
    
  PRIMVEC    
  3.8511724137931034    0.0    0.0    
  0.0    3.8511724137931034    0.0    
  0.0    0.0    3.8511724137931034    
  PRIMCOORD    
  4    1    
  Si    0.0    0.0    0.0    
  Si    0.0    1.9255862068965517    1.9255862068965517    
  Si    1.9255862068965517    0.0    1.9255862068965517    
  Si    1.9255862068965517    1.9255862068965517    0.0    
  BEGIN_BLOCK_DATAGRID_3D    
  3d_datagrid_density    
  BEGIN_DATAGRID_3D#0    
  17    17    17    
  0.0    0.0    0.0    
  3.8511724137931034    0.0    0.0    
  0.0    3.8511724137931034    0.0    
  0.0    0.0    3.8511724137931034    
  0.056797585169584955    0.10493282264499224    0.269207921601949    0.3916879740467638    0.3344331453871835    
  0.23653155435041986    0.1733962672882334    0.14279000468559672    0.1339549194451057    0.14278998932056733    
  0.1733962540285678    0.2365315906814058    0.33443313873878655    0.391687979618217    0.2692079502659391    
  0.10493281202545687    0.056797585169584955    0.10493282254192726    0.16084647240037678    0.3139928948706403    
  0.3958400506517946    0.3275481643601811    0.23607165351256165    0.17856187546886837    0.15081741387496178    
  0.14278999063731548    0.15081743362843414    0.17856186956510772    0.23607163584542756    0.3275481512755063    
  0.39584003105346877    0.31399290700160165    0.16084647213328346    0.10493282254192726    0.2692078928960054    
  0.31399287577911267    0.3908310176474725    0.38559880865021856    0.30927886281934885    0.2387470764922918    
  0.1974211684516562    0.1785618776952863    0.1733962542667649    0.1785618798729972    0.19742118999709843    
  0.2387471190917288    0.3092789058800977    0.38559888496557626    0.39083106076288304    0.3139929195897121    
  0.2692078928960054    0.3916879689313521    0.39584001980963046    0.3855987983750344    0.34153752906549184    
  0.28875664275139973    0.25352802342592856    0.23874710727212067    0.23607162942334228    0.23653162429585334    
  0.23607162152327352    0.23874706479408092    0.2535280325732817    0.28875659519783065    0.3415374967424583    
  0.3855988255108049    0.3958400393104874    0.3916879689313521    0.3344331443113416    0.32754817444500356    
  0.30927888924556024    0.28875657624315426    0.27964679902234646    0.2887566251980548    0.3092788967514826    
  0.32754821251896477    0.3344331488000642    0.3275482163548225    0.30927889877222997    0.28875662548435865    
  0.2796467283151906    0.28875663698768217    0.30927888541078696    0.3275482084748022    0.3344331443113416    
  0.23653158912567107    0.23607164522341453    0.23874707947236715    0.25352805540734263    0.2887566306081947    
  0.34153749411453405    0.3855988798169206    0.3958400514006503    0.39168798751063577    0.39584002875151014    
  0.38559884530095373    0.3415375156973687    0.2887566381651281    0.25352798187934583    0.23874709515101772    
  0.2360716600406083    0.23653158912567107    0.17339625966221572    0.17856188777958618    0.19742112767655062    
  0.2387470815677175    0.30927892264685475    0.38559888138903986    0.39083110095454715    0.31399290245198075    
  0.26920792677347966    0.3139928696000882    0.3908310820617698    0.38559886341202376    0.30927888641296647    
  0.23874710004488445    0.19742117004155255    0.17856189610474657    0.17339625966221572    0.14278999637517856    
  0.15081740460244938    0.17856186550992623    0.23607164306883485    0.32754818834516114    0.39584003046234323    
  0.31399290471560526    0.16084647453615258    0.10493282000261751    0.16084647886276335    0.31399287580214374    
  0.39584001339355135    0.3275481670835293    0.23607164582565285    0.1785618705361129    0.15081740333054416    
  0.14278999637517856    0.13395490500835766    0.14279000519536048    0.17339624972449813    0.2365315810886806    
  0.33443320307880864    0.3916879449171863    0.2692079359034882    0.10493281863868185    0.05679758854098334    
  0.10493282202099623    0.26920791394429855    0.39168797554616913    0.3344331488385859    0.23653160255211655    
  0.17339623293814882    0.14278999471049608    0.13395490500835766    0.14279000020247543    0.15081741617468275    
  0.1785618724284424    0.23607162475818752    0.327548145405564    0.39584004819989443    0.31399290802647856    
  0.16084646796097685    0.10493280469784914    0.16084647226159393    0.3139929099306316    0.3958400547605547    
  0.32754817090373856    0.23607161009707636    0.17856188102782003    0.15081741700292495    0.14279000020247543    
  0.17339624062404035    0.17856189556041355    0.1974211427956875    0.23874708041754125    0.30927888579956186    
  0.38559881893388803    0.3908310855424306    0.31399293772901643    0.2692079152512746    0.3139928635321641    
  0.39083108042674714    0.3855988286829157    0.3092788988426211    0.23874712124829092    0.1974211565223311    
  0.1785618958042041    0.17339624062404035    0.23653157204673095    0.23607162718681818    0.23874707444156096    
  0.25352805405913315    0.28875662106112837    0.34153750326462695    0.3855988631395659    0.39584002623236175    
  0.3916880108238673    0.3958400204695819    0.3855988080429764    0.3415374887582296    0.28875661632508337    
  0.2535280084892891    0.238747059467853    0.23607161893893772    0.23653157204673095    0.33443313263496605    
  0.32754816620207405    0.30927891416594316    0.2887566066689432    0.279646802890885    0.2887566313827922    
  0.3092789058770462    0.32754819335857827    0.3344331560058614    0.32754822119481874    0.3092788916696769    
  0.2887566258125342    0.2796467355473473    0.28875664958856545    0.30927891822705605    0.32754818027965094    
  0.33443313263496605    0.39168799661347026    0.3958400051496606    0.3855988503339173    0.3415375123762025    
  0.28875660800482017    0.2535280225202888    0.23874705765088253    0.23607162691462374    0.2365315562126457    
  0.23607164245461554    0.23874710653485828    0.2535280399804879    0.28875664411876234    0.3415374512858259    
  0.3855988940421249    0.39584008926861564    0.39168799661347026    0.2692079363550397    0.31399283861379773    
  0.39083107136869577    0.3855988794054873    0.309278930931231    0.23874706113462746    0.1974211993736766    
  0.17856188928510283    0.1733962203667852    0.17856187419671402    0.19742115606313773    0.23874709170801886    
  0.3092788532720299    0.3855988351436346    0.39083104083954007    0.31399289428603505    0.2692079363550397    
  0.10493282127874672    0.16084648330355214    0.3139928756735962    0.3958400612422842    0.32754818638943817    
  0.23607161183062877    0.17856190759166435    0.15081740525749318    0.14278999458639519    0.15081740491979828    
  0.17856186365971863    0.23607162751315458    0.32754817067931835    0.3958400380998127    0.31399286973230556    
  0.1608464738651871    0.10493282127874672    0.056797585169584955    0.10493282264499224    0.269207921601949    
  0.3916879740467638    0.3344331453871835    0.23653155435041986    0.1733962672882334    0.14279000468559672    
  0.1339549194451057    0.14278998932056733    0.1733962540285678    0.2365315906814058    0.33443313873878655    
  0.391687979618217    0.2692079502659391    0.10493281202545687    0.056797585169584955    0.10493280711211145    
  0.1608464567210995    0.3139929088125585    0.3958400100493807    0.32754816557517724    0.23607160439893984    
  0.17856188891971536    0.15081739026564586    0.14278997077301506    0.15081742037867735    0.17856186387376008    
  0.23607163675627793    0.3275481875564602    0.3958400314307613    0.31399290309023653    0.1608464539832968    
  0.10493280711211145    0.16084646874701966    0.21788004171094633    0.349089021157666    0.39470708810730815    
  0.31966858750368266    0.23488696148016547    0.18288292819930363    0.15799896924367687    0.15081739168344818    
  0.157998963163988    0.18288294696710297    0.2348869603306583    0.31966858908466644    0.3947070653292806    
  0.3490890528812738    0.2178800264831794    0.16084646874701966    0.3139928690363468    0.3490890004584924    
  0.3992792726081699    0.3754564080397288    0.29987236081872176    0.23560514554366654    0.19907630852761313    
  0.18288291937720266    0.17856188569040027    0.18288290375098348    0.1990763506615477    0.2356051484907182    
  0.29987234317525546    0.3754564599580244    0.3992793422950021    0.3490890095898467    0.3139928690363468    
  0.3958399895104653    0.39470710258974046    0.3754563749575752    0.3287681244160167    0.2789390558812038    
  0.2474664643390602    0.23560517027595126    0.23488695149700653    0.23607164659822036    0.23488692676488326    
  0.23560513548086853    0.24746646867841338    0.2789390072065948    0.3287680784948957    0.3754564439039165    
  0.39470708054649295    0.3958399895104653    0.3275481617988409    0.31966858882659294    0.2998723696338677    
  0.27893903209610144    0.2699471135326904    0.27893899031922736    0.29987237958360696    0.31966859054773683    
  0.327548192803112    0.3196686056647448    0.2998723863761569    0.2789390148093545    0.26994705864938506    
  0.2789390396282237    0.29987235684511887    0.3196686249518319    0.3275481617988409    0.23607163152812696    
  0.23488698135534083    0.23560517003481246    0.24746653171932434    0.27893904203672965    0.32876806334046843    
  0.3754564700295926    0.3947070770277917    0.39584002786757666    0.3947070838131665    0.37545644767943415    
  0.32876811144903995    0.2789390504074155    0.24746645653226657    0.2356051466155275    0.23488697029405198    
  0.23607163152812696    0.17856186864089857    0.18288292604260864    0.19907628859270082    0.23560515716291924    
  0.299872376875545    0.37545643641223364    0.39927927103941957    0.3490890312534819    0.31399288962963484    
  0.3490890192018268    0.39927928574451266    0.3754564857580906    0.29987234264804946    0.23560516292947725    
  0.1990763353280615    0.18288295275742558    0.17856186864089857    0.15081737023431974    0.1579989755274517    
  0.18288289249434858    0.23488699187457596    0.31966862865309026    0.394707088155411    0.349089021810901    
  0.21788004338431477    0.1608464659806596    0.21788004780987463    0.34908898876308203    0.3947070953024125    
  0.3196685477139077    0.2348869355767319    0.18288291309152158    0.15799897595926932    0.15081737023431974    
  0.1427899814805813    0.1508173949422988    0.1785618898168089    0.2360716038957659    0.3275481975453577    
  0.39583997781231517    0.31399287439393825    0.16084646172942216    0.1049328093274362    0.1608464913413903    
  0.3139929014213863    0.39584004491420527    0.32754820132273726    0.23607163834820116    0.17856185810939781    
  0.1508174147192296    0.1427899814805813    0.15081740407399868    0.15799897034231605    0.1828829361401777    
  0.23488693346386916    0.3196686172295295    0.3947070893641364    0.34908901803049774    0.2178800430883709    
  0.16084645888389978    0.2178800322106717    0.3490890141159334    0.39470710656664254    0.3196685739595077    
  0.2348869427513384    0.18288294061276783    0.15799899708342846    0.15081740407399868    0.17856188226069308    
  0.18288294255667026    0.1990762984393061    0.23560513495123545    0.2998723754691995    0.3754564546841652    
  0.39927933879101524    0.34908902398591085    0.31399290118872225    0.3490889825562842    0.3992793209356818    
  0.37545644960075264    0.2998723627302568    0.2356051554939325    0.1990763398754656    0.18288294630245194    
  0.17856188226069308    0.23607162248195826    0.23488694636579568    0.23560514152449583    0.24746648551216388    
  0.27893904525425584    0.3287680517752698    0.3754564265767535    0.39470710696551864    0.3958400522662619    
  0.3947070433790672    0.3754564491476138    0.32876805450401686    0.27893899933604827    0.24746647969747695    
  0.23560513944580969    0.2348869499760293    0.23607162248195826    0.32754816239309625    0.31966859211809034    
  0.29987234861410955    0.27893899794664434    0.2699471101727926    0.27893901900165796    0.29987233957759085    
  0.3196685935059444    0.3275481725915692    0.3196686134373896    0.29987235854498356    0.27893902208362115    
  0.26994709151699364    0.27893906160886317    0.2998723587297633    0.3196685793782686    0.32754816239309625    
  0.39584006295520824    0.39470711008848536    0.37545644822955704    0.32876807708189476    0.2789390204084294    
  0.24746646270788744    0.23560515358732026    0.23488695171339818    0.23607161528282353    0.23488695015574731    
  0.2356051770276071    0.2474665056687632    0.2789390433668216    0.3287680330295728    0.37545644777313886    
  0.3947071460995191    0.39584006295520824    0.31399287341841786    0.34908896961558156    0.3992793233385606    
  0.3754564575380089    0.29987239704955715    0.235605169297471    0.1990763447723724    0.18288294099370084    
  0.178561869036499    0.1828829165915762    0.19907629848089478    0.23560516411758914    0.299872359012776    
  0.3754564387804862    0.3992793021659505    0.3490890144762049    0.31399287341841786    0.16084644589790353    
  0.21788003074076237    0.34908899569485663    0.3947071033696471    0.31966865552870766    0.23488692591439442    
  0.18288294715077916    0.1579989647716652    0.15081739668199182    0.15799896403707261    0.1828829267254135    
  0.2348869790310578    0.31966856652647024    0.39470708133309407    0.3490890328865458    0.21788003602038986    
  0.16084644589790353    0.10493280711211145    0.1608464567210995    0.3139929088125585    0.3958400100493807    
  0.32754816557517724    0.23607160439893984    0.17856188891971536    0.15081739026564586    0.14278997077301506    
  0.15081742037867735    0.17856186387376008    0.23607163675627793    0.3275481875564602    0.3958400314307613    
  0.31399290309023653    0.1608464539832968    0.10493280711211145    0.26920790234333514    0.3139929160066175    
  0.3908310397263858    0.38559884704556086    0.30927890017644577    0.23874705809300129    0.19742116461971032    
  0.1785618850191201    0.17339624523864774    0.17856189081919155    0.19742117257018352    0.23874707787694274    
  0.30927890770205696    0.38559886040592384    0.3908310623510604    0.3139928965018649    0.26920790234333514    
  0.3139928769723018    0.3490889975641484    0.399279312958054    0.3754564186253727    0.29987238409146993    
  0.23560518124805221    0.19907632886444365    0.1828829336829354    0.17856185921728274    0.18288294410431927    
  0.19907635623608488    0.23560515492466158    0.29987236853204496    0.37545642382704125    0.39927928438176075    
  0.3490890424134718    0.3139928769723018    0.390831026145187    0.39927928652119804    0.39328694525823166    
  0.3427444943944703    0.27749496950985375    0.23086616543224786    0.20745265168174548    0.19907632032496067    
  0.19742114344328485    0.19907633235051775    0.20745267521508506    0.23086615298436983    0.2774949297926367    
  0.34274456046762997    0.3932869865084314    0.3992793017954197    0.390831026145187    0.38559882766798137    
  0.3754564143749004    0.34274448968328863    0.2958268075293726    0.2556963989079601    0.23459803020785527    
  0.23086619277127435    0.23560518099340388    0.23874711972117005    0.23560514800317103    0.23086615958329088    
  0.23459800814959422    0.25569634972601646    0.29582678774158727    0.34274448592195583    0.37545643300314663    
  0.38559882766798137    0.30927886488946094    0.29987235576918453    0.2774949531404996    0.2556963700051113    
  0.2468621952967198    0.25569636439324234    0.2774949623852266    0.29987238830930674    0.3092789120316942    
  0.29987238008207856    0.2774949682612434    0.25569639971636704    0.24686214218524904    0.25569640292094725    
  0.2774949429725974    0.2998724056907985    0.30927886488946094    0.23874707314337917    0.23560516501729864    
  0.23086617082143315    0.2345980468007892    0.25569640464136867    0.29582681365490415    0.34274456233407546    
  0.37545645100391517    0.38559883062602646    0.37545646121992343    0.3427445295828538    0.29582679542786516    
  0.2556963971310526    0.234598001504377    0.2308661917688501    0.23560517744283857    0.23874707314337917    
  0.19742114459587662    0.1990763488492304    0.20745262126461111    0.23086615223999693    0.2774949611041931    
  0.342744550226997    0.3932869996464702    0.3992793106228158    0.39083104949215663    0.39927932669315747    
  0.39328698852246696    0.34274453727801113    0.2774949463174664    0.23086615683089262    0.20745264842503247    
  0.19907635141320712    0.19742114459587662    0.1785618663830007    0.18288293193623678    0.19907630995735126    
  0.23560516217458932    0.29987239323625214    0.37545642515339034    0.39927931482837753    0.34908903621390835    
  0.3139928889315863    0.3490890042067423    0.39927929473914153    0.3754564542043373    0.2998723362151041    
  0.2356051715504318    0.1990763436250441    0.18288295902131016    0.1785618663830007    0.17339623822230363    
  0.17856189253351262    0.19742111788103603    0.23874708575378076    0.3092789436335741    0.3855988026022794    
  0.3908310587649442    0.31399288203579023    0.2692079304754167    0.31399290203800373    0.3908310571264733    
  0.38559883373897735    0.30927888879248383    0.23874710169470176    0.19742114817619844    0.17856188426390174    
  0.17339623822230363    0.1785618877603258    0.18288295001749447    0.19907633050709317    0.23560513995591384    
  0.29987236444973114    0.37545646657008513    0.3992793302668492    0.34908904972684973    0.3139928619166115    
  0.34908899529905474    0.3992793016015916    0.37545644564584546    0.2998723803719633    0.23560515792651193    
  0.19907632519226282    0.18288294085204046    0.1785618877603258    0.19742115941482574    0.19907633091951024    
  0.20745263284395832    0.23086614543630835    0.27749494909463407    0.3427445325831216    0.3932869999623572    
  0.3992793385556103    0.39083106165136106    0.3992792976502547    0.39328699626010577    0.3427445126723554    
  0.2774949447296967    0.23086617907615886    0.20745264936789812    0.19907636742054774    0.19742115941482574    
  0.2387470944412405    0.2356051714271588    0.23086612352084013    0.2345980598484431    0.2556963758095582    
  0.2958268061839298    0.3427444900379654    0.3754564542432599    0.3855988533499825    0.37545641109042843    
  0.3427445006200311    0.2958267803886773    0.25569636325568024    0.2345980094404233    0.2308661575771902    
  0.23560516413856736    0.2387470944412405    0.3092788932844556    0.29987235379041444    0.27749499136226563    
  0.25569637946438745    0.24686220316992974    0.2556963844212333    0.27749497472578327    0.29987237474522765    
  0.3092789081338741    0.29987240902571405    0.2774949472397101    0.25569638347535795    0.24686214702840115    
  0.2556963950954449    0.2774949517544141    0.2998723793555862    0.3092788932844556    0.3855988610676451    
  0.3754564594805486    0.3427445057399572    0.2958267964339254    0.25569635838851473    0.23459803468405174    
  0.23086613734532735    0.23560516671461865    0.23874707616882784    0.23560518119356635    0.23086618793686495    
  0.23459804162002698    0.2556964365566514    0.29582673217095484    0.3427445317136598    0.37545648455014435    
  0.3855988610676451    0.390831086865603    0.3992792955142007    0.39328699054461075    0.3427445363413454    
  0.2774949980831319    0.23086614752470808    0.20745268370161252    0.19907635096738127    0.19742116498517318    
  0.19907633039053357    0.20745263825513832    0.23086619299842268    0.27749492993083974    0.34274454167369833    
  0.393287007748784    0.39927931209804035    0.390831086865603    0.31399284880420975    0.3490890285325674    
  0.39927928880334385    0.37545647150351574    0.2998723840310496    0.23560511195132455    0.19907635975464144    
  0.18288294420544837    0.17856188932774839    0.18288293895983526    0.19907631995592334    0.23560517637941025    
  0.2998723705648912    0.37545641721271206    0.3992793227274074    0.34908904945733427    0.31399284880420975    
  0.26920790234333514    0.3139929160066175    0.3908310397263858    0.38559884704556086    0.30927890017644577    
  0.23874705809300129    0.19742116461971032    0.1785618850191201    0.17339624523864774    0.17856189081919155    
  0.19742117257018352    0.23874707787694274    0.30927890770205696    0.38559886040592384    0.3908310623510604    
  0.3139928965018649    0.26920790234333514    0.39168797361374946    0.39584002171277793    0.385598834001046    
  0.3415374754012981    0.2887565937468927    0.25352798475157423    0.23874711684902203    0.2360716308480813    
  0.23653159176104718    0.23607165294470311    0.2387470452576989    0.25352799298296447    0.28875661819372334    
  0.34153748233447456    0.38559883657589    0.3958400020563038    0.39168797361374946    0.39584004090826946    
  0.39470706308154047    0.37545646750475226    0.3287680671792489    0.27893901886390304    0.24746650008651355    
  0.23560517225708455    0.2348869683659559    0.23607161567539492    0.23488695838802925    0.23560515721408543    
  0.24746647862542237    0.27893898932289385    0.3287680441459572    0.375456439686109    0.3947070825192161    
  0.39584004090826946    0.3855988282223461    0.3754564333350712    0.3427445174302029    0.29582675601958747    
  0.25569639682442924    0.23459801575178946    0.2308661807752801    0.2356051720150953    0.23874708603983372    
  0.2356051271148595    0.23086618490476243    0.23459801948395667    0.25569637284683516    0.2958268300970901    
  0.3427445237556099    0.37545643786979604    0.3855988282223461    0.3415374731537803    0.32876810602962064    
  0.295826733611498    0.25877950266437033    0.2337599436303574    0.22674456286770392    0.23459804133468773    
  0.24746647914629816    0.25352801957505045    0.24746645791587998    0.23459803449555083    0.2267445866580779    
  0.23375992163760925    0.2587794655002961    0.2958267713412702    0.32876805588142144    0.3415374731537803    
  0.28875659020077    0.27893901772995616    0.2556963840987318    0.23375994603953598    0.2252007434581939    
  0.23375991608371136    0.25569635935980295    0.27893902535000525    0.2887566356258647    0.2789390172156269    
  0.25569640515059944    0.23375991764997783    0.22520069971128898    0.23375993758203092    0.25569639458451565    
  0.27893908896132663    0.28875659020077    0.25352801209778814    0.24746649489036382    0.234598020488087    
  0.22674462650651886    0.2337599403877762    0.2587794706352625    0.29582681074870776    0.32876804010713734    
  0.3415374552205364    0.3287680643255945    0.29582679028168035    0.2587794977543695    0.2337599587666771    
  0.22674453571856343    0.23459801211933246    0.2474665103401694    0.25352801209778814    0.2387470889743306    
  0.23560515010071825    0.23086613786736912    0.2345980218484667    0.2556963741828738    0.29582678090621195    
  0.34274450601961254    0.3754564617524817    0.3855988237448083    0.37545643894623454    0.34274452863968863    
  0.2958268063477184    0.2556963480030671    0.2345980183664721    0.2308661538557762    0.23560518670502437    
  0.2387470889743306    0.23607157789379932    0.2348869584354766    0.23560512983331705    0.2474665015103869    
  0.27893903838125106    0.32876807524098073    0.37545645092740154    0.39470711340524084    0.395840056755591    
  0.39470708674128213    0.3754564110307673    0.32876808784890205    0.2789389832777039    0.24746647684994863    
  0.2356051542426688    0.2348869716989203    0.23607157789379932    0.23653157801740402    0.2360716343622915    
  0.23874706803747298    0.25352799182089214    0.28875666724082716    0.34153744216320947    0.38559882653651784    
  0.39584003898476133    0.39168797355676693    0.39584001808334024    0.3855988558261068    0.34153748013562235    
  0.2887566358105255    0.2535280087113544    0.23874707030327183    0.2360716484741972    0.23653157801740402    
  0.23607162128401696    0.23488697544543968    0.23560519016990453    0.24746647982335598    0.2789390131714523    
  0.32876807189237056    0.37545646037572084    0.39470714993394673    0.39584001379972567    0.3947070636064245    
  0.3754564587532185    0.32876808839074545    0.278939038419924    0.24746648106621605    0.23560515817887231    
  0.23488696489403876    0.23607162128401696    0.2387470682615192    0.23560514695263107    0.23086614138611822    
  0.23459799897104747    0.25569638049147597    0.2958267599581692    0.34274451711307125    0.3754564609740803    
  0.3855988679149225    0.3754564148947686    0.34274450938764617    0.2958267465296257    0.25569636944708984    
  0.2345980431813053    0.23086618881648352    0.23560518493440052    0.2387470682615192    0.25352800160632105    
  0.24746645679146861    0.23459801604996353    0.22674457880071372    0.2337599624673721    0.25877946509652006    
  0.2958267412041915    0.32876807596717544    0.3415374974194132    0.32876803157756956    0.295826781777211    
  0.2587794733154963    0.23375993775379114    0.22674459493104426    0.2345980000827643    0.24746646727702357    
  0.25352800160632105    0.28875662986460215    0.27893903200997006    0.2556963846508947    0.23375989965579586    
  0.2252007467851717    0.2337599387438267    0.25569637816247026    0.2789390253129235    0.2887566342124805    
  0.27893906640498956    0.2556963848266246    0.23375994896144517    0.22520069722388988    0.23375996377087357    
  0.25569640382425896    0.2789390289361985    0.28875662986460215    0.341537476953542    0.32876807951044595    
  0.29582677467607155    0.2587794739895743    0.23375992819244587    0.22674457716840193    0.23459804329427036    
  0.24746647706218797    0.2535280144386463    0.247466454222398    0.2345980151510516    0.22674460425351314    
  0.23375995683048223    0.2587794501680177    0.29582680360399805    0.3287681197575613    0.341537476953542    
  0.385598885500514    0.37545640427066485    0.3427445022947968    0.2958267807309215    0.255696405075552    
  0.23459802192499274    0.2308661895762635    0.2356051516098604    0.23874704684091275    0.2356051391865614    
  0.2308661254302018    0.23459804999680653    0.2556963639229396    0.29582679278893925    0.3427445230728789    
  0.3754564461766076    0.385598885500514    0.3958400266667356    0.3947071228366382    0.37545641298448684    
  0.32876805858675473    0.27893906948265734    0.24746644540118534    0.23560520440074798    0.23488697498924274    
  0.23607162880991447    0.23488694120742876    0.23560511755835487    0.24746650982483043    0.27893898188707006    
  0.3287680409198751    0.375456457281124    0.3947071225229906    0.3958400266667356    0.39168797361374946    
  0.39584002171277793    0.385598834001046    0.3415374754012981    0.2887565937468927    0.25352798475157423    
  0.23874711684902203    0.2360716308480813    0.23653159176104718    0.23607165294470311    0.2387470452576989    
  0.25352799298296447    0.28875661819372334    0.34153748233447456    0.38559883657589    0.3958400020563038    
  0.39168797361374946    0.3344331463020992    0.3275481805377432    0.309278904370105    0.28875663009849617    
  0.27964674888485674    0.2887566063174246    0.30927893413361685    0.32754819901992505    0.3344331559062408    
  0.3275481880934704    0.30927892011803937    0.2887566187182466    0.27964676151214873    0.2887566194780845    
  0.30927890963414134    0.32754816057010144    0.3344331463020992    0.32754817071360676    0.3196686011111637    
  0.2998723973770262    0.27893905011411996    0.2699470717030185    0.27893907038683385    0.2998723940588666    
  0.3196686185443901    0.3275481752337594    0.3196686406345553    0.29987239197336524    0.27893904624776406    
  0.26994708779064563    0.278939041674617    0.2998723764532675    0.3196686067120998    0.32754817071360676    
  0.30927888406853077    0.2998723861005727    0.27749494905388994    0.2556963851163666    0.2468621553642781    
  0.2556963839060244    0.277494964758453    0.2998723691346854    0.3092788878749951    0.2998723703002216    
  0.2774950061635891    0.25569640553366374    0.246862151467578    0.25569643203920167    0.2774949641897214    
  0.29987239188323195    0.30927888406853077    0.28875660433865424    0.2789390229800766    0.2556963670290304    
  0.2337599775914735    0.2252007417750763    0.23375994722120014    0.25569642552048444    0.2789390505566914    
  0.28875664886371966    0.278939045499913    0.2556963776994358    0.23375992681164495    0.22520067861246906    
  0.23375994780448828    0.2556963925403438    0.2789390550579906    0.28875660433865424    0.2796467557077699    
  0.26994708063666495    0.24686217162839502    0.22520068798353532    0.21686622653932125    0.22520067928275184    
  0.24686213761498302    0.26994711226446483    0.2796467800368916    0.2699471307115931    0.24686215774454823    
  0.22520070783998766    0.21686617476964926    0.22520071170750963    0.2468621649007154    0.2699471245678739    
  0.2796467557077699    0.28875663687172654    0.27893903752272503    0.2556963764873617    0.23375996379141215    
  0.22520069429933967    0.23375993812834156    0.25569642065482406    0.2789390386317408    0.28875663305927174    
  0.2789390430205351    0.2556964113747433    0.23375996839139507    0.22520073269627275    0.23375992451352948    
  0.2556964221640531    0.27893905949286946    0.28875663687172654    0.30927890755540527    0.29987238772202196    
  0.2774949308246882    0.25569638663252325    0.2468621832404312    0.25569642398260817    0.27749498686395435    