#     DFTpy    
  CRYSTAL 
    
  PRIMVEC    
  10.219698371291452    1.901183202758621e-09    -6.173072606896551e-10    
  1.901183202758621e-09    10.219698373592898    -1.7808869986206895e-09    
  -6.173072606896551e-10    -1.7808869986206895e-09    10.219698374233623    
  PRIMCOORD    
  63    1    
  Si    2.554924640957335    2.2386775142583966e-08    2.5549245410767063    
  Si    7.664773826603062    2.3337366743963272e-08    2.5549245407680523    
  Si    2.5549246419079266    5.109849209183224    2.554924540186263    
  Si    7.6647738275536526    5.109849210133814    2.5549245398776086    
  Si    2.5549246406486823    2.1496331643273615e-08    7.664773728193516    
  Si    7.664773826294407    2.2446923244652924e-08    7.664773727884863    
  Si    2.5549246415992735    5.10984920829278    7.664773727303076    
  Si    7.664773827244999    5.109849209243372    7.6647737269944205    
  Si    1.2774622957803474    1.2774622304792231    1.2774622472645274    
  Si    6.387311481426074    1.2774622314298147    1.2774622469558738    
  Si    1.277462296730939    6.387311417275671    1.277462246374084    
  Si    6.387311482376666    6.387311418226262    1.2774622460654306    
  Si    1.277462295471694    1.2774622295887796    6.387311434381339    
  Si    6.38731148111742    1.2774622305393712    6.387311434072686    
  Si    1.2774622964222853    6.387311416385227    6.387311433490895    
  Si    6.387311482068012    6.387311417335819    6.3873114331822425    
  Si    2.554924654877479    2.5549245748891805    3.2319760599153325e-08    
  Si    7.664773840523204    2.5549245758397725    3.2011106968808494e-08    
  Si    2.5549246558280703    7.664773761685629    3.142931709984298e-08    
  Si    7.664773841473794    7.664773762636221    3.112066346949815e-08    
  Si    2.5549246545688256    2.5549245739987367    5.109849219436572    
  Si    7.66477384021455    2.5549245749493283    5.109849219127917    
  Si    2.5549246555194167    7.6647737607951845    5.1098492185461275    
  Si    7.6647738411651405    7.664773761745777    5.109849218237475    
  Si    1.2774622992039948    3.8323869370067953    3.8323869428202175    
  Si    6.387311484849721    3.8323869379573874    3.8323869425115635    
  Si    1.2774623001545866    8.94223612380324    3.8323869419297742    
  Si    6.387311485800312    8.942236124753837    3.8323869416211207    
  Si    1.2774622988953412    3.8323869361163525    8.94223612993703    
  Si    6.387311484541067    3.8323869370669437    8.942236129628375    
  Si    1.2774622998459328    8.9422361229128    8.942236129046584    
  Si    6.387311485491659    8.94223612386339    8.942236128737932    
  Si    5.109849140178849    2.5685229448831153e-08    4.8999188678768854e-08    
  Si    10.219698326775166    5.109849213432271    4.780009154911369e-08    
  Si    5.109849141129439    5.109849212481677    4.810874517945852e-08    
  Si    10.219698325515921    2.5745377550900125e-08    5.109849235807346    
  Si    5.109849139870195    2.4794785949520813e-08    5.109849236116    
  Si    10.219698326466514    5.1098492125418264    5.1098492349169025    
  Si    5.109849140820786    5.109849211591235    5.109849235225556    
  Si    3.832386892246022    1.2774622651481238    3.8323869369358468    
  Si    8.942236077891746    1.2774622660987152    3.832386936627194    
  Si    3.8323868931966136    6.387311451944572    3.8323869360454035    
  Si    8.942236078842338    6.3873114528951636    3.83238693573675    
  Si    3.8323868919373676    1.2774622642576803    8.942236124052659    
  Si    8.942236077583093    1.2774622652082719    8.942236123744006    
  Si    3.8323868928879596    6.387311451054129    8.942236123162214    
  Si    8.942236078533682    6.38731145200472    8.942236122853561    
  Si    10.21969830841134    2.5549245661981637    2.5549245621041905    
  Si    5.109849122765615    2.554924565247572    2.5549245624128436    
  Si    10.219698309361931    7.664773752994612    2.554924561213747    
  Si    5.109849123716208    7.664773752044022    2.5549245615224003    
  Si    10.219698308102686    2.5549245653077204    7.664773749221002    
  Si    5.1098491224569615    2.5549245643571283    7.664773749529654    
  Si    10.219698309053278    7.664773752104169    7.664773748330558    
  Si    5.109849123407553    7.664773751153577    7.664773748639212    
  Si    3.8323868841448014    3.8323869416280743    1.2774622453067461    
  Si    8.942236069790525    3.8323869425786654    1.2774622449980926    
  Si    3.832386885095393    8.94223612842452    1.2774622444163026    
  Si    8.942236070741119    8.942236129375114    1.277462244107649    
  Si    3.832386883836147    3.83238694073763    6.387311432423557    
  Si    8.942236069481872    3.8323869416882212    6.387311432114904    
  Si    3.832386884786739    8.942236127534079    6.387311431533113    
  Si    8.942236070432465    8.942236128484671    6.38731143122446    
  BEGIN_BLOCK_DATAGRID_3D    
  3d_datagrid_density    
  BEGIN_DATAGRID_3D#0    
  45    45    45    
  0.0    0.0    0.0    
  10.219698371291452    1.901183202758621e-09    -6.173072606896551e-10    
  1.901183202758621e-09    10.219698373592898    -1.7808869986206895e-09    
  -6.173072606896551e-10    -1.7808869986206895e-09    10.219698374233623    
  0.05289651738534961    0.05460648528504125    0.059402823572190976    0.06618105659696952    0.07306726190076274    
  0.0778851477943578    0.07892152642951182    0.07594170228621051    0.07034393980615981    0.0642256111228596    
  0.05966833508403404    0.058097989725935106    0.060679591341378174    0.06909514856661841    0.08631544395634043    
  0.11803209087555529    0.17337942097715733    0.26259456348907084    0.3747342219680866    0.4098833516402491    
  0.2588497880559741    0.09760183549684431    0.053163955809679087    0.09760188105405306    0.2588498304760986    
  0.4098834622182918    0.3747342394698221    0.26259443433506496    0.17337941143270733    0.11803210697283692    
  0.08631542334267162    0.06909513001559557    0.060679564077784805    0.05809795909275192    0.059668316105892856    
  0.06422560986630164    0.0703439554633724    0.07594174235849079    0.07892148649534862    0.07788519578686315    
  0.07306723670498869    0.06618109505516753    0.05940281603054364    0.05460647224646952    0.05289651738534961    
  0.05460647460699172    0.05647755298008417    0.061695397811328406    0.06910186219610097    0.07664535615713142    
  0.08194147331052844    0.0831291909953889    0.07995180822885235    0.07389698405776104    0.06726963439190686    
  0.06229460397415229    0.06053553559406734    0.06319562670355461    0.07187553946970837    0.08933783573254502    
  0.12096804422274975    0.17523489766579825    0.26165426640480205    0.37240540327153854    0.4251851607860868    
  0.3099823513149142    0.1510869175357804    0.09766484707983161    0.15108697895039125    0.3099823314701804    
  0.42518518741370587    0.37240533353699057    0.2616541672488985    0.1752348616499459    0.12096807646514307    
  0.08933787756039799    0.07187551887178899    0.06319561343998963    0.060535535100825315    0.06229460669104194    
  0.06726958772684523    0.07389697845458143    0.07995183710199466    0.08312918994321505    0.08194147701196436    
  0.07664535330032025    0.06910185832823096    0.06169538248791588    0.05647756430181307    0.05460647460699172    
  0.0594027934635229    0.06169540149993843    0.06812583727277433    0.07731958397366805    0.08684175307569153    
  0.09368382997342693    0.09560389817133648    0.0921177119941839    0.08495966265947587    0.07702575648834632    
  0.07098073199907406    0.06871021367679045    0.07155910383996913    0.08083874174319437    0.09873779925968515    
  0.12965960840144977    0.1800983314464364    0.2571413660318304    0.3579906334041224    0.4375226368692115    
  0.4128790441995647    0.3101916130827312    0.2591771957086605    0.31019157025718436    0.4128791203858803    
  0.43752272296191735    0.35799052847659946    0.2571412478899419    0.18009833700104358    0.129659560847895    
  0.09873783603170046    0.08083869644540113    0.07155911284311302    0.06871022994503202    0.0709806899959512    
  0.07702579118198019    0.08495965090054881    0.09211768213353937    0.09560383961323768    0.09368380881406145    
  0.08684174421497982    0.07731960653752452    0.06812583987604408    0.061695392328109944    0.0594027934635229    
  0.0661810709783845    0.06910182197109747    0.07731957663234955    0.08933990073844786    0.10220955820666384    
  0.11205439721091395    0.11593002179380656    0.11289803864722756    0.10487971631352726    0.0955888965837975    
  0.0883015928344996    0.08540308199060677    0.08838060568901362    0.09810087622251672    0.11581003028342957    
  0.14423585557884488    0.18709287380527725    0.24787144895100227    0.3250941896278028    0.40043300345049615    
  0.4374913714199219    0.4254522638656685    0.41037310925650355    0.42545229874964324    0.4374913257888203    
  0.4004331701234299    0.3250942661167945    0.247871303896169    0.18709292919719617    0.14423586366960872    
  0.1158100552148089    0.09810085989267578    0.08838059112156756    0.08540310629891171    0.08830159687082197    
  0.09558887141943476    0.104879785771529    0.11289804524202059    0.1159299680115252    0.1120544696288683    
  0.10220955388533452    0.08933991882058084    0.0773195652601047    0.06910184834929252    0.0661810709783845    
  0.07306727980235006    0.07664534423218418    0.08684174558459469    0.10220958702225309    0.11966580772389346    
  0.13451393775577009    0.1428947508709413    0.14304527742094494    0.13653890864074447    0.12744157460182332    
  0.11967347436546531    0.11635042964692834    0.11916805732992028    0.12830398108421334    0.1436652404927498    
  0.1658418848369878    0.19600099599114112    0.23487306827850754    0.2802172529743021    0.32461497555164326    
  0.3574596758709834    0.372165613326928    0.3747255065951566    0.3721655838283951    0.3574595402992074    
  0.3246150202132617    0.2802171957456963    0.23487296051889966    0.19600100598813053    0.16584189867382867    
  0.1436653405917684    0.12830393085952718    0.11916801237002035    0.11635036186956346    0.11967344753277169    
  0.1274415992270958    0.13653896480243174    0.14304527174295675    0.14289469063574628    0.1345140078340771    
  0.11966577243887597    0.10220957346382592    0.08684171153378373    0.07664534192461998    0.07306727980235006    
  0.07788518217071976    0.08194147636917468    0.0936837847547751    0.11205446470758018    0.13451394952305074    
  0.15653847322633851    0.1736621196017476    0.1827049831089051    0.18344847017288782    0.17911070993798248    
  0.17368610909854523    0.17092492793753683    0.172729083089983    0.17838318731620956    0.18646414566869063    
  0.19600222684377439    0.20697459520946862    0.22006208966492893    0.2342323383038    0.24688335531737335    
  0.25618825280245333    0.2609934124234268    0.26212521887075446    0.26099341717137436    0.2561882445746357    
  0.2468834011835494    0.23423230151174987    0.22006197786400628    0.20697461690770405    0.1960021366409652    
  0.18646414599187514    0.17838311957760639    0.17272900712714406    0.17092498408024565    0.1736861403467378    
  0.17911064823846748    0.1834485254560373    0.1827049328070024    0.17366208905722527    0.1565384832976669    
  0.1345139483421629    0.11205443491265737    0.09368379491677599    0.08194147877746481    0.07788518217071976    
  0.07892151202445177    0.0831291560230406    0.09560381125574481    0.11593002548660226    0.14289467232597913    
  0.17366204211404368    0.20436159942659687    0.2303684950265956    0.24801562050102874    0.25711960233071945    
  0.25970113349836754    0.25945693625805544    0.2588115579199419    0.2556683116086295    0.24778094744968102    
  0.23538392035020086    0.2205018502338788    0.20647293958162485    0.19504376602081597    0.18600947018989156    
  0.17918245288787069    0.17462844755582355    0.17293137422742225    0.17462846265118503    0.17918245744084937    
  0.1860095114109313    0.19504381587891634    0.20647285114773764    0.22050188205890256    0.23538393574163569    
  0.2477809304595193    0.2556682793607663    0.25881149288332067    0.259456989659371    0.2597011079382072    
  0.2571196314897176    0.24801567203504432    0.23036844585298513    0.20436162985023265    0.17366211421618524    
  0.14289467004158826    0.1159300245860504    0.0956038422132028    0.08312918222806809    0.07892151202445177    
  0.0759417243795985    0.07995183540363375    0.09211773267150611    0.11289806079969249    0.14304527347989465    
  0.18270494952044486    0.23036846075780926    0.2815190514257479    0.32727266499758034    0.3579350385455883    
  0.3698063951581852    0.37124065162761893    0.36991752518153853    0.35751057527793734    0.3260648831137515    
  0.2815538698258859    0.23522354128524212    0.19543391034937072    0.16505553135920703    0.14352788949046463    
  0.129228974605717    0.12084845090447754    0.11804279018147575    0.12084843527291408    0.1292289054445286    
  0.14352790524896689    0.1650554895116213    0.19543383070666462    0.23522354279975374    0.2815538011688868    
  0.326064845602566    0.35751052731501703    0.3699174748028872    0.3712406941121003    0.3698062282184241    
  0.35793502605853733    0.32727272514083877    0.2815190967591084    0.2303684767636671    0.1827050316865654    
  0.14304525090400966    0.112898089944868    0.09211770629323819    0.07995178406807478    0.0759417243795985    
  0.07034390287017257    0.07389701445702168    0.0849596517985553    0.10487980571496666    0.13653894612670817    
  0.18344845781703753    0.24801565661867303    0.32727257563236317    0.40180986008818914    0.43621410742660394    
  0.422160897567601    0.40698255863226185    0.42390922463304676    0.4383611839072383    0.4024214288107199    
  0.32653302048632404    0.24806089201717282    0.1864463581086432    0.14358834188439248    0.115890799151808    
  0.09909782997098075    0.08995173755976767    0.0870249173022599    0.08995171933042918    0.09909783456971145    
  0.11589079269098077    0.1435882896994394    0.18644624575943594    0.24806089447334492    0.32653298343062287    
  0.4024214949813805    0.4383611145416818    0.42390921835412987    0.40698259325625435    0.42216092690294993    
  0.4362142158968989    0.40180993017447564    0.3272726589792933    0.24801564665132736    0.18344849682478545    
  0.13653893148449978    0.10487977198941019    0.08495963650015935    0.07389694257132774    0.07034390287017257    
  0.06422555072074855    0.0672696102305385    0.07702577493600532    0.09558888555491728    0.12744156970865392    
  0.17911065707263213    0.25711964442539237    0.3579349174521528    0.43621425637681804    0.41026575553695327    
  0.30762334762637844    0.2574735129391958    0.30985198759517113    0.41429405980082706    0.43977255992001185    
  0.35932244107157374    0.2570741262485208    0.17935984661508542    0.1291138192082051    0.09897069344412068    
  0.08189625751470865    0.07309784312167375    0.07037858777301229    0.07309785776398303    0.08189629122465313    
  0.09897064978089136    0.1291137686756128    0.17935978443218256    0.25707407749421307    0.3593224723891967    
  0.43977254672352667    0.41429413023125355    0.30985212692421044    0.25747354247070053    0.307623359724622    
  0.41026583700268515    0.4362141886546621    0.3579349926726441    0.2571195931231972    0.17911064721814596    
  0.12744155767814017    0.09558887753629382    0.07702577160178721    0.06726960539862754    0.06422555072074855    
  0.05966829551638157    0.062294625432188735    0.07098068797530828    0.08830155040365578    0.1196734448977988    
  0.17368606537345452    0.259701128409466    0.3698061421370133    0.42216083261200127    0.3076234789487793    
  0.15000758979707068    0.09728622595558269    0.15129092390525897    0.3113284364695345    0.4272247708371148    
  0.37334185405817905    0.26125997691451586    0.17439757046985843    0.12048739629084809    0.08968065581560207    
  0.07298331292055822    0.06473810374251436    0.0622671041366147    0.06473809182340878    0.0729833222340861    
  0.08968068442640331    0.12048741516979777    0.17439750213511554    0.26125990607983224    0.373341837688645    
  0.42722463522206067    0.31132840614050705    0.15129096666313308    0.09728624475029228    0.15000747799462147    
  0.3076233690399876    0.42216083894744716    0.36980614224714126    0.259701127298641    0.1736861324771441    
  0.11967345406679168    0.08830156107003785    0.07098071230721209    0.06229461800887665    0.05966829551638157    
  0.058097978650479304    0.0605355639039043    0.06871024136432799    0.08540308368473193    0.1163503865081836    
  0.17092491459396228    0.2594569673977942    0.3712405793529928    0.4069825615241388    0.25747359077831555    
  0.0972862628409544    0.05315508544619493    0.09790538833858599    0.259983085143306    0.41140597490532593    
  0.3750972439478745    0.2618736701548848    0.1724425426407097    0.11759164641097998    0.0867347141050625    
  0.07024216417685912    0.06222931366909639    0.05985447035693482    0.06222933622260879    0.07024218247403408    
  0.08673470779336802    0.11759165329691706    0.17244249717107413    0.26187361743106424    0.3750972480778362    
  0.41140592135412407    0.2599831381857112    0.09790543878398868    0.05315505842856184    0.0972862146752347    
  0.2574734926919563    0.4069826132896809    0.37124063967526966    0.2594569237784556    0.17092497203551213    
  0.1163503606958832    0.08540315945513194    0.06871023922046518    0.060535514186659374    0.058097978650479304    
  0.060679569783714714    0.06319561806723471    0.0715590928678042    0.08838059783862794    0.11916800443951739    
  0.17272903771360598    0.2588114819154608    0.3699173178767144    0.42390910288761824    0.30985214854344517    
  0.15129099574507165    0.09790541989613433    0.1516067748377406    0.31104886075968613    0.4261252040883662    
  0.37224098893390895    0.2606824036290246    0.17423531009222892    0.12055977922853685    0.08980326041051463    
  0.07304718019524002    0.06474253170563433    0.06224869386399547    0.06474254843324195    0.07304718763017186    
  0.0898033074841044    0.12055977847580171    0.17423527106881567    0.2606823484905969    0.372241025880386    
  0.4261253627525197    0.3110488584856682    0.15160682246590643    0.09790543779491682    0.15129092721423526    
  0.3098520094717646    0.4239092287464515    0.3699174110309638    0.25881161250524054    0.17272908656966654    
  0.11916803057157636    0.0883805464991736    0.07155911396333309    0.06319559311732188    0.060679569783714714    
  0.06909508884674216    0.07187554703954309    0.08083874654897595    0.09810087013988525    0.12830390781764783    
  0.17838313773606754    0.25566835164002244    0.3575105118254038    0.4383611547407323    0.41429411634735547    
  0.3113284483703386    0.25998307410712873    0.3110488369077255    0.4137652402607785    0.43793404837257494    
  0.35750580446949676    0.256084162656805    0.17913101685401422    0.12928828907452125    0.09921621174578789    
  0.08202489724818078    0.07309423391817522    0.07032514258038816    0.07309424312492183    0.08202491035889922    
  0.09921614606146646    0.12928825042075437    0.1791309758858051    0.2560840852770487    0.3575057608658566    
  0.4379339941695092    0.41376526725990265    0.3110489657037622    0.25998311577532635    0.3113284529308908    
  0.41429404030645944    0.43836105734533887    0.35751045739777765    0.25566831501183374    0.17838314492765145    
  0.12830387784403302    0.09810091224659817    0.08083871255480496    0.07187549749249077    0.06909508884674216    
  0.08631542167340625    0.08933785892341393    0.09873777944138144    0.11581002251752687    0.14366524921117035    
  0.18646411541214933    0.24778094332756648    0.32606469797983806    0.4024214124073819    0.4397724504251468    
  0.42722482602760803    0.4114059078722479    0.42612513290593745    0.437934011635009    0.4004899598935554    
  0.32457306636389766    0.24696394298638727    0.18628108676162242    0.1439017568881276    0.11626637321977283    
  0.09928625801662065    0.08991765956933807    0.086900614574533    0.08991769549448342    0.09928627111559284    
  0.1162664296930129    0.14390177625657286    0.18628104140479748    0.24696395212946018    0.3245730070159123    
  0.4004897661664601    0.4379338717089751    0.4261252789684399    0.4114060513538902    0.42722473648266507    
  0.43977248840993644    0.4024215382070041    0.3260648026212403    0.24778100511297488    0.18646416700261023    
  0.1436652373888646    0.11581006224598067    0.09873776973953927    0.08933783208196265    0.08631542167340625    
  0.11803207395051168    0.12096805969330125    0.12965953172596467    0.14423590367457576    0.16584188833951252    
  0.19600217192473993    0.23538391978073717    0.28155380072289077    0.32653304628683605    0.35932253195607644    
  0.3733418976010029    0.3750971253879242    0.37224105859170714    0.3575058321114656    0.32457321877689227    
  0.27993388005170566    0.23431935241350893    0.19541258220610228    0.16553592553161744    0.14404061063754198    
  0.12947077243669877    0.12074849965882686    0.11779736901143235    0.12074845775875989    0.12947075558597954    
  0.14404062263843803    0.1655358960816779    0.19541255090793147    0.23431939510194852    0.2799338941109092    
  0.32457314512401486    0.3575057882657458    0.3722410491989317    0.37509722582151167    0.3733417308783415    
  0.3593224244542201    0.32653315652535453    0.28155383261268224    0.23538393779478653    0.19600224632179628    
  0.16584185068875584    0.14423592197374888    0.12965952159766445    0.12096805401891167    0.11803207395051168    
  0.17337942495006245    0.17523490368987    0.18009830128068527    0.1870929350099685    0.19600097995641136    
  0.20697456744241965    0.2205018562958833    0.23522351367900673    0.24806084289148564    0.257074136096518    
  0.2612600445717177    0.2618736819697003    0.26068231387160146    0.25608414725786927    0.24696390482506558    
  0.23431937759880558    0.2198997821247847    0.20659596028418747    0.1956765604599137    0.1866596885883307    
  0.17946970791275912    0.17443441332609064    0.17251140047258767    0.1744343712206028    0.17946965874248103    
  0.18665970252942868    0.19567658547079433    0.20659598337420176    0.21989979293968756    0.23431934007015287    
  0.24696387753727206    0.2560841740155258    0.2606824109947752    0.2618736311199007    0.2612599939883459    
  0.2570741399370891    0.24806088544818652    0.235223423613602    0.2205018026932942    0.2069746181179801    
  0.19600098907629304    0.18709293188189616    0.18009829285062412    0.17523485485619528    0.17337942495006245    
  0.26259448093440213    0.26165420617323265    0.2571413120055265    0.24787139418561774    0.23487297003696309    
  0.22006199167867152    0.2064728784770434    0.19543390722172319    0.18644627539001837    0.17935990048361353    
  0.17439750134005041    0.1724424860879895    0.17423522803610533    0.1791310749166104    0.18628105593309974    
  0.19541259457437524    0.2065959413595744    0.2202373877707401    0.23493517676160894    0.2476429332704641    
  0.25653216877000196    0.26072212489545493    0.2615376706056505    0.26072221641199317    0.25653222661340774    
  0.24764298447517363    0.23493520461510073    0.22023736085174883    0.2065959550181986    0.19541252639699555    
  0.18628103084378184    0.1791310438094588    0.17423531062006864    0.17244254975447612    0.17439756349840294    
  0.17935985069598107    0.18644630641572416    0.1954338961848829    0.20647283535275293    0.22006207901861344    
  0.2348729909955827    0.24787136951814118    0.25714125218077316    0.26165419592510136    0.26259448093440213    
  0.3747342521921904    0.372405331252265    0.35799058606536693    0.32509420101924785    0.28021723271407756    
  0.2342322982584932    0.1950438303840623    0.16505550048454082    0.14358826062072352    0.1291138131938274    
  0.12048742645713137    0.1175916686885247    0.12055974785938546    0.1292882949543399    0.14390180061226793    
  0.165535886867778    0.19567659578892851    0.23493522426465668    0.2808290563348365    0.32541979949880734    
  0.35789971605432525    0.3719456823561485    0.3741284369818623    0.3719456482071379    0.3578997227351317    
  0.32541982729626373    0.28082901526946297    0.23493515372549845    0.19567659767725298    0.1655359250927991    
  0.1439017877120162    0.12928828507866233    0.12055975871491584    0.11759166541209963    0.12048737548842141    
  0.12911382675428687    0.14358832708230462    0.1650555298756504    0.19504379093937213    0.2342323780662421    
  0.2802172520591208    0.3250942604643639    0.3579905395505744    0.3724052659603935    0.3747342521921904    
  0.4098833360885963    0.4251852003140528    0.4375226345396596    0.4004330746318006    0.3246150141306355    
  0.24688334971608747    0.1860095324075432    0.14352784473909405    0.11589079998535134    0.09897071477230557    
  0.08968076206789052    0.08673469630814384    0.08980333114050658    0.09921622237471125    0.11626639531612779    
  0.14404056094497003    0.18665972907477893    0.24764295181470158    0.3254198780549376    0.4011663294794193    
  0.4380564690203153    0.42548899891435754    0.4100910527620578    0.42548895827740646    0.438056459429173    
  0.4011663606971954    0.3254197537522751    0.24764286140626668    0.1866596945329166    0.14404060408894162    
  0.11626641478123961    0.09921621384494472    0.08980330761523889    0.08673474032791899    0.08968067149063415    
  0.09897069645541974    0.11589080208780368    0.14352782410643306    0.18600950610755349    0.2468834079489228    
  0.3246149964143264    0.40043312799711095    0.4375226037422662    0.4251851045119141    0.4098833360885963    
  0.25884974876330563    0.30998237215537566    0.41287908877494295    0.4374913450180084    0.357459486125857    
  0.25618818270727106    0.17918245775481895    0.12922893164232407    0.09909779728077975    0.08189625034195841    
  0.07298328721264202    0.07024213275507675    0.07304720762829472    0.08202491345454763    0.09928626389247941    
  0.12947075508669495    0.17946972834631    0.25653236890037834    0.35789967601247114    0.43805662858577793    
  0.4134674817310968    0.31045491507272915    0.25924885760350747    0.3104548955263448    0.4134675300749215    
  0.43805642911337495    0.3578996716377626    0.2565321653125964    0.1794696920962382    0.12947078429209818    
  0.0992862513350663    0.08202489678082545    0.07304720228787927    0.07024214360144476    0.07298330958931819    
  0.08189629457767372    0.09909779925942756    0.12922891889904634    0.1791824540654153    0.2561882381353514    
  0.35745961374282237    0.43749134589560906    0.41287908428624787    0.3099823664924381    0.25884974876330563    
  0.09760183572118421    0.15108701215910644    0.31019165036087665    0.4254524059312875    0.3721655443178813    
  0.260993335107203    0.1746284462493129    0.12084839655262077    0.08995178667031495    0.07309787483822895    
  0.06473811562663813    0.062229304119914376    0.06474254480563577    0.07309425104376964    0.08991766839255502    
  0.12074850322899043    0.17443440572238778    0.2607221923342272    0.37194561933800036    0.425488937457114    
  0.31045491547427034    0.1513177348224914    0.09778372825696881    0.1513177955587932    0.31045494830972775    
  0.42548903393389115    0.3719456076440152    0.26072212450048105    0.17443442031587097    0.12074847552684365    
  0.08991766544743772    0.07309425892965968    0.06474256500308238    0.06222930671257326    0.06473809389367441    
  0.07309786807327087    0.08995176007294325    0.12084836409717901    0.17462846957293357    0.2609934362374462    
  0.37216561203920173    0.4254523465413605    0.310191573695346    0.15108693449651994    0.09760183572118421    
  0.053163984755299994    0.09766487498234659    0.25917731648201764    0.41037320262398047    0.3747256748312766    
  0.26212515379989204    0.1729314224519787    0.11804281207932305    0.08702496322606935    0.07037866177318905    
  0.06226711189988177    0.05985444241385303    0.0622487122539309    0.07032518819432029    0.08690062640090247    
  0.11779739663485891    0.1725115003296238    0.2615377140140751    0.3741284234842949    0.41009114864536034    
  0.25924892495617097    0.09778368302054727    0.05325454517628091    0.09778372392782078    0.2592489426349189    
  0.4100911588041062    0.3741284660360896    0.26153759738931665    0.17251143593015172    0.11779738196592512    
  0.08690065653092001    0.07032516153651477    0.06224870837847466    0.059854442835931165    0.062267121864333544    
  0.07037866988289347    0.0870249787707499    0.11804279850480298    0.1729314274205102    0.26212528447238037    
  0.37472566356568054    0.41037321096151785    0.2591772003021052    0.09766482972037696    0.053163984755299994    
  0.09760184640938062    0.15108695131482527    0.3101916210017799    0.4254523596951016    0.3721655564999957    
  0.2609934018570047    0.1746284568982031    0.1208484190537486    0.08995175664701675    0.07309788053028894    
  0.06473809170236636    0.06222931557370807    0.0647425784215718    0.07309426617006505    0.08991764090005147    
  0.120748479204556    0.17443441656368522    0.26072221973544735    0.37194565910616034    0.4254890073816449    
  0.3104549059518432    0.1513176692132613    0.09778368496728913    0.1513177914930009    0.31045492494191423    