#     DFTpy    
  CRYSTAL 
    
  PRIMVEC    
  3.7542905738552537    1.5706560537746897e-05    -3.9379241379310343e-13    
  -1.8771316846464043    3.251318957446899    -7.704741379310344e-12    
  -6.47543448275862e-13    -1.5002277931034482e-11    6.172637038205444    
  PRIMCOORD    
  4    1    
  Si    9.345872591046417e-06    2.167551053587759    3.4713295333849454    
  Si    1.877149543331859    1.0837836103930831    0.38501096870203194    
  Si    9.34587400150955e-06    2.1675510535868647    5.787626023920197    
  Si    1.8771495433379513    1.0837836104171625    2.7013075503875164    
  BEGIN_BLOCK_DATAGRID_3D    
  3d_datagrid_density    
  BEGIN_DATAGRID_3D#0    
  17    17    27    
  0.0    0.0    0.0    
  3.7542905738552537    1.5706560537746897e-05    -3.9379241379310343e-13    
  -1.8771316846464043    3.251318957446899    -7.704741379310344e-12    
  -6.47543448275862e-13    -1.5002277931034482e-11    6.172637038205444    
  0.058190005218761554    0.0630753877219246    0.07986268600009926    0.11462722207197104    0.17658871449017197    
  0.2734688071750586    0.39719058028721094    0.5096624948123889    0.5561616508787288    0.5096624435903996    
  0.3971906319816385    0.2734688161678527    0.1765887345451552    0.11462721215659398    0.07986268623911263    
  0.06307538487166213    0.058190005218761554    0.06307536321358823    0.0630734552487831    0.07392894463745957    
  0.0998451331689497    0.14888172432732905    0.2303101194733821    0.34421765987852476    0.4655553663005866    
  0.5457554943408509    0.5457309636999088    0.4654906292963667    0.3442624970505346    0.23033955122040314    
  0.14885668769006216    0.09984880969481627    0.07392935554004272    0.06307536321358823    0.07986268669273267    
  0.0739289268806727    0.07986549362078313    0.0998497347897771    0.14038469381206367    0.21057378710602329    
  0.31251208982962253    0.4230500717206154    0.499860808513971    0.5243899787026381    0.49994467595778475    
  0.4230544651588841    0.31244003653211816    0.21058558056291646    0.14040399904171091    0.09984879888195602    
  0.07986268669273267    0.11462717049099576    0.09984512207417891    0.09984970501596807    0.11461632835574855    
  0.1488856693045944    0.21057367887917064    0.3014612179549941    0.3926938781122572    0.42874210201334884    
  0.4156686757031517    0.41563452677211177    0.42872039808086904    0.39275630730108296    0.30146566088973403    
  0.2105855657337747    0.14885666944483766    0.11462717049099576    0.17658873676721895    0.14888172033880828    
  0.14038471251602286    0.14888566407005485    0.17656525035018153    0.23034145783714924    0.31246938273452324    
  0.3927395033612348    0.3936048161721992    0.3153110212189217    0.27141831392081495    0.31530686280678    
  0.393592400997535    0.39275640229015546    0.3124401644561141    0.23033955667939798    0.17658873676721895    
  0.2734687739972353    0.23031008966111233    0.21057376782665466    0.21057368232160573    0.23034144767218853    
  0.27347812608174815    0.34422333663573396    0.4230782513872347    0.42875300893949586    0.3152826126058231    
  0.2108813349749154    0.2109061885174215    0.31530682685336564    0.4287204919307261    0.4230544516673142    
  0.34426249270503473    0.2734687739972353    0.3971905815943629    0.34421770843376015    0.3125120809987804    
  0.3014612618506423    0.312469273302133    0.34422324145373845    0.39723430275317506    0.4655027428948732    
  0.4999307700689803    0.4155975098904467    0.27148868794379827    0.21088139110384505    0.27141832379954123    
  0.4156345060879891    0.4999446909578875    0.46549067884887424    0.3971905815943629    0.5096624929526733    
  0.465555319795051    0.4230499773642717    0.39269382735257036    0.3927393990511084    0.4230782528607878    
  0.4655027321845902    0.5097011750933109    0.5457650080073809    0.524432610174802    0.41559740379508203    
  0.31528259065069936    0.31531101091091945    0.4156685706761733    0.524389866896696    0.5457308637819432    
  0.5096624929526733    0.5561616088535865    0.5457555259907829    0.49986097476479757    0.4287420867608473    
  0.39360483127503854    0.4287530318361681    0.4999307251889314    0.5457651445058718    0.5561483658907208    
  0.5457650131672726    0.49993073452491193    0.42875306182918105    0.3936047714233671    0.4287420904364331    
  0.499860888567193    0.5457555375581321    0.5561616088535865    0.5096624677418281    0.5457309132465745    
  0.5243899067635495    0.4156686535497733    0.3153110612540568    0.3152826522023348    0.4155974757359885    
  0.5244325504419064    0.5457651176785747    0.5097011238660363    0.46550267766922016    0.42307831802231183    
  0.39273932609517137    0.3926938306463515    0.42305002599865377    0.4655554601071239    0.5096624677418281    
  0.3971905559591646    0.46549066296241287    0.4999446607155592    0.4156346028853803    0.27141837784994305    
  0.2108814107778372    0.27148865797602006    0.4155974645011217    0.49993079273654323    0.4655028142386962    
  0.3972343101906245    0.3442233073629094    0.3124692756619757    0.30146130554829925    0.3125121246909599    
  0.34421765456339015    0.3971905559591646    0.27346872634033775    0.3442624745133295    0.4230544625615415    
  0.4287204544937121    0.31530681832502305    0.21090620107615912    0.2108813748425802    0.31528269776800416    
  0.4287529787499718    0.42307832145160834    0.34422330196880707    0.27347814522220376    0.2303414220856569    
  0.21057362743576422    0.21057377881798692    0.2303101582968538    0.27346872634033775    0.17658873483656087    
  0.23033956964078794    0.31244009094191605    0.39275626020491305    0.3935922946738944    0.31530685905091405    
  0.27141841192152705    0.31531099422499437    0.3936047834229492    0.39273950163802135    0.31246935202660386    
  0.23034147013218445    0.17656523722892536    0.1488856600834381    0.14038470041365428    0.14888174008609256    
  0.17658873483656087    0.11462716655807564    0.1488566958550596    0.2105855758301024    0.3014656742106166    
  0.39275628275954394    0.42872047268239    0.41563452534708456    0.415668603571486    0.4287421228181864    
  0.3926938026122542    0.3014612422331068    0.21057368228061768    0.1488856857737822    0.11461633497620427    
  0.09984969888567391    0.0998451371763386    0.11462716655807564    0.07986269183216846    0.0998487643417535    
  0.14040397915746666    0.21058554050282305    0.31244012993267795    0.4230544349196283    0.49994467945722787    
  0.5243899910246386    0.49986086843889843    0.4230499060218278    0.3125121396928373    0.2105737509409545    
  0.14038467562464585    0.09984972411742526    0.07986550990549733    0.07392893638405007    0.07986269183216846    
  0.06307536520980586    0.07392934668303068    0.09984882249283794    0.14885670691086889    0.23033951297261496    
  0.344262469923975    0.46549064275174784    0.5457309523465965    0.5457554605713381    0.46555536972044037    
  0.34421763381178483    0.23031009292687796    0.1488817164278606    0.09984513620960762    0.07392892283921212    
  0.06307347711122999    0.06307536520980586    0.058190005218761554    0.0630753877219246    0.07986268600009926    
  0.11462722207197104    0.17658871449017197    0.2734688071750586    0.39719058028721094    0.5096624948123889    
  0.5561616508787288    0.5096624435903996    0.3971906319816385    0.2734688161678527    0.1765887345451552    
  0.11462721215659398    0.07986268623911263    0.06307538487166213    0.058190005218761554    0.05749441775262009    
  0.06209964158333073    0.07792004858835355    0.11059822440736994    0.1684656973237019    0.2580087332088041    
  0.37138100244465705    0.47380606880378434    0.5159068461056823    0.47378327089022515    0.3714391326975592    
  0.25801650754340416    0.16843001240161296    0.11060441375253743    0.07792294949135434    0.06209958527091769    
  0.05749441775262009    0.06209957152826384    0.062097749319483954    0.07301048562036208    0.09906952050098254    
  0.14830652368873706    0.22960336191336647    0.3412959664356836    0.4557316586285859    0.52761638829986    
  0.5276136459941791    0.45564600576849723    0.3413059241633199    0.22965541781116688    0.1482959734892062    
  0.09906848626332508    0.07301082377384345    0.06209957152826384    0.07792294866920497    0.07164944140774518    
  0.07792487180890671    0.09906704684263525    0.14217467305254164    0.21654573944420993    0.32089660121730235    
  0.4213427996113593    0.4734376066500314    0.4836516174890889    0.47353331149982425    0.42135342115191454    
  0.32081882193021805    0.21656340974114593    0.1421823072133641    0.09906847022231102    0.07792294866920497    
  0.1106043782473597    0.09439814106496788    0.09440788673222235    0.11059047831278711    0.1483140992087825    
  0.21654766583735172    0.3130666439187097    0.38846047514868176    0.3745240758626175    0.31959911532494056    
  0.3195612385242959    0.37449887041926894    0.3885721099966441    0.313033315594948    0.21656339163634225    
  0.14829599028468213    0.1106043782473597    0.16842999525336536    0.1371418338473344    0.12752071220209177    
  0.1371419445482049    0.16842746021919458    0.22965151375372653    0.3208264302410724    0.3885452189520145    
  0.32702277739619956    0.1955613714940768    0.14229813391050888    0.19556677790818683    0.32697984507551275    
  0.3885722150658326    0.3208189083595858    0.229655415637279    0.16842999525336536    0.25801648413474615    
  0.20731782137186747    0.18451199701125132    0.1845105240311442    0.20732742130227488    0.2580220201801617    
  0.3412889404671211    0.4213779487957822    0.3745374046955876    0.19552212841040095    0.08712973946570393    
  0.08713670524602261    0.19556674017723527    0.3744989029608225    0.42135340230125046    0.3413059642257528    
  0.25801648413474615    0.3714390812889163    0.30524633084352476    0.26855957228754934    0.2565731827160944    
  0.26855002074227763    0.3052547625760841    0.37145105993553995    0.4556664083422189    0.47350708564710137    
  0.3195258600541918    0.1423573874467308    0.08712976126924274    0.1422981639151288    0.31956121695611817    
  0.4735332869738898    0.45564601013626854    0.3714390812889163    0.47378331026759635    0.41147170763214336    
  0.36705504563454716    0.34306631077542754    0.3430612251265447    0.3670836867932913    0.41144579988076996    
  0.4738193895631183    0.527650020583341    0.48368895200746725    0.3195257728262913    0.19552211376793927    
  0.1955613821333772    0.31959906581423164    0.4836515622756214    0.5276134727908665    0.47378331026759635    
  0.5159068356307916    0.48372139535646175    0.4479726575875118    0.41264374792884695    0.3964420526507965    
  0.41264932438106466    0.44800570497947106    0.4837368417421401    0.5158829506922878    0.5276500664365786    
  0.47350712001306994    0.3745374516285566    0.32702281160444174    0.37452412738217666    0.47343762621032587    
  0.5276164568619525    0.5159068356307916    0.47380599309398486    0.4836912550322578    0.47893221371021466    
  0.44368680447123604    0.4039114702654427    0.4039003934608286    0.4436699081192928    0.4789420058220225    
  0.4837368252624884    0.47381936180527606    0.45566632891152165    0.4213779583167642    0.3885450594080627    
  0.3884603915016182    0.42134280059771007    0.455731662557759    0.47380599309398486    0.3713809503047088    
  0.4114340571369468    0.4480190048502691    0.4436780494527234    0.39681967919135763    0.3691209106919975    
  0.3968488915597378    0.4436699040562779    0.4480056728800984    0.4114459250650174    0.37145104545627466    
  0.3412889416973515    0.3208263309042606    0.3130666909612347    0.3208966282989879    0.3412960020578854    
  0.3713809503047088    0.25800868022009205    0.30530844198002927    0.36707036576875784    0.4126187866506367    
  0.4039073670226968    0.36912854428180336    0.36912081673774305    0.40390043303500284    0.41264917587633354    
  0.3670837174781462    0.3052547732389108    0.25802204843321375    0.2296515253777043    0.21654764459723447    
  0.21654570090538697    0.22960338889442494    0.25800868022009205    0.16846569694507876    0.2073262760701198    
  0.2685000788826807    0.3430702711379262    0.396460889166731    0.40390745449287846    0.3968197591756995    
  0.403911485666784    0.3964420318645818    0.34306124937319005    0.2685500490445092    0.20732744149660287    
  0.16842743085285128    0.14831410083776542    0.1421746787779222    0.1483065276381589    0.16846569694507876    
  0.11059820214492957    0.1371057959891806    0.184513967304808    0.25661653545682145    0.34307028874697487    
  0.41261874709765073    0.44367796958440503    0.4436867734532889    0.4126437278185127    0.3430663220318685    
  0.25657313794393444    0.1845105219033539    0.13714194300411037    0.1105904955190347    0.09906700098173116    
  0.09906952662869092    0.11059820214492957    0.07792005003138658    0.09440427963158508    0.12755202687668185    
  0.18451392420587148    0.26850009295553784    0.36707033270232425    0.448019027087822    0.4789321105853465    
  0.447972584372671    0.3670549889422164    0.26855959830258547    0.18451199787058273    0.12752068260548768    
  0.09440790626039808    0.07792486942353201    0.07301047540055011    0.07792005003138658    0.062099617953505215    
  0.07165127072895848    0.09440430103844383    0.13710580777368608    0.20732625031539087    0.305308412900516    
  0.41143393395943983    0.4836913200580526    0.48372134340242395    0.4114717081293023    0.30524619164996547    
  0.20731782269463567    0.137141802421403    0.09439815268112059    0.07164942605623724    0.06209774966203714    
  0.062099617953505215    0.05749441775262009    0.06209964158333073    0.07792004858835355    0.11059822440736994    
  0.1684656973237019    0.2580087332088041    0.37138100244465705    0.47380606880378434    0.5159068461056823    
  0.47378327089022515    0.3714391326975592    0.25801650754340416    0.16843001240161296    0.11060441375253743    
  0.07792294949135434    0.06209958527091769    0.05749441775262009    0.05538497360424493    0.0593532849107561    
  0.07281666079536624    0.10016116137350921    0.14763324251352905    0.21940207672146375    0.3082448374120256    
  0.3870266845446573    0.41900760787786195    0.38700243032870046    0.30830943918665604    0.21941079678209155    
  0.1475953845777072    0.1001683250215236    0.07281995600197995    0.059353267162849964    0.05538497360424493    
  0.05935325592249558    0.05935121527909684    0.06927304628880741    0.09274657385972881    0.1364385823721638    
  0.2073125585003012    0.30261747240853665    0.39753062110741755    0.45543157269680945    0.45543158817835055    
  0.39745420727164116    0.3026170652847427    0.20736481453966812    0.13643174012381876    0.09274523992745216    
  0.06927327481222942    0.05935325592249558    0.07281995051838572    0.06690671380524237    0.07282151773123006    
  0.09274350343279965    0.13318358381188472    0.20232675234570432    0.2977355679521294    0.38574651493799594    
  0.4265371536809019    0.43246363599505305    0.4266303000664717    0.3857554638983873    0.29766833549043414    
  0.20234322052715237    0.1331894711924386    0.0927452321070645    0.07281995051838572    0.10016829426432422    
  0.08461796939833775    0.08462792986992297    0.10015425042713516    0.13644672025786084    0.20232635738364435    
  0.2953972795894727    0.3651398065659874    0.3449328215285359    0.28787164376071706    0.2878341038142571    
  0.3449092132455971    0.36525299626129454    0.29535989421595193    0.20234320681876752    0.13643174812948058    
  0.10016829426432422    0.14759537942130668    0.11735189886197805    0.1080956095551426    0.11735119681387393    
  0.14759695406899323    0.20735942000601473    0.2976706732096471    0.3652268320193701    0.3031563893200765    
  0.1745355610587573    0.12394050919416133    0.17454147257559818    0.3031143181032686    0.36525306495667786    
  0.29766841433980173    0.20736482223018185    0.14759537942130668    0.2194107833656013    0.1698680129423121    
  0.1479320404467376    0.14793175214051538    0.16987129034676154    0.21941330922764637    0.3026066459603273    
  0.3857750483479865    0.34494356875707666    0.17449875048568955    0.07388413940942644    0.07389083796116286    
  0.17454143183098683    0.344909238236415    0.38575548873136856    0.3026170899851908    0.2194107833656013    
  0.3083094086927559    0.24152416214499628    0.2059774751570317    0.19474319988310124    0.20597510615441844    
  0.2415312628646609    0.30831261454700615    0.3974723294300609    0.4266019138288969    0.28780141388301    
  0.12399461262165408    0.07388417235866311    0.12394049519392426    0.2878340868121812    0.42663030122389234    
  0.39745425725452643    0.3083094086927559    0.38700238201064113    0.3183928171580966    0.2750251385212176    
  0.2546577163405136    0.25464328701416267    0.2750482968295824    0.31837695164937846    0.3870305490387184    
  0.4554615539941555    0.4324962167060269    0.28780135988604616    0.17449875725281078    0.17453555652418162    
  0.28787157812068304    0.4324635446045303    0.45543149802993826    0.38700238201064113    0.41900767356394764    
  0.37052521058277854    0.33461535443164175    0.3127814457875422    0.305024391941654    0.3127838426253478    
  0.3346305814793454    0.37053872127006954    0.41898539648040833    0.45546162130565465    0.42660191812838694    
  0.344943583354968    0.3031563991816475    0.3449328282881228    0.426537250637721    0.45543163692755173    
  0.41900767356394764    0.38702665229335526    0.3704984269567447    0.3585270851152125    0.3482008320183389    
  0.34016837858831206    0.34016286514295446    0.34820530686459267    0.35852488731035953    0.37053874118128066    
  0.38703056864837226    0.3974722558529193    0.385775045975348    0.36522674613955114    0.3651397747901143    
  0.38574647013053776    0.3975306929557714    0.38702665229335526    0.30824483323615504    0.3183694043204725    
  0.33464224776163237    0.34820099993656634    0.35188816892389685    0.35130832159819025    0.35189840346814244    
  0.34820525436603167    0.3346305324895428    0.3183769971635336    0.3083126354095306    0.30260665054607305    
  0.2976705904719145    0.2953973247247516    0.29773560960705975    0.30261747179267784    0.30824483323615504    
  0.21940202078759596    0.241578877058265    0.2750403789566134    0.3127582428151064    0.3401672869493778    
  0.35130726736275114    0.3513083168115572    0.34016290386745623    0.31278375913411444    0.2750483478479425    
  0.24153130493436115    0.2194133305680407    0.20735938022024578    0.20232631215448413    0.20232670564579588    
  0.2073125932563555    0.21940202078759596    0.14763324094048508    0.16987072831148808    0.2059284823579516    
  0.25464911967616677    0.30504351125801793    0.34016734635607476    0.35188824496140014    0.34016840200180587    
  0.3050244091095025    0.25464330634236476    0.205975125028049    0.16987126410967793    0.14759694230718168    
  0.13644672287948106    0.1331835980952787    0.13643859240271575    0.14763324094048508    0.10016113397359307    
  0.11731765651807348    0.14793163763699085    0.19478757205451297    0.25464912809319995    0.3127582535750372    
  0.34820098292662793    0.34820084827934605    0.3127814403918887    0.2546577770428655    0.19474314949120833    
  0.14793173722580788    0.1173511943296365    0.10015425457706903    0.09274348864295115    0.09274658447739949    
  0.10016113397359307    0.07281664798873788    0.08462378938367578    0.10812557556735386    0.1479316289530209    
  0.20592845210561125    0.27504034593269244    0.33464226385183854    0.35852710322222275    0.3346152847188562    
  0.2750251131554197    0.20597749478709615    0.14793205033342974    0.10809560123390383    0.08462793412582335    
  0.07282152434066375    0.06927303109237368    0.07281664798873788    0.059353266782425834    0.06690825361587634    
  0.08462380908325676    0.11731765455525103    0.16987070534709367    0.24157888878138406    0.31836934700022584    
  0.37049840565549874    0.3705250842067575    0.3183928561891575    0.24152403676108916    0.16986800647834033    
  0.11735188342642247    0.0846179812753051    0.06690671287835286    0.05935123371458432    0.059353266782425834    
  0.05538497360424493    0.0593532849107561    0.07281666079536624    0.10016116137350921    0.14763324251352905    
  0.21940207672146375    0.3082448374120256    0.3870266845446573    0.41900760787786195    0.38700243032870046    
  0.30830943918665604    0.21941079678209155    0.1475953845777072    0.1001683250215236    0.07281995600197995    
  0.059353267162849964    0.05538497360424493    0.052448917415660344    0.05561579246752645    0.06613799168779215    
  0.08693572288607888    0.1221021387815875    0.17383265834562173    0.23612483030589035    0.29016204605431023    
  0.31185924295434486    0.2901519163786709    0.23617017653427455    0.17383354424780115    0.12208119973889095    
  0.08694077870957381    0.06614033865223538    0.055615960405548476    0.052448917415660344    0.05561595894307382    
  0.05561501687802703    0.06389029186893704    0.0832510784276745    0.11852650922680559    0.1745769073614951    
  0.24903146859235628    0.3233153678153833    0.36946512819848154    0.36945891067370873    0.32326293205095286    
  0.24903983657680673    0.17460883488987297    0.11852229098603523    0.08325125225900706    0.0638904882733838    
  0.05561595894307382    0.06614033294797728    0.06108484805256006    0.06614076119778087    0.08324957657118179    
  0.117754987766073    0.1763285153005722    0.2586448781291983    0.3415510944722081    0.3915098187608035    
  0.40496203323257185    0.3915915940989779    0.3415469378250728    0.25860699250157027    0.17634126786542667    
  0.1177585078722019    0.08325123702090778    0.06614033294797728    0.08694077356534217    0.07349782451024843    
  0.07350334150523394    0.08693249597850759    0.11853097539925113    0.176327834809942    0.2620473954871009    
  0.34405013996869754    0.3660858150419445    0.3437475941771549    0.3437051763610425    0.366074710292393    
  0.34412940471648606    0.26202312998752714    0.1763412402015758    0.11852230754048453    0.08694077356534217    
  0.12208120867367625    0.09590283449580202    0.08801662125599086    0.09590300338533993    0.12207954843343911    
  0.17460778197409801    0.25860378314289967    0.3441162474174149    0.3458346248822917    0.2658445677312895    
  0.22256459983820476    0.26584167600290626    0.34581486599190586    0.3441295336745013    0.2586070481948926    
  0.1746088908447872    0.12208120867367625    0.17383353921200273    0.13098933301164398    0.11239276832089341    
  0.1123955174072473    0.13098838818255365    0.17383808228585987    0.24902966401683743    0.34156213183355305    
  0.3660910234204492    0.2658199996065267    0.1698863009369648    0.16991877568941868    0.2658416002142652    
  0.36607471282072424    0.34154691815954835    0.249039836737106    0.17383353921200273    0.2361701649437962    
  0.1774626634321232    0.1471860966625603    0.13783846591936444    0.14718471395776134    0.17746737563509726    
  0.23617076728773034    0.3232737407945606    0.39157336487416805    0.34366585650662446    0.22263564221356383    
  0.16988632973044027    0.22256460085162938    0.34370518862170896    0.39159155200627344    0.3232629819824739    
  0.2361701649437962    0.29015188962792055    0.225985746410944    0.18793774899959306    0.17085068285072094    
  0.17083985838844265    0.18795189561678668    0.22597418323528587    0.2901757403442496    0.36946628559115624    
  0.40500811843413265    0.3436658036841775    0.26581999733591505    0.26584460912487495    0.34374752488938265    
  0.4049620896710059    0.369458906653656    0.29015188962792055    0.3118592872387113    0.25824317444194933    
  0.22290753052103077    0.20421858887270325    0.19839184248593533    0.2042220611369691    0.2229170405561221    
  0.25824853307977413    0.31185350190974065    0.36946640626366317    0.3915733866048501    0.36609102747721456    
  0.34583464652559115    0.36608581445174576    0.39150996753409634    0.36946522326973436    0.3118592872387113    
  0.29016206488640667    0.25822952181060543    0.2368849291424009    0.22555416351407134    0.2210532775473356    
  0.22105174226520852    0.22555470682896817    0.23688616645223778    0.2582484932379868    0.2901757692278358    
  0.32327373123327    0.34156209798707854    0.3441161510964808    0.34405007317909286    0.34155107361120274    
  0.3233154113248066    0.29016206488640667    0.23612477849844946    0.22597582473527886    0.2229175135179052    
  0.22555360972815452    0.22974519874780108    0.23172579440289764    0.22975194125066892    0.22555471443728137    
  0.22291702900113194    0.22597421695017145    0.23617079245984776    0.24902964439309827    0.2586036659891701    
  0.26204743377379136    0.2586448964934864    0.2490314563035331    0.23612477849844946    0.17383261181783272    
  0.1774979457423989    0.18794426430853428    0.20421024737275403    0.22105216684814297    0.23172619576577988    
  0.2317258172133589    0.22105178275313525    0.20422204943374128    0.18795191576714573    0.1774673621110713    
  0.17383811536509486    0.17460778042254993    0.17632783333708132    0.17632850171726994    0.17457691946807097    
  0.17383261181783272    0.12210216793537979    0.13098617172335905    0.1471552180189499    0.17084418731842357    
  0.19839974879318847    0.22105222394343735    0.2297452817761458    0.2210532945046647    0.19839185777919843    
  0.17083987005881854    0.14718473067307686    0.13098839356303013    0.12207954806079738    0.11853100377767382    
  0.1177549850296388    0.11852652755493863    0.12210216793537979    0.0869356988485993    0.09588322777242168    
  0.11239450423124786    0.13786555701219788    0.17084420830182714    0.2042102271596459    0.22555362467378556    
  0.22555419326244977    0.20421860227401828    0.1708507268769761    0.1378384213783571    0.11239551438799181    
  0.09590301185193276    0.08693250028540395    0.08324956317310644    0.0832510881750554    0.0869356988485993    
  0.06613798892186977    0.07350085006701186    0.08803347123417213    0.11239449867757838    0.14715518169386904    
  0.18794425455824065    0.22291752416848393    0.23688495752791816    0.2229074586278188    0.18793770993566927    
  0.14718608183516418    0.11239277209613799    0.08801658652331322    0.0735033500595064    0.06614076844716414    
  0.06389027851887186    0.06613798892186977    0.05561578916071394    0.06108598823295763    0.07350085293103281    
  0.09588322234868624    0.13098615575995665    0.17749795359672554    0.22597579169117268    0.25822953642100666    
  0.25824316439875794    0.22598577245420584    0.17746260835508107    0.13098935168890743    0.09590281275834706    
  0.07349784564973574    0.06108486503540305    0.05561503646398673    0.05561578916071394    0.052448917415660344    
  0.05561579246752645    0.06613799168779215    0.08693572288607888    0.1221021387815875    0.17383265834562173    
  0.23612483030589035    0.29016204605431023    0.31185924295434486    0.2901519163786709    0.23617017653427455    
  0.17383354424780115    0.12208119973889095    0.08694077870957381    0.06614033865223538    0.055615960405548476    
  0.052448917415660344    0.04960719091812259    0.051926161298552695    0.0596059889065145    0.07459075358251249    
  0.09930430738385194    0.13457821965551733    0.1759995419021991    0.2113770103782851    0.2254939523723505    
  0.21137569835942602    0.17601312086071555    0.13457881119697648    0.0993007990482627    0.07459295009262855    
  0.059607030594928424    0.05192629234902341    0.04960719091812259    0.05192629126140592    0.051925987302874885    
  0.05840571637931111    0.07351511291837831    0.10060308442163163    0.1427591008054245    0.1982648942264373    
  0.2545067118043145    0.2905791087362652    0.29057648481068216    0.25449398790971517    0.19827089265953846    
  0.14276868325086461    0.10060281499464256    0.07351620576653124    0.05840631877048947    0.05192629126140592    
  0.059607020655192404    0.05550829410205723    0.05960684974076448    0.07351509642505957    0.10137197294372075    
  0.14841843045197833    0.2163551556972344    0.2926829452361905    0.35109117183970295    0.3721436635553018    
  0.3511202819465109    0.2926830509350194    0.21634896849186508    0.1484248562326019    0.10137339546096659    
  0.07351618114951743    0.059607020655192404    0.07459294276432017    0.06355144287143469    0.0635529671899631    
  0.07459013737875582    0.10060419655920978    0.14841772537374034    0.22325866152526194    0.31365391681599214    
  0.38352456066675733    0.41179425268316483    0.41177936029310885    0.38352677298253046    0.3136803541655454    
  0.22325331076151173    0.1484248465399258    0.10060282957008317    0.07459294276432017    0.09930082474927374    
  0.07786311028163866    0.07149571457761397    0.0778629315005939    0.09929914925640385    0.14276847531788656    
  0.2163467434341899    0.31367555190827556    0.39078334719235425    0.40900069129759975    0.4032463279539983    
  0.40899743913279507    0.3907872880543939    0.31368046373477015    0.21634907386809735    0.1427687396257525    
  0.09930082474927374    0.1345788339563715    0.09982209892104134    0.0849962362829377    0.08499801709537855    
  0.09982183208173405    0.1345807470239957    0.19826584166135172    0.29268564094834076    0.38352918771062405    