#     DFTpy    
  CRYSTAL 
    
  PRIMVEC    
  3.814551724137931    0.0    0.0    
  0.0    3.814551724137931    0.0    
  0.0    0.0    3.814551724137931    
  PRIMCOORD    
  2    1    
  Si    0.0    0.0    0.0    
  Si    1.9072758620689658    1.9072758620689658    1.9072758620689658    
  BEGIN_BLOCK_DATAGRID_3D    
  3d_datagrid_density    
  BEGIN_DATAGRID_3D#0    
  17    17    17    
  0.0    0.0    0.0    
  3.814551724137931    0.0    0.0    
  0.0    3.814551724137931    0.0    
  0.0    0.0    3.814551724137931    
  0.07406450250990454    0.13094856342465128    0.3115789134935478    0.4160292485013147    0.3106084533543613    
  0.1777791056933977    0.10028231286949199    0.0655879957385028    0.05594075007501178    0.0655880165421993    
  0.1002823101438725    0.17777914557378724    0.31060844337845595    0.416029188144466    0.31157889044739406    
  0.13094852791588593    0.07406450250990454    0.13094855491029775    0.1943892223381246    0.3553887274414079    
  0.409689341752936    0.29284783456821556    0.16818322511282832    0.09641780210602638    0.06408962185184493    
  0.05505442266812555    0.06408961341022042    0.09641779846002801    0.16818323326461865    0.29284784685539544    
  0.4096892924898146    0.35538876316047663    0.19438919967546497    0.13094855491029775    0.3115788850887972    
  0.3553887023828265    0.41584057442404704    0.3672521104428995    0.2443258177493164    0.14357708613843978    
  0.08662949552364918    0.06043061045195199    0.05301529835078986    0.06043061025939625    0.08662949642521989    
  0.14357707624593552    0.24432579550178998    0.3672521162911423    0.4158405432109944    0.3553887070776518    
  0.3115788850887972    0.4160292585152611    0.40968926110904036    0.36725215817442614    0.2775049783904107    
  0.18197005045893083    0.11388897585313949    0.07498179415816224    0.056374375206767    0.05100359127788004    
  0.05637437837727111    0.07498178603846159    0.11388897793735446    0.18197004953632773    0.27750488575312265    
  0.36725218131368786    0.4096893359054307    0.4160292585152611    0.310608474225144    0.29284785505393407    
  0.24432580723531677    0.18197002912625507    0.12655683202920354    0.08793262274441055    0.06499479427254498    
  0.05352413033656501    0.050147289920629515    0.053524132580543775    0.06499479592388396    0.08793262711048414    
  0.12655685461042215    0.181970019180175    0.24432578868656027    0.2928478284396921    0.310608474225144    
  0.17777913864092657    0.16818321654464014    0.14357710153456127    0.11388898594560816    0.08793262189270788    
  0.06949314266820321    0.05830461141231387    0.052658846217501616    0.05100360101238422    0.05265886117411951    
  0.0583046095152716    0.06949313898617172    0.08793260982530583    0.11388897562593704    0.1435771084913938    
  0.16818321894667418    0.17777913864092657    0.10028230741742676    0.0964177647032226    0.08662950424891097    
  0.07498174794497263    0.06499479168503593    0.05830458372851823    0.05477994388855813    0.05335361409395253    
  0.05301529257099307    0.05335361119191206    0.05477996757972049    0.058304592720745084    0.06499477954392308    
  0.07498174167161813    0.08662949439022039    0.09641777886434637    0.10028230741742676    0.06558801412872475    
  0.06408960815249962    0.060430622228477976    0.05637436643620216    0.05352415059703445    0.0526588379760628    
  0.05335363905922669    0.05450708305074245    0.05505442785643576    0.054507071189815764    0.05335362956367698    
  0.052658853338831545    0.053524153902584824    0.056374356572406234    0.06043061869827093    0.06408962325160984    
  0.06558801412872475    0.05594074687710831    0.055054420596055816    0.053015299658662064    0.05100359522858454    
  0.05014728195817459    0.05100357063155783    0.053015293316154254    0.055054406766949594    0.05594073857142468    
  0.0550544314598218    0.05301530931994828    0.051003584742561885    0.05014729042443255    0.0510035709707743    
  0.05301529825708371    0.0550544031870524    0.05594074687710831    0.06558800716305896    0.06408961012927668    
  0.0604306200281655    0.0563743763295425    0.053524137967277126    0.0526588458462362    0.05335363478987769    
  0.05450706488995695    0.0550544254432596    0.05450707832032831    0.05335362260118774    0.05265885886639218    
  0.05352413649668411    0.05637436501420031    0.060430622862237236    0.06408961825700346    0.06558800716305896    
  0.10028231378656748    0.09641777244343289    0.08662949842734574    0.07498176340948616    0.06499477876220258    
  0.05830460283975073    0.05477995314512959    0.0533536246004097    0.053015309494075166    0.05335363261095735    
  0.054779966737925796    0.058304585440707934    0.06499477930421056    0.07498176232217131    0.08662949379758973    
  0.09641777652652186    0.10028231378656748    0.1777791313813994    0.1681832273758379    0.14357711327519954    
  0.11388898153229253    0.08793262656840448    0.06949311596056615    0.0583046134541576    0.05265885514151244    
  0.051003584461509266    0.05265885061348144    0.0583046025753693    0.0694931508802533    0.08793263061888808    
  0.11388897917397733    0.14357711552694077    0.16818322232508875    0.1777791313813994    0.3106084397150615    
  0.292847815221612    0.244325831411244    0.18197003420270094    0.1265568591889194    0.08793261636325364    
  0.06499478124448228    0.05352413500420362    0.050147294916248406    0.053524144393703475    0.06499478997185135    
  0.08793261808260046    0.1265568358694251    0.18197002592807138    0.24432580756645356    0.2928478187628322    
  0.3106084397150615    0.4160292815819225    0.40968931361806543    0.36725215767621333    0.2775049204814414    
  0.18197001649335243    0.11388898546514088    0.074981787102574    0.056374375213276116    0.05100359353710211    
  0.05637437281147482    0.07498178046381643    0.11388899451491026    0.181970032956235    0.2775049342447017    
  0.36725214549135915    0.4096892900335658    0.4160292815819225    0.31157884896473437    0.35538865303302314    
  0.4158405724967008    0.3672521060101008    0.24432579509234728    0.14357705728236375    0.08662949214659302    
  0.060430615222710454    0.053015297932926204    0.060430603695388344    0.08662949568659697    0.14357706571544618    
  0.24432581624828567    0.3672520955709738    0.41584052705242097    0.35538869829131403    0.31157884896473437    
  0.1309485578521194    0.19438918830748855    0.3553887265626725    0.40968930535713977    0.29284786668987545    
  0.16818320671980583    0.09641779372275563    0.0640896328308275    0.055054425705719154    0.0640896209483873    
  0.09641780053913084    0.1681832203497209    0.29284788048990074    0.4096892704311121    0.35538876181201334    
  0.19438923428899893    0.1309485578521194    0.07406450250990454    0.13094856342465128    0.3115789134935478    
  0.4160292485013147    0.3106084533543613    0.1777791056933977    0.10028231286949199    0.0655879957385028    
  0.05594075007501178    0.0655880165421993    0.1002823101438725    0.17777914557378724    0.31060844337845595    
  0.416029188144466    0.31157889044739406    0.13094852791588593    0.07406450250990454    0.13094855340734204    
  0.19438921240555554    0.355388756688609    0.409689301578329    0.2928478760189008    0.1681832130673287    
  0.09641778564817054    0.0640896071421824    0.05505442371657467    0.06408961708703174    0.0964177898534918    
  0.1681832400215849    0.2928478824720414    0.4096892788828036    0.3553887196189602    0.19438917521447435    
  0.13094855340734204    0.1943892130556928    0.25654530847692353    0.3869817458421816    0.39862216733718975    
  0.27602990915188846    0.15961998000585423    0.09316488345063985    0.06298683930170482    0.054507082197728936    
  0.06298683757375115    0.0931648781526    0.15961998077800266    0.2760299303934892    0.39862215268920337    
  0.38698181271201443    0.25654530784296187    0.1943892130556928    0.35538870995929733    0.3869817264883223    
  0.4166765230939768    0.35011060697886665    0.23097187769168334    0.13767975643380198    0.08488865036177592    
  0.06034294856190687    0.053353631023327866    0.06034294887941502    0.08488865106815185    0.13767976142092767    
  0.2309719085266317    0.35011060195625715    0.41667648109846495    0.3869816898879824    0.35538870995929733    
  0.40968929439161206    0.39862215788148414    0.3501106462901628    0.2627146832052434    0.17401249170822183    
  0.11126168251836613    0.0751567655361057    0.05771922445444665    0.05265885392962551    0.05771923042110141    
  0.07515675153039415    0.11126168870908898    0.17401244837227728    0.262714662969571    0.3501106843084035    
  0.39862213509401273    0.40968929439161206    0.2928478978965434    0.2760299112446276    0.230971909379168    
  0.17401246602989986    0.12354272438545418    0.08822343595536755    0.06718212338518902    0.05663585158444077    
  0.053524153155024276    0.05663585348909363    0.06718214003040236    0.08822343480996642    0.12354272378027614    
  0.17401244243743275    0.2309718700959262    0.27602987994854955    0.2928478978965434    0.16818322464977337    
  0.15961997480697998    0.1376797894966828    0.11126169766615142    0.08822343895739887    0.07199650333864868    
  0.06239853778393341    0.05771922410034888    0.056374369943774746    0.05771923127583467    0.0623985458293225    
  0.07199651305044082    0.08822344395372418    0.1112616823151278    0.13767979904663502    0.15961995362370168    
  0.16818322464977337    0.09641778622115081    0.09316484495088245    0.0848886500926629    0.07515672645904779    
  0.06718213864042522    0.06239851473185137    0.06056460170692608    0.06034296177065649    0.06043061541788802    
  0.06034293521357994    0.06056460837993422    0.06239852302606455    0.06718212614217318    0.07515672181449264    
  0.08488864899181982    0.0931648476248595    0.09641778622115081    0.06408961727264867    0.0629868320827329    
  0.060342964158180294    0.057719225500088185    0.05663585590444963    0.057719207289687    0.06034297599496764    
  0.06298685113566367    0.06408961894795046    0.06298682503140487    0.06034295493266683    0.057719225122202435    
  0.05663586059301759    0.05771920911642454    0.06034296737776394    0.06298684104379813    0.06408961727264867    
  0.05505442150785515    0.054507067054111465    0.05335363205005151    0.05265885586204499    0.053524155432269155    
  0.05637436782051432    0.0604306151236351    0.06408960248186248    0.06558800415890116    0.0640896202774743    
  0.060430623510484255    0.05637435682823146    0.05352414939874548    0.052658840453320706    0.05335362891465988    
  0.05450705357745081    0.05505442150785515    0.06408962433644927    0.0629868351753199    0.06034296425611433    
  0.05771923319540287    0.05663584945245009    0.05771921741475669    0.060342976818871394    0.06298683693672395    
  0.06408962065742792    0.06298682809664768    0.06034294717806138    0.05771923190540071    0.056635849412750926    
  0.057719226543854744    0.0603429729368529    0.06298683645238053    0.06408962433644927    0.09641778705730013    
  0.09316484289494271    0.08488865231046583    0.07515673707725433    0.06718213462475611    0.06239853275376907    
  0.060564597217129396    0.06034294457778117    0.060430603172044586    0.06034295112326633    0.06056460957935604    
  0.06239852446712813    0.06718212112188403    0.07515672627485964    0.08488864869028782    0.09316484556348578    
  0.09641778705730013    0.16818322834730579    0.15961996229350994    0.13767977949612195    0.11126168477191498    
  0.08822342583595771    0.07199651421709392    0.06239855948955086    0.0577192223261529    0.05637436762715461    
  0.05771924353973189    0.06239853850613725    0.0719965145680079    0.088223451570729    0.11126168084716238    
  0.13767978897566968    0.15961996925859445    0.16818322834730579    0.29284789078358386    0.2760299151669093    
  0.23097190713621235    0.17401245678043226    0.1235427280411554    0.08822343006957785    0.0671821264580438    
  0.05663583832244023    0.05352416135017319    0.05663584747245501    0.06718214564179395    0.08822343633839894    
  0.12354273549699751    0.17401245692781792    0.23097186615173979    0.27602990149078865    0.29284789078358386    
  0.4096893220001299    0.398622159706859    0.3501106193788328    0.26271468281619825    0.17401246434224163    
  0.11126169028926491    0.07515676159355672    0.05771922198911392    0.05265885186987887    0.05771923068665341    
  0.0751567616113848    0.11126170005230533    0.17401247470537165    0.2627146745729647    0.35011065505343797    
  0.3986221456032208    0.4096893220001299    0.35538870984226995    0.38698169438658914    0.4166765169690619    
  0.35011058830131414    0.2309718704153657    0.1376797426175279    0.0848886480264201    0.06034295589709639    
  0.053353633479431985    0.06034295276645197    0.08488864698586158    0.13767974622405657    0.23097191162298383    
  0.3501105586005541    0.41667651860535493    0.3869817528427249    0.35538870984226995    0.19438921570833612    
  0.2565452992996089    0.3869817474102376    0.3986221617266156    0.276029930804369    0.1596199522876346    
  0.09316487781874247    0.062986851092549    0.05450707145325959    0.06298684476830907    0.09316487202170924    
  0.15961997874607842    0.2760299373020443    0.39862212394866386    0.38698178187124443    0.256545345919467    
  0.19438921570833612    0.13094855340734204    0.19438921240555554    0.355388756688609    0.409689301578329    
  0.2928478760189008    0.1681832130673287    0.09641778564817054    0.0640896071421824    0.05505442371657467    
  0.06408961708703174    0.0964177898534918    0.1681832400215849    0.2928478824720414    0.4096892788828036    
  0.3553887196189602    0.19438917521447435    0.13094855340734204    0.311578848078829    0.3553887163840733    
  0.4158405556919695    0.3672521570420867    0.24432580667308026    0.14357707921617793    0.08662949005081787    
  0.06043059479895763    0.05301530158844169    0.060430606102928934    0.08662948661166553    0.14357710025368844    
  0.24432578543020156    0.3672520969285872    0.41584056854649254    0.35538864638189716    0.311578848078829    
  0.3553886957528109    0.38698176493802283    0.4166764709173726    0.35011064673745895    0.2309718419159702    
  0.13767977541769738    0.08488865466144714    0.06034295704662889    0.053353627471097204    0.060342948276836596    
  0.08488865293270256    0.13767977739194046    0.23097186075978815    0.35011064373806366    0.41667655203867077    
  0.3869817280705304    0.3553886957528109    0.4158405413621764    0.41667646926584806    0.38598651372918397    
  0.29781633013033015    0.19623433254911174    0.1226266999450303    0.08060920652392445    0.06056459336365354    
  0.05477994493979713    0.06056459370462809    0.08060921084530388    0.1226266980466486    0.19623431705269992    
  0.2978163098885859    0.38598644342244276    0.41667645378671275    0.4158405413621764    0.3672521315708056    
  0.3501105864923172    0.29781635212395935    0.2232374612091055    0.15363801139317856    0.10489521774767606    
  0.0764074742788075    0.06239854946779282    0.05830459841657703    0.06239853806132769    0.07640747172873895    
  0.10489522178585765    0.15363800859626267    0.22323741764688376    0.2978163900109092    0.35011063380091145    
  0.3672521315708056    0.24432581840897943    0.23097186262706682    0.19623432514531652    0.15363799975937295    
  0.11629325665570475    0.09015180071831116    0.07473584218909428    0.06718210972813252    0.06499479790849505    
  0.06718211112147598    0.07473584853668457    0.09015181525245443    0.11629325489200674    0.1536379959374218    
  0.1962343033289962    0.23097181637153796    0.24432581840897943    0.14357710158542455    0.13767976817612748    
  0.12262671229067769    0.10489523117249473    0.09015181274152824    0.08074544115080731    0.07640746973419411    
  0.07515674459343098    0.07498176812303323    0.07515674709327025    0.07640746461787458    0.08074544757235388    
  0.09015181890424719    0.1048952168518919    0.1226267292923895    0.13767975994207562    0.14357710158542455    
  0.08662948000917214    0.08488862106865885    0.08060921790371889    0.07640744272104669    0.07473583591084848    
  0.0764074450395671    0.08060919625013255    0.08488862833384528    0.08662948547561165    0.08488861322041825    
  0.08060921999101511    0.0764074462929389    0.07473583424131267    0.07640742980673763    0.08060920872564832    
  0.08488863171138844    0.08662948000917214    0.06043061404491627    0.06034294699751285    0.06056461137269976    
  0.06239853953320935    0.06718212919719746    0.07515673704237683    0.08488866034053393    0.09316486310179144    
  0.09641777632274966    0.09316486059200577    0.0848886386418139    0.07515675565686633    0.06718213122190446    
  0.06239852353190129    0.06056461418947705    0.06034295589253564    0.06043061404491627    0.05301529981186383    
  0.05335361870427373    0.054779948483732174    0.058304600945222815    0.06499477642575258    0.07498175635235363    
  0.08662949431671976    0.09641775495170324    0.1002822972537969    0.0964177878175901    0.08662949093325317    
  0.07498177332641855    0.06499478403010467    0.05830458319761707    0.05477995275450478    0.053353604465824635    
  0.05301529981186383    0.06043061170355243    0.060342950356606216    0.060564605855799494    0.06239854017249785    
  0.0671821154970133    0.07515674635422628    0.08488866402955501    0.09316484691416105    0.09641777783866212    
  0.09316487873694942    0.08488863064360412    0.07515675434289283    0.06718211561967456    0.0623985313793304    
  0.06056461223146545    0.060342953356762964    0.06043061170355243    0.08662948378097832    0.08488863522897366    
  0.08060920979953588    0.07640744583593825    0.07473583681145109    0.07640744155265274    0.0806092142356506    
  0.08488863363712171    0.0866294942517749    0.08488863672011931    0.08060923212630508    0.07640744352100799    
  0.07473583952037928    0.07640744111597196    0.0806092077142077    0.08488863211743995    0.08662948378097832    
  0.14357709460823628    0.13767976932900144    0.12262673020064029    0.10489522215720062    0.09015181613797729    
  0.08074542788817624    0.07640747340169912    0.07515674921721004    0.07498177158661486    0.07515674478901722    
  0.0764074513748113    0.08074544613054173    0.0901518198729072    0.10489521300705937    0.12262672563633246    
  0.1376797797808335    0.14357709460823628    0.24432582640113712    0.23097185198695933    0.19623433285106523    
  0.15363799102256837    0.1162932670825372    0.09015181536599387    0.07473582951496226    0.06718210365875615    
  0.06499479007504787    0.06718213028208551    0.07473584887819755    0.09015181295980781    0.11629326814566039    
  0.15363797946600027    0.19623431349404621    0.23097183742401214    0.24432582640113712    0.3672521446079062    
  0.350110640291574    0.29781635683528834    0.22323744826718714    0.15363800335416905    0.10489522130781374    
  0.07640747792702146    0.06239854609702233    0.05830460593324336    0.06239853745416882    0.07640746740729669    
  0.10489523335927277    0.1536380026484789    0.2232374455237428    0.29781638719369846    0.35011062122500114    
  0.3672521446079062    0.41584052346167955    0.41667643081407624    0.38598649122540163    0.2978163400430567    
  0.19623431718635256    0.12262667550025871    0.08060920504700547    0.06056460162228446    0.054779946200842554    
  0.06056459168194842    0.08060921649237796    0.12262668955240291    0.19623433036275606    0.2978162999069391    
  0.38598644871871    0.4166764759559981    0.41584052346167955    0.3553886929195977    0.38698171517307006    
  0.4166764945459247    0.3501106660736677    0.2309718742764844    0.13767975493819803    0.08488865765023446    
  0.06034296638894022    0.05335363073828106    0.0603429542256996    0.0848886542456756    0.1376797687117192    
  0.23097188518408235    0.35011060312069253    0.4166765457113033    0.38698174492290527    0.3553886929195977    
  0.311578848078829    0.3553887163840733    0.4158405556919695    0.3672521570420867    0.24432580667308026    
  0.14357707921617793    0.08662949005081787    0.06043059479895763    0.05301530158844169    0.060430606102928934    
  0.08662948661166553    0.14357710025368844    0.24432578543020156    0.3672520969285872    0.41584056854649254    
  0.35538864638189716    0.311578848078829    0.41602921345121635    0.4096893100139025    0.3672521603465461    
  0.2775049510179652    0.18197003339590928    0.1138889733139264    0.07498178125916202    0.05637435659919939    
  0.05100358755474678    0.05637437309144417    0.07498177294141375    0.11388898644958227    0.18197003940986572    
  0.27750486807389035    0.3672521651400878    0.40968926133472255    0.41602921345121635    0.4096893061337335    
  0.39862212664505303    0.3501106555736628    0.2627146876469758    0.17401244751478429    0.11126169310592178    
  0.07515676810065539    0.057719228554937885    0.05265885716322101    0.05771922465501074    0.0751567580423992    
  0.11126169435783025    0.17401247130959294    0.26271467960165673    0.3501106992162944    0.398622139689241    
  0.4096893061337335    0.36725215263578076    0.35011062370402524    0.2978163845986397    0.2232374336248628    
  0.15363802458209738    0.10489521663614595    0.07640746418930111    0.06239852952267191    0.058304610374280155    
  0.062398539045204815    0.07640746530609495    0.10489521757899761    0.15363802491288456    0.22323742091848944    
  0.29781635726861655    0.35011060790555315    0.36725215263578076    0.27750494273169074    0.26271466028601903    
  0.22323747026531726    0.1735143040546569    0.12947396794981617    0.0987513457107554    0.08074546256309505    
  0.07199652263762281    0.06949314089923923    0.07199651233265784    0.08074545057422541    0.0987513410648791    
  0.12947395231213596    0.17351429203179802    0.22323748839864024    0.2627146900055246    0.27750494273169074    
  0.18197005873465144    0.17401244092697654    0.15363802406133067    0.12947394222984185    0.1092886064079127    
  0.09633306157519583    0.09015182880163596    0.08822341756525809    0.08793263275222646    0.08822342919642104    
  0.09015184421286089    0.09633304341570675    0.10928860605798373    0.12947394073571988    0.15363800775306016    
  0.17401241858059352    0.18197005873465144    0.1138889799249403    0.11126168850452947    0.10489524432951644    
  0.09875135899095058    0.09633305849772424    0.09875134449938813    0.10489521944867321    0.11126168400474128    
  0.11388898810067391    0.11126169023007211    0.10489523915223602    0.09875134585095209    0.09633306627556383    
  0.09875134028031622    0.10489524848930502    0.1112616729008443    0.1138889799249403    0.0749817653099066    
  0.075156732923774    0.07640746830998082    0.08074543207472878    0.09015182482115064    0.1048951940205761    
  0.12262672788117143    0.13767978379750853    0.14357710093979412    0.1376797490878982    0.12262671735747058    
  0.10489520342560517    0.09015183060621701    0.08074541946555958    0.0764074682942739    0.0751567381254413    
  0.0749817653099066    0.0563743810522377    0.057719222092419996    0.0623985553749432    0.0719965134128549    
  0.08822344167915343    0.11126166971757581    0.13767979543678227    0.15961999464409857    0.16818321192456048    
  0.15961994503350813    0.13767977194198575    0.1112616934002641    0.0882234468691687    0.0719964932459587    
  0.062398553219830344    0.05771922730318174    0.0563743810522377    0.05100358682316841    0.05265885225317923    
  0.05830460514800163    0.06949314188696042    0.08793262685832128    0.11388894679503747    0.1435771018831292    
  0.1681831987978583    0.17777909655017277    0.16818322574523134    0.14357710186573922    0.11388898631422979    
  0.08793262112345299    0.06949313111927077    0.058304610268866804    0.052658833784807416    0.05100358682316841    
  0.056374376213394736    0.05771922849112852    0.06239854775263096    0.07199652571117404    0.08822343721924553    
  0.11126169126357949    0.13767981660561074    0.15961996449181773    0.16818322745411596    0.15961996337382567    
  0.1376797795805399    0.11126169062826313    0.08822342796803183    0.07199651407696973    0.06239856169479268    
  0.057719224318483836    0.056374376213394736    0.07498178097624607    0.07515674766203014    0.07640746390396774    
  0.08074543077260385    0.09015183139685948    0.1048952106890302    0.12262670777961253    0.13767975886844222    
  0.14357709463870927    0.13767976578407232    0.12262673349448384    0.10489521278088133    0.09015183005647322    
  0.0807454252687945    0.07640746420916507    0.07515673271883204    0.07498178097624607    0.11388897968746962    
  0.11126167839727039    0.10489523881887045    0.0987513411062938    0.09633306129434119    0.09875134738162444    
  0.10489525581223119    0.1112616890543753    0.11388899484275797    0.11126167623544417    0.1048952455936011    
  0.09875134070555523    0.09633307649557206    0.0987513446882474    0.10489524190611163    0.11126169043150318    
  0.11388897968746962    0.18197005597793586    0.17401245073523117    0.15363804368257655    0.12947392845268202    
  0.10928861887093194    0.09633305195834856    0.09015181709113493    0.08822341232534489    0.08793264944218428    
  0.08822342755935626    0.0901518309844097    0.096333047328799    0.10928862248375869    0.12947395019886362    
  0.15363801859979836    0.17401242854371127    0.18197005597793586    0.2775049577811145    0.2627146835824037    
  0.2232374592871297    0.17351428899518653    0.12947395972450848    0.09875134647583378    0.08074546090219714    
  0.07199651034509132    0.06949313944847216    0.07199652050623277    0.08074546087663857    0.09875135111553665    
  0.12947395238128398    0.173514302086491    0.22323744870166892    0.2627146857057991    0.2775049577811145    
  0.36725217050765874    0.35011060083714707    0.29781634771993987    0.22323740399949457    0.15363802479719132    
  0.10489520291485092    0.0764074642304278    0.0623985411651269    0.05830460204866064    0.06239853247455605    
  0.0764074684676014    0.10489520840788491    0.15363801925606618    0.22323737838812616    0.2978163865696541    
  0.3501106624038777    0.36725217050765874    0.40968929181595864    0.39862209330423914    0.35011064963671407    
  0.26271470798594443    0.17401247088385585    0.11126166080558676    0.07515675990551243    0.057719236035380234    
  0.052658862612959434    0.057719226649064544    0.07515676047937082    0.11126168226995313    0.17401246126744785    
  0.2627146548473288    0.35011067659213324    0.3986221883014742    0.40968929181595864    0.41602921345121635    
  0.4096893100139025    0.3672521603465461    0.2775049510179652    0.18197003339590928    0.1138889733139264    
  0.07498178125916202    0.05637435659919939    0.05100358755474678    0.05637437309144417    0.07498177294141375    
  0.11388898644958227    0.18197003940986572    0.27750486807389035    0.3672521651400878    0.40968926133472255    
  0.41602921345121635    0.3106084213876986    0.2928478775025387    0.244325831231747    0.18197003075140478    
  0.1265568259361281    0.08793261181075412    0.06499478770396626    0.053524135121324166    0.05014729164592165    
  0.05352414627932419    0.06499478662664952    0.08793263421737174    0.12655682185456305    0.1819700050479132    
  0.2443258001808402    0.29284782946752863    0.3106084213876986    0.29284788020192576    0.2760299357545699    
  0.23097188540900543    0.17401247786273555    0.12354270654209959    0.08822343920539803    0.06718214168954016    
  0.056635861755457644    0.05352415038647024    0.05663585507449793    0.06718214289794186    0.08822344325087637    
  0.12354270081854218    0.17401245703300686    0.23097190113433858    0.2760299119654276    0.29284788020192576    
  0.24432581551879612    0.23097186574828826    0.19623434025467568    0.1536379826826365    0.11629327046854351    
  0.09015181381016568    0.07473583549830323    0.0671821275138136    0.06499478721141384    0.0671821221840807    
  0.07473584460108453    0.09015181196301189    0.11629326065509803    0.15363799835027106    0.1962343251307604    
  0.23097186273391385    0.24432581551879612    0.18197002889419964    0.17401243805577907    0.15363801515711795    
  0.12947396556674465    0.10928859384467031    0.09633305867963575    0.0901518443042309    0.08822344305948356    
  0.08793262591181598    0.08822344245721003    0.09015183325035758    0.09633305812918178    0.10928860179029493    
  0.12947392336070535    0.1536380429708156    0.17401246592229966    0.18197002889419964    0.12655684253169047    
  0.12354271339995708    0.11629326780016651    0.10928859126893846    0.10650975098423769    0.10928857480497478    
  0.11629325623477307    0.12354269495208176    0.12655682171675528    0.12354269108236184    0.11629327217387134    
  0.1092885905644521    0.10650975643029084    0.10928857807666552    0.11629325221336033    0.12354269365363556    
  0.12655684253169047    0.08793263286916994    0.08822343909839271    0.09015182946477429    0.0963330748005094    
  0.10928859635748882    0.12947395629051647    0.1536380074636272    0.1740124488766783    0.18197004824956114    
  0.17401246227255215    0.15363801576629782    0.1294739505837597    0.10928858229827758    0.09633305442379489    
  0.09015184298420835    0.08822343344590866    0.08793263286916994    0.06499478242009761    0.06718211726897189    