#     DFTpy    
  CRYSTAL 
    
  PRIMVEC    
  12.905166556448329    2.4007641903448278e-09    -7.795193875862068e-10    
  2.4007641903448278e-09    12.905166559354532    -2.248857304827586e-09    
  -7.795193875862068e-10    -2.248857304827586e-09    12.905166560163627    
  PRIMCOORD    
  63    1    
  Si    3.2262916998950284    2.826943138443084e-08    3.2262915737683953    
  Si    9.678874978119193    2.946981347960325e-08    3.226291573378635    
  Si    3.2262917010954104    6.452583307946697    3.2262915726439667    
  Si    9.678874979319573    6.452583309147078    3.2262915722542065    
  Si    3.2262916995052695    2.7145002732017046e-08    9.678874853850207    
  Si    9.678874977729432    2.8345384827189457e-08    9.678874853460448    
  Si    3.2262917007056515    6.452583306822269    9.67887485272578    
  Si    9.678874978929814    6.452583308022651    9.67887485233602    
  Si    1.6131458187591248    1.6131457362985808    1.613145757494622    
  Si    8.065729096983288    1.6131457374989628    1.6131457571048626    
  Si    1.6131458199595066    8.065729015975846    1.6131457563701936    
  Si    8.065729098183672    8.065729017176228    1.613145755980434    
  Si    1.6131458183693652    1.613145735174152    8.065729037576435    
  Si    8.065729096593529    1.613145736374534    8.065729037186676    
  Si    1.613145819569747    8.065729014851417    8.065729036452007    
  Si    8.065729097793911    8.065729016051797    8.065729036062248    
  Si    3.2262917174730203    3.226291616465899    4.081254440623011e-08    
  Si    9.678874995697182    3.226291617666281    4.0422784712437005e-08    
  Si    3.2262917186734024    9.678874896143165    3.9688115753816314e-08    
  Si    9.678874996897564    9.67887489734355    3.929835606002321e-08    
  Si    3.2262917170832606    3.22629161534147    6.452583320894357    
  Si    9.678874995307421    3.226291616541852    6.452583320504596    
  Si    3.2262917182836426    9.678874895018735    6.4525833197699285    
  Si    9.678874996507803    9.678874896219119    6.452583319380168    
  Si    1.6131458230824167    4.839437518993981    4.8394375263350184    
  Si    8.06572910130658    4.839437520194364    4.839437525945259    
  Si    1.6131458242827987    11.292020798671247    4.839437525210591    
  Si    8.065729102506962    11.292020799871631    4.839437524820831    
  Si    1.6131458226926572    4.839437517869554    11.292020806416831    
  Si    8.06572910091682    4.839437519069936    11.292020806027072    
  Si    1.6131458238930392    11.292020797546817    11.292020805292402    
  Si    8.065729102117203    11.292020798747199    11.292020804902643    
  Si    6.452583220809785    3.243463280764809e-08    6.187488789362782e-08    
  Si    12.905166500234333    6.452583313312282    6.036069954742093e-08    
  Si    6.452583222010166    6.452583312111899    6.075045924121404e-08    
  Si    12.90516649864419    3.251058625040672e-08    6.45258334156694    
  Si    6.452583220420025    3.1310204155234305e-08    6.452583341956701    
  Si    12.905166499844574    6.452583312187853    6.452583340442512    
  Si    6.452583221620408    6.45258331098747    6.452583340832272    
  Si    4.839437462471253    1.6131457800775575    4.83943751890439    
  Si    11.292020740695415    1.6131457812779395    4.839437518514632    
  Si    4.8394374636716355    8.065729059754824    4.839437517779961    
  Si    11.292020741895795    8.065729060955205    4.839437517390202    
  Si    4.839437462081492    1.613145778953129    11.292020798986204    
  Si    11.292020740305654    1.613145780153511    11.292020798596445    
  Si    4.839437463281875    8.065729058630394    11.292020797861776    
  Si    11.292020741506036    8.065729059830776    11.292020797472015    
  Si    12.905166477044975    3.2262916054911113    3.2262916003213498    
  Si    6.452583198820813    3.2262916042907293    3.226291600711109    
  Si    12.905166478245356    9.678874885168376    3.226291599196921    
  Si    6.452583200021195    9.678874883967996    3.2262915995866805    
  Si    12.905166476655214    3.2262916043666827    9.678874880403162    
  Si    6.452583198431052    3.2262916031663003    9.67887488079292    
  Si    12.905166477855596    9.678874884043948    9.678874879278734    
  Si    6.452583199631435    9.678874882843566    9.678874879668493    
  Si    4.839437452241245    4.839437524829611    1.613145755022387    
  Si    11.292020730465406    4.839437526029992    1.6131457546326275    
  Si    4.839437453441627    11.292020804506874    1.6131457538979588    
  Si    11.292020731665792    11.292020805707258    1.613145753508199    
  Si    4.839437451851484    4.839437523705182    8.0657290351042    
  Si    11.292020730075647    4.839437524905563    8.06572903471444    
  Si    4.8394374530518665    11.292020803382448    8.065729033979771    
  Si    11.29202073127603    11.29202080458283    8.065729033590012    
  BEGIN_BLOCK_DATAGRID_3D    
  3d_datagrid_density    
  BEGIN_DATAGRID_3D#0    
  55    55    55    
  0.0    0.0    0.0    
  12.905166556448329    2.4007641903448278e-09    -7.795193875862068e-10    
  2.4007641903448278e-09    12.905166559354532    -2.248857304827586e-09    
  -7.795193875862068e-10    -2.248857304827586e-09    12.905166560163627    
  0.012479333245308413    0.012727775268546866    0.013433622754906449    0.014485626302900576    0.015749131088853816    
  0.01700306580666418    0.017995228002298476    0.018540363398825418    0.018625207495449672    0.01837514278808576    
  0.018009172098403966    0.01770943793027061    0.017574484119151097    0.017670064671412095    0.018023632467138142    
  0.01866721631984336    0.01978968039063006    0.02184578779512904    0.025946523944136143    0.03439904539070477    
  0.05249507900501632    0.09159801575616558    0.17251396569329044    0.31147610538103687    0.42833544376243143    
  0.32834214271294504    0.13997033633787576    0.07951302912762874    0.1399704254147097    0.32834219093077827    
  0.42833539141705795    0.3114760107564736    0.1725138529498801    0.09159801750723784    0.052495025645434144    
  0.03439902234345243    0.02594653191947097    0.021845773279596928    0.019789687247536644    0.01866720617121624    
  0.01802363256376127    0.017670055723047386    0.01757447810615034    0.017709430514509943    0.018009188449984496    
  0.018375141346837546    0.018625210861400933    0.018540365480485096    0.01799520944330253    0.017003076317494526    
  0.01574913350385993    0.014485632919219383    0.013433624016426365    0.012727775235660306    0.012479333245308413    
  0.012727786728528355    0.01300633817566232    0.013811686729698226    0.015029458697222001    0.016480741952072206    
  0.017905012403219827    0.019017350389804236    0.019591028675354293    0.019597472708540026    0.019188683763403925    
  0.01862139967962175    0.018122281937489364    0.017836409705258596    0.017848825453878867    0.018197892326069495    
  0.018910273815581247    0.020163632804837413    0.02237566131527531    0.02658748392541691    0.034963526411982075    
  0.05245185610304771    0.08947008630520625    0.16502012775531852    0.2959989804985082    0.4236724346175221    
  0.3746384108910145    0.20728887810811122    0.14005814292977822    0.20728885472158556    0.374638444910231    
  0.42367249409415386    0.2959989551643224    0.16502012167112762    0.08947003012644748    0.05245180248653454    
  0.034963508795545176    0.02658750942957789    0.022375640085390856    0.020163653071981827    0.01891026886497908    
  0.01819790909571538    0.017848828199894546    0.017836413876544735    0.018122262620703194    0.018621396697981466    
  0.01918866173015964    0.019597476926815103    0.01959101814746344    0.019017344297574883    0.017905021313963685    
  0.01648074133131001    0.01502946760853282    0.013811696837287061    0.01300635034459477    0.012727786728528355    
  0.013433636158741104    0.013811686668172845    0.01491001065386862    0.016597893114495537    0.018632702630231462    
  0.02061652215979919    0.022112341033604557    0.022768136638149136    0.02251407565514135    0.0216169097681588    
  0.020458306098467705    0.019405245384065795    0.018709470174724227    0.01850069606380349    0.018835290164335772    
  0.019737685461284654    0.021336851154591992    0.023975282863726608    0.028486344411966298    0.036663894424950313    
  0.052500189327542066    0.08402554586855582    0.1454053824707013    0.25195241289799586    0.3829534694132071    
  0.43724138968812015    0.3751230551504933    0.328951317677354    0.3751230261284354    0.43724146897119676    
  0.38295342519427644    0.2519524143049049    0.1454053199849366    0.08402551386828494    0.05250016295318482    
  0.03666388928132111    0.02848635342423025    0.02397528519495886    0.021336870357372462    0.019737702898744117    
  0.018835293709129303    0.018500698446467904    0.018709463598721873    0.019405240907832674    0.02045831017172487    
  0.021616906020630815    0.022514091521634864    0.02276816500018684    0.022112351785318073    0.02061652795696947    
  0.018632708379579296    0.01659790264546857    0.014910000170406541    0.013811689142664927    0.013433636158741104    
  0.014485637201052266    0.01502947775072499    0.016597913492144588    0.019051511236964462    0.022071430554985914    
  0.025037593355223115    0.027227815820929317    0.02804822399601493    0.027381527424169716    0.025680074305832436    
  0.023588760676687907    0.02170671103943347    0.020417162446327873    0.01988828265403298    0.02020695877494624    
  0.021385517532495516    0.023489253802168986    0.02674236670553933    0.03170446297076322    0.03960205568581064    
  0.053095174259402515    0.07730697441193993    0.12067110380472552    0.19288602377477146    0.29194801120649694    
  0.383485456664334    0.4247516205845478    0.4296241455904207    0.42475151857627746    0.38348536456674603    
  0.2919479056238907    0.19288599714892124    0.12067114227168181    0.07730698353707824    0.05309512195406418    
  0.03960202933726887    0.03170446235751773    0.026742357596861378    0.02348926178733611    0.021385488868772465    
  0.020206960587519626    0.01988827461639402    0.020417162412220923    0.021706693661422877    0.02358876847612993    
  0.025680040945671292    0.02738154419506265    0.028048198080147736    0.027227799107733687    0.025037603002477725    
  0.022071411682748447    0.019051528981767398    0.01659791249949883    0.015029467493226945    0.014485637201052266    
  0.015749158577776073    0.01648072898625253    0.01863269266416651    0.022071414730651696    0.026382616148954326    
  0.030693020213808885    0.03387702204853897    0.03503722928828242    0.03397507310061051    0.03136716177965452    
  0.02823315099427252    0.025470062144514714    0.023582143996431784    0.022749394340119775    0.023057808212361648    
  0.024504862082845403    0.02710497273463301    0.03097170586365059    0.036340826607236164    0.043773083739440846    
  0.054509604474224635    0.07111388414912109    0.09760797725483199    0.13815552306916729    0.19311491749119136    
  0.25259360355861643    0.2970682885483962    0.3127255658524961    0.2970682463140507    0.25259362990642314    
  0.1931148246949547    0.13815552879939508    0.09760798147817264    0.0711138984337643    0.05450957926433018    
  0.0437730817331668    0.03634086269468597    0.030971710706772376    0.02710499150231583    0.024504850025887464    
  0.023057804940588764    0.02274938922534924    0.023582151865615457    0.025470042907364144    0.028233158718906994    
  0.03136713851879573    0.03397508680764541    0.035037221200236036    0.03387701803469715    0.030693049111941845    
  0.026382617877395834    0.022071426520106345    0.01863266973321389    0.01648073131614528    0.015749158577776073    
  0.017003082961774135    0.01790501446520349    0.020616525681433448    0.02503760016194436    0.030693073931585615    
  0.03649132819995826    0.04090291210437684    0.04270090471249739    0.041661498125168436    0.03861827204636561    
  0.03491185604897136    0.03168956988536905    0.02954374672168503    0.02861309529263101    0.028926955980162962    
  0.03046353890915649    0.03323245661552118    0.037273023575960795    0.042519514005925345    0.048887909955623365    
  0.05651890118310601    0.06621118880684627    0.07944918027788928    0.09765818283445826    0.12087550407364975    
  0.1458463649906675    0.16568762500811332    0.17327675950701682    0.16568761604612092    0.14584638178834644    
  0.12087547268362772    0.09765819541264825    0.07944917836369633    0.06621119579160108    0.056518904670668946    
  0.04888787043111516    0.0425194830678285    0.037273010323786465    0.03323246164669436    0.03046351751295532    
  0.028926969162094765    0.02861308569997764    0.029543751623967593    0.031689568061897655    0.03491186046123682    
  0.03861826438877742    0.04166149982777191    0.04270089931362302    0.04090291038555086    0.03649135341629656    
  0.030693031500015146    0.02503760171038814    0.02061652159961348    0.017905024469967803    0.017003082961774135    
  0.017995235329681867    0.019017353584819294    0.02211235941099699    0.027227787967055266    0.03387701922491714    
  0.040902926838598426    0.0465988878302287    0.0496074345794551    0.0496486533732637    0.04758767820745247    
  0.0448567241745484    0.04260105244390751    0.04131464822427222    0.040933763235345436    0.04127443297899986    
  0.04230882487705109    0.04415619776241451    0.04696845344518704    0.05059964038519953    0.05460519647235775    
  0.05851821051048453    0.0622308707383578    0.06618424193961739    0.0711213876036682    0.07740568976361108    
  0.0842458912881772    0.0897982884072072    0.09196919708574075    0.08979824562620912    0.084245883774023    
  0.07740567324644035    0.07112139653826179    0.06618424903053921    0.06223086042078338    0.058518204077570184    
  0.05460519668770254    0.050599673147190743    0.04696845697921044    0.044156207262241114    0.04230881391304988    
  0.04127445880392359    0.04093374615628571    0.04131465760006914    0.042601033668635525    0.044856741142117414    
  0.047587685936692985    0.04964869336863027    0.04960744784535866    0.04659889542936812    0.040902898978758824    
  0.03387701829665293    0.027227798100130537    0.022112338512187232    0.01901735202172151    0.017995235329681867    
  0.018540367040837294    0.019591030576389792    0.022768158502389443    0.028048183902309138    0.0350372474382896    
  0.042700892210919314    0.04960744658757738    0.05460093705928273    0.057492721109429566    0.05912856013099028    
  0.060734876231876865    0.06293405224470959    0.0654659113129777    0.06738026181921022    0.06778591661863079    
  0.06663532210219715    0.06464921676021432    0.06277759117111091    0.06156809853942961    0.060827104994176144    
  0.05994110581050695    0.05844995268611386    0.056428400322913734    0.05444568552715654    0.05308803801949959    
  0.05255803424964708    0.052558889121250674    0.05262163661120553    0.05255889643303535    0.0525580464383348    
  0.05308800275777209    0.05444575071854414    0.056428429017114035    0.05844997197965549    0.05994108988892769    
  0.06082709024291224    0.06156814286944128    0.06277757983317814    0.06464921610278486    0.06663529968731596    
  0.0677859617673623    0.0673802401177968    0.06546595012528814    0.06293404347495014    0.0607349019063409    
  0.059128557677687155    0.05749273241453585    0.05460090959593    0.049607439951467    0.042700911732172636    
  0.035037211339430684    0.02804820462780366    0.02276813381894628    0.019591023995485138    0.018540367040837294    
  0.01862521770479986    0.019597465461683942    0.022514074979553437    0.027381521756364297    0.03397506803082276    
  0.041661486051669354    0.04964865909224182    0.057492716090956596    0.06565828129599947    0.07530334015933617    
  0.0873853878527753    0.10149644236224531    0.11498365840383334    0.123642751879829    0.12416983302580582    
  0.11643502271727078    0.10349514150332746    0.08954431216235031    0.07748240777865396    0.06808420735537565    
  0.06072133464727378    0.05444532208698121    0.048725924024231176    0.043647217470533545    0.03952835876732959    
  0.03663762582087283    0.0349711703127918    0.03441800850086005    0.03497117522142748    0.03663762935789153    
  0.03952836372697031    0.04364722269331961    0.0487259347191683    0.054445322538958514    0.06072131031295296    
  0.06808419836584689    0.07748238181893964    0.08954427943530718    0.10349519279283356    0.11643495254946132    
  0.12416988290743623    0.12364271811022558    0.11498368865074038    0.10149643462334478    0.08738538173439664    
  0.07530331060980269    0.06565826323760414    0.05749272671935581    0.04964867076766253    0.04166147625519324    
  0.033975069160078336    0.027381533616348975    0.022514078683416053    0.019597480882732256    0.01862521770479986    
  0.018375141724362144    0.01918867071368906    0.021616920781100165    0.02568003944956442    0.03136714333728503    
  0.038618226926628384    0.04758767790020077    0.059128544734900944    0.07530329807381039    0.09887251966190497    
  0.13165554833910956    0.17155059176503126    0.20943018624539536    0.23264005208513333    0.23333984712134317    
  0.2111933502571995    0.17382772593638116    0.13398395276259725    0.10099260202511186    0.07731671900866753    
  0.06134429506947555    0.050378318568394545    0.04234083372737583    0.03622222342810242    0.031642619881344126    
  0.028468978991439044    0.026595990401553027    0.02596396678876606    0.026595996968901667    0.028469017813379387    
  0.031642619829895136    0.036222245674978615    0.04234083773360729    0.050378315783060616    0.061344283674205136    
  0.07731669808974874    0.10099262141084384    0.13398392158806957    0.1738276894049698    0.2111932553426484    
  0.2333398760658919    0.23264008369900369    0.20943031744184643    0.1715506178350687    0.13165561279276583    
  0.09887248248538343    0.07530331596575485    0.059128570632391284    0.047587662823034865    0.038618252266050125    
  0.03136715419520952    0.025680050657781978    0.02161690058894113    0.019188672008517316    0.018375141724362144    
  0.018009204944435753    0.01862139095107813    0.020458314598183366    0.02358873996967358    0.02823316807412347    
  0.03491186167050072    0.04485672274714438    0.06073489583534289    0.08738537083020073    0.13165559179353564    
  0.19847024849622977    0.2801126594536662    0.3492214549219113    0.3827240550710471    0.38344505670293705    
  0.3510371661076166    0.28237950834569314    0.20071837337348386    0.13368194981570197    0.08920696914352785    
  0.06249848700950732    0.04677375710571584    0.03716718067946754    0.030944935723679637    0.026779548107913862    
  0.024056116059384007    0.022482395652579326    0.021960253943428005    0.022482381342121573    0.02405612704315138    
  0.02677952025699036    0.030944941628805    0.037167201804903995    0.04677374796137385    0.06249844401246054    
  0.08920693683079638    0.13368192443149193    0.20071837300325993    0.28237950851988275    0.35103708597855776    
  0.38344501463844627    0.3827239680323995    0.3492216229608663    0.2801126848385385    0.1984702917966119    
  0.13165556497860142    0.08738541095761262    0.06073486393314979    0.04485672833153911    0.03491186549266832    
  0.02823316304871479    0.023588771692451948    0.020458297194429105    0.0186214112428498    0.018009204944435753    
  0.017709441924541762    0.018122258841738015    0.019405246431330164    0.021706686642177498    0.025470039782033754    
  0.031689560984344875    0.04260100677306911    0.0629340423658567    0.1014963964538055    0.17155054016277788    
  0.28011262314573415    0.3931881820993475    0.43656110316903773    0.4166514794898953    0.41699828692177987    
  0.4376474871252477    0.3947529621100138    0.2817539287692433    0.17318938451160573    0.10306700922019263    
  0.06442626565256925    0.044097612111915985    0.03329657083326755    0.027262172254700696    0.02371254728718705    
  0.021604961939170424    0.020456193809321243    0.020090222324279587    0.02045619034019084    0.021604991421821197    
  0.023712528558457895    0.027262170429203977    0.03329654431951952    0.04409759137076646    0.06442624032615003    
  0.10306700752839523    0.1731892422291516    0.2817539425026585    0.3947528445601386    0.43764733865609584    
  0.416998433841355    0.416651321727835    0.4365611197493299    0.3931881079893081    0.28011265920294615    
  0.17155061909019015    0.10149644459937107    0.0629340606783708    0.0426010302106022    0.03168957116531012    
  0.025470036705104896    0.021706679119625615    0.01940522975062441    0.018122280087034946    0.017709441924541762    
  0.0175744869483783    0.017836415502395023    0.01870946503403962    0.020417169260789788    0.023582145402546936    
  0.029543755567252347    0.04131465246894437    0.06546592168115485    0.11498367670644427    0.20943022099778322    
  0.34922151212656594    0.43656112261766106    0.35486334170035083    0.24069753805409913    0.24067685289475116    
  0.35481913328663844    0.4366619828898784    0.3497541916587814    0.2103619592899305    0.11610164913952503    
  0.06663563446978008    0.04250442130985407    0.030780861065698085    0.024907645098052433    0.0218537949494468    
  0.020254296827582178    0.019456991405387012    0.019223716959252735    0.01945697157249033    0.020254312742958462    
  0.021853798315970376    0.02490763515944455    0.030780875565434792    0.0425044148664898    0.0666356001636704    
  0.1161015427361237    0.21036187676254325    0.349754226993224    0.4366620674717928    0.35481919177420856    
  0.2406769165865673    0.24069743325946205    0.3548633370569005    0.43656120887810085    0.3492216092717277    
  0.20943028077828169    0.11498371968335114    0.06546594854169241    0.04131463130362266    0.029543758675178704    
  0.023582152581496475    0.020417175997561952    0.01870946299027548    0.017836419067018532    0.0175744869483783    
  0.017670067485468365    0.017848799662156755    0.01850070364920797    0.01988827253680432    0.022749374559944795    
  0.028613081474450956    0.040933761789014776    0.06738026477760799    0.12364274043955104    0.2326400156185753    
  0.38272388103313926    0.41665137897030474    0.24069751438816567    0.10862404633490597    0.10850986403775158    
  0.24007729121731636    0.41541401804358213    0.38195717627443715    0.23272689932670973    0.12421689569057905    
  0.0681572196249744    0.04179499531412278    0.029536142619988034    0.023741765167677162    0.020960080464407914    
  0.0196470754733207    0.01904744782378996    0.018887271572865683    0.019047433829982884    0.019647090881786924    
  0.020960036735515657    0.023741778282600424    0.02953616215638594    0.04179501476762782    0.06815716740807776    
  0.12421683688301344    0.23272685097012807    0.38195707875406604    0.4154143619667594    0.240077316922854    
  0.10850992338127442    0.10862396989687406    0.24069746363035893    0.41665133701932855    0.38272396099779926    
  0.232640098192923    0.12364277179804317    0.06738026650136464    0.04093375629284926    0.02861308958049957    
  0.022749371404496573    0.01988827853669144    0.01850066990224883    0.017848812604545242    0.017670067485468365    
  0.018023651064798776    0.01819790692101175    0.018835289944889692    0.020206960382555157    0.02305781282320607    
  0.028926976724988382    0.04127443579700175    0.06778594578078226    0.12416983943596882    0.23333984073496492    
  0.38344510107536817    0.4169984777386974    0.24067700057762278    0.10850994331403785    0.10832439694343057    
  0.23973264378729203    0.415062416773281    0.3817768260769511    0.2326921858862509    0.1242436112967845    
  0.0681908968237153    0.04181991393421319    0.029550639189271474    0.02374755295995722    0.020960158846725724    
  0.019643220286175524    0.0190415677396676    0.018880711135611003    0.0190415516013573    0.019643242497577703    
  0.020960144580283162    0.023747538715120562    0.029550658499581568    0.04181991827496557    0.06819083139837805    
  0.1242435910221015    0.23269206440334028    0.3817768335179492    0.415062437403085    0.23973270986936096    
  0.10832448586550489    0.1085098738230664    0.2406768309092699    0.4169983656389375    0.383445105627406    
  0.23333990971307872    0.12416987948412248    0.06778594349148154    0.041274452445230904    0.028926980411107046    
  0.023057809307034317    0.020206967626116585    0.018835293493056668    0.018197914453675478    0.018023651064798776    
  0.018667228015920426    0.018910271844870315    0.019737684886602314    0.021385508145851734    0.02450483320882229    
  0.03046353362366337    0.042308825649535836    0.06663531996132463    0.11643498105390433    0.21119333163538634    
  0.35103712653197044    0.4376474381930834    0.3548191998424091    0.24007742216843947    0.23973261845981794    
  0.3535355456858399    0.4355722205853093    0.34927133664635696    0.2102797282998423    0.11617321163233829    
  0.06672917649369767    0.042575432910129336    0.03082278788901883    0.024925415135731818    0.021854360642326615    
  0.02024343456565985    0.019440076207627322    0.019205157770436403    0.019440075381824747    0.02024344828914434    
  0.0218543274975828    0.02492543367904205    0.030822797866835665    0.04257544507117944    0.06672917970281983    
  0.11617320287333488    0.21027967729488334    0.349271297709709    0.43557226503307545    0.3535356056520839    
  0.23973274871283837    0.2400772940481183    0.3548191692986272    0.4376474163334504    0.3510372249912874    
  0.21119334109071458    0.11643503111472066    0.06663535591056766    0.04230882193892419    0.030463512918210797    
  0.024504847335185542    0.021385518461887333    0.019737679306010572    0.01891025636550907    0.018667228015920426    
  0.01978967960377038    0.020163630853630852    0.021336856377919655    0.023489238087214506    0.027104978712064208    
  0.033232439653386556    0.044156186633516316    0.06464920400607795    0.10349510945763528    0.1738276453826085    
  0.2823794248672821    0.3947529100613011    0.43666197535346646    0.41541419090612364    0.4150623418663838    
  0.43557214888200363    0.3932557536696675    0.28113750089879636    0.17309628096995663    0.10316392822235407    
  0.06455818827122899    0.044203020766701316    0.033361822949864325    0.02729082828605677    0.023714149208402067    
  0.021588811782884586    0.02043112782170159    0.020062634063386424    0.02043112835006689    0.021588817714839045    
  0.023714141848065536    0.02729083725719645    0.033361855282775014    0.04420306877258507    0.06455815964015978    
  0.10316390845111512    0.17309620111900278    0.28113742435607736    0.3932556870795946    0.43557216520979186    
  0.41506244514535734    0.4154140530652819    0.4366621167482433    0.3947529698445251    0.28237950024581104    
  0.17382776019701152    0.10349516737283464    0.06464919094394635    0.044156174148131    0.033232461772584626    
  0.027104956346737662    0.02348925100495894    0.02133682284530166    0.0201636293256557    0.01978967960377038    
  0.021845785511944434    0.022375639609559402    0.023975289883731644    0.026742373532143007    0.030971670343514286    
  0.03727302206660162    0.04696843543660704    0.06277758736946383    0.08954429805760676    0.1339839544861007    
  0.20071841879623475    0.28175399016658614    0.3497540989912732    0.3819571753833792    0.3817768386702076    
  0.3492714011054943    0.28113748882406064    0.20016620210115188    0.13359413718734114    0.0893044602087619    
  0.062641032915664    0.04689733725758123    0.03724813963173541    0.030982284704755544    0.026782250489833823    
  0.024037031954547268    0.022451627278025247    0.02192646751202162    0.022451631615246416    0.024037044845276023    
  0.02678222988098767    0.030982283002196114    0.03724814927179766    0.04689732234137961    0.06264097719942616    
  0.0893044396516559    0.13359406284192227    0.20016613401050054    0.281137500959634    0.34927123142868577    
  0.3817768509116199    0.3819570574007577    0.3497541176667085    0.2817539676833284    0.2007184097375119    
  0.13398395055376322    0.0895443206834768    0.06277759540512665    0.04696843684934757    0.03727298992199971    
  0.03097169111728709    0.02674237034892376    0.023975277263576043    0.022375658234741434    0.021845785511944434    
  0.0259465431269626    0.026587488066527436    0.02848635323603186    0.0317044333282424    0.0363408190041366    
  0.04251948258691183    0.05059966891303948    0.06156811589210243    0.07748236031943796    0.10099262025828293    
  0.13368191539679183    0.1731893506325073    0.2103618569730419    0.23272687722478527    0.232692063820203    
  0.21027966219507704    0.17309626954145382    0.1335941224064978    0.10090630202792349    0.07739213979135756    
  0.061471305383760215    0.050501222835001094    0.042427771465244575    0.036264560353448765    0.031647473490770205    
  0.028448381860305377    0.026561855374336325    0.025925342498509255    0.02656186655722696    0.02844840660784134    
  0.031647465868759786    0.03626456039397251    0.04242780452672226    0.050501266288006746    0.0614712610006779    
  0.07739211275614756    0.10090624905488406    0.13359409670630332    0.17309624034556126    0.21027958059343485    
  0.23269210250130754    0.23272681515971255    0.2103618402040729    0.17318930508726557    0.13368193506922507    