#     DFTpy    
  CRYSTAL 
    
  PRIMVEC    
  1.7831794372971208    -3.0885573844106946    0.0    
  1.7831794372971208    3.0885573844106946    0.0    
  0.0    0.0    6.029077506068965    
  PRIMCOORD    
  2    1    
  Si    1.7831794372971208    1.029519128136898    1.5072693765172414    
  Si    1.783179437297121    -1.029519128136898    4.521808129551724    
  BEGIN_BLOCK_DATAGRID_3D    
  3d_datagrid_density    
  BEGIN_DATAGRID_3D#0    
  17    17    27    
  0.0    0.0    0.0    
  1.7831794372971208    -3.0885573844106946    0.0    
  1.7831794372971208    3.0885573844106946    0.0    
  0.0    0.0    6.029077506068965    
  0.025291633915385605    0.026069414960483973    0.028462861609273398    0.0325429569113831    0.03818909757850377    
  0.044924689644218134    0.05173660087195532    0.056938619842772695    0.058885403315529064    0.05693863504362706    
  0.05173659288972882    0.04492468723035724    0.038189099605336896    0.03254294528644441    0.028462860567999466    
  0.026069416617635986    0.025291633915385605    0.026069422852298667    0.02607017490670568    0.027658211667688174    
  0.030922164087116028    0.03589321298931755    0.042309913947360736    0.0494411309107155    0.05584618464984542    
  0.05967622166220873    0.05967528963585968    0.055847146837264244    0.049440070360752875    0.042310384621290976    
  0.0358932759024718    0.030922091470453904    0.027658406648677778    0.026069422852298667    0.028462858316186418    
  0.02765820831995912    0.028462103715306695    0.03092254332006709    0.0351543558642314    0.04115725251826289    
  0.04846934287581367    0.05590825521417206    0.06159278164898001    0.06373247341436916    0.06159283201429546    
  0.05590825773488992    0.04847014950496183    0.0411564893489177    0.035154693817953074    0.030922083796275913    
  0.028462858316186418    0.03254295042375615    0.030922165662292268    0.0309225470640907    0.03254320159689988    
  0.03589309175919775    0.041156319185626546    0.04822772932472524    0.05624704023287157    0.06350882352070523    
  0.06790862854329836    0.06790928309012512    0.06350813898628546    0.0562470435420996    0.048227601849398685    
  0.04115649910077581    0.03589327726620484    0.03254295042375615    0.03818909412442811    0.035893206529319904    
  0.03515435692077257    0.0358930909467017    0.03818895734336362    0.042310729084311244    0.04846968084842789    
  0.0562475613233912    0.06429431921485732    0.0705753274885633    0.07299148578069913    0.07057547639054103    
  0.06429488389688076    0.05624705493200636    0.048470153707652    0.04231038625727229    0.03818909412442811    
  0.04492468748523359    0.04230991201639357    0.04115725592630602    0.041156317788760874    0.04231073070304481    
  0.044923859161482366    0.049441283868510946    0.055907154790853925    0.06350893878569684    0.07057469883384256    
  0.0749664894253989    0.07496479990799843    0.07057548531121499    0.06350815247319704    0.05590827560585512    
  0.04944008161318638    0.04492468748523359    0.051736590968040994    0.049441141112432384    0.048469349017586524    
  0.04822772491144277    0.04846967056011366    0.04944129634602032    0.05173591960365548    0.05584747055697915    
  0.06159264091334424    0.06790988915426363    0.07299044545662893    0.07496650785927517    0.07299148787128491    
  0.06790927353604286    0.06159282843250599    0.055847134479525426    0.051736590968040994    0.05693862883387583    
  0.055846188818425735    0.055908262931830356    0.056247042742340436    0.05624756125247547    0.05590715304842328    
  0.055847473363356714    0.05693806908747379    0.059676230055657295    0.0637313662012851    0.06790988209894946    
  0.07057469081014398    0.07057534106896107    0.06790861283025915    0.06373248426243625    0.05967527953814939    
  0.05693862883387583    0.05888539664644145    0.05967621334965081    0.06159278698828171    0.06350882853184327    
  0.06429431208628171    0.06350894005868304    0.061592650132016556    0.05967622285265273    0.05888503394855001    
  0.05967622256687273    0.061592639473314025    0.06350893122652722    0.0642943192189285    0.06350882998769856    
  0.06159277740595759    0.05967621716562044    0.05888539664644145    0.05693863052183496    0.059675291037737596    
  0.06373247023243905    0.06790861709464549    0.07057532335177666    0.07057470139796458    0.06790988169319363    
  0.06373136041221401    0.05967622835705235    0.05693806252566704    0.055847472681517046    0.05590715688725754    
  0.05624756676651018    0.056247038454970526    0.05590826915506041    0.0558461929427569    0.05693863052183496    
  0.05173660024628819    0.0558471539937123    0.06159283585499725    0.06790927724070397    0.07299147949269946    
  0.07496650688244712    0.07299043827389765    0.06790988833565155    0.06159264237186271    0.055847478278442775    
  0.051735918329070554    0.049441286458911465    0.0484696717431724    0.04822772283493642    0.048469349448200284    
  0.04944113648533479    0.05173660024628819    0.04492468252486755    0.049440080724496856    0.05590827477614406    
  0.06350815128219281    0.0705754802974393    0.07496480728201776    0.0749665036835722    0.07057469331715953    
  0.06350893955855234    0.05590716025835134    0.04944127861856285    0.044923860146995405    0.04231073485819623    
  0.04115631977604094    0.04115725645518176    0.04230991273400434    0.04492468252486755    0.03818909724476986    
  0.042310388391664844    0.04847015406297707    0.05624703868190263    0.06429488504006291    0.07057549336494254    
  0.07299148639408297    0.0705753276771766    0.06429432127226119    0.056247565882809686    0.04846967048009701    
  0.04231072827588624    0.03818895742563311    0.035893086962696205    0.03515435536125707    0.035893209154399024    
  0.03818909724476986    0.03254294778784522    0.03589328145055415    0.04115649634504045    0.04822759201526841    
  0.056247034274707446    0.06350815106666167    0.06790928769483798    0.06790861632440634    0.06350882568691545    
  0.056247048711303725    0.04822772057399173    0.04115631770590347    0.03589308535548184    0.032543199980402636    
  0.030922543379745246    0.030922165057788376    0.03254294778784522    0.028462860215390556    0.03092208190431878    
  0.035154688363758874    0.04115648994159116    0.04847014813548839    0.055908279057060084    0.06159282870858281    
  0.06373245952806779    0.06159277775925841    0.055908263538183074    0.04846934764077836    0.041157256334060074    
  0.03515435328823493    0.03092253393239048    0.02846210482544381    0.02765821350902361    0.028462860215390556    
  0.026069424218950095    0.027658402915760296    0.030922086888536225    0.035893271978983454    0.042310383605823655    
  0.049440087230653705    0.05584715028351353    0.059675287343070996    0.0596762123560648    0.055846190895802554    
  0.04944114415182425    0.042309907439395056    0.03589321765691455    0.030922162053352232    0.027658211964011314    
  0.026070175280442878    0.026069424218950095    0.025291633915385605    0.026069414960483973    0.028462861609273398    
  0.0325429569113831    0.03818909757850377    0.044924689644218134    0.05173660087195532    0.056938619842772695    
  0.058885403315529064    0.05693863504362706    0.05173659288972882    0.04492468723035724    0.038189099605336896    
  0.03254294528644441    0.028462860567999466    0.026069416617635986    0.025291633915385605    0.026092521888371117    
  0.026984195083315666    0.02972662735266545    0.03444229133828793    0.04108290151744323    0.049141512679826534    
  0.057342697163654116    0.06362875475118772    0.06599626252498376    0.06362869873949903    0.05734293954657647    
  0.0491412346473759    0.04108265893729398    0.03444203440536222    0.02972739343293951    0.026984135560893605    
  0.026092521888371117    0.026984141337948738    0.02698439649956736    0.028369773471954938    0.031207669536379795    
  0.0355412119030322    0.04115166301722399    0.04738889959621232    0.0529843205472805    0.05631346894110678    
  0.05631436729331847    0.0529836681813014    0.04738928082822048    0.04115142850629789    0.03554187877686633    
  0.031206919952747846    0.028369825109222063    0.026984141337948738    0.029727395569763764    0.029246142612457247    
  0.02972705613683801    0.031206998727861528    0.03380144437162444    0.03749607493169659    0.04198120896316999    
  0.04655498330205054    0.05005546318100364    0.051360904701693855    0.0500552240434926    0.046555027606721706    
  0.04198106860215404    0.037496131522418395    0.033801712903560675    0.03120690742772408    0.029727395569763764    
  0.034442038821578216    0.03397682851709482    0.033977191283886266    0.03444221644525994    0.03554128018158302    
  0.03749711365542139    0.040297367544918174    0.043612501554200434    0.046714703500114495    0.0486048538449791    
  0.04860450862464768    0.046715271318446355    0.04361239068238459    0.04029755253718674    0.03749613260266436    
  0.035541882762639004    0.034442038821578216    0.041082651352430145    0.041354048034130925    0.04150136014990981    
  0.041353867301987306    0.041083083187518465    0.041151394392027744    0.04198039424705683    0.04361234208895516    
  0.04568184218025041    0.047442334913525064    0.04812861111671416    0.04744229207485755    0.045681490868935554    
  0.04361239582383529    0.04198107108181034    0.04115143285937353    0.041082651352430145    0.04914124045341846    
  0.05117113145859485    0.052516990353356156    0.05251663889582422    0.051170638579071545    0.04914166887123936    
  0.04738887407296248    0.046556091691795934    0.046714759513899924    0.047442775594443994    0.04804713325678006    
  0.04804784071169314    0.04744229503107352    0.0467152875448702    0.046555044734125015    0.04738929070698839    
  0.04914124045341846    0.05734293774076684    0.06230763700839876    0.0663711215966342    0.06795342173523818    
  0.06637251821649334    0.0623070707149254    0.0573431511797983    0.05298366434561492    0.05005492215973294    
  0.04860417418137338    0.048128967675297785    0.04804713405891275    0.04812861112498382    0.04860450639648309    
  0.05005521506101715    0.05298365237529525    0.05734293774076684    0.0636286826572968    0.07244237122273955    
  0.08076699508440068    0.0859651017194437    0.08596271352594186    0.08076800079907558    0.07244173330676268    
  0.06362936016615961    0.05631355579354818    0.051362296542135026    0.0486041788190358    0.04744276961344057    
  0.04744233451396205    0.048604850654698654    0.05136091199166376    0.056314360712388316    0.0636286826572968    
  0.06599626471107808    0.07860667026244766    0.09198932126731088    0.10257718481985381    0.10666771156159575    
  0.10257704105790957    0.09198948702305927    0.07860683140726889    0.06599639188805403    0.05631354325901411    
  0.0500549237588454    0.04671475518476633    0.04568184145311598    0.04671469519272665    0.050055462545474196    
  0.0563134659464547    0.06599626471107808    0.06362876093283391    0.07860734278473896    0.09628734150114925    
  0.11278215472669814    0.12297155943335904    0.12297230788508498    0.11278211730653695    0.0962870784498181    
  0.07860683139588256    0.06362935756480695    0.05298366573366785    0.046556085884127324    0.04361234755204116    
  0.04361250407018279    0.04655499692077924    0.05298431832255023    0.06362876093283391    0.05734269994529119    
  0.07244220312182383    0.09198909188705175    0.11278113507289694    0.12926370537314885    0.13563247752627447    
  0.12926283826388765    0.1127821283294669    0.09198947866792147    0.07244174215548534    0.05734316145833476    
  0.04738887228882663    0.041980392572891524    0.040297358174004386    0.041981216328602695    0.04738889678893845    
  0.05734269994529119    0.04914150198905063    0.06230735957869087    0.08076771603070547    0.10257803157438491    
  0.12297223903452957    0.13563239425410223    0.13563247892674946    0.12297231354887507    0.10257704343946888    
  0.08076800360757844    0.062307057143231585    0.04914167417571228    0.04115139790263765    0.03749711639020524    
  0.03749607857586989    0.041151664083195615    0.04914150198905063    0.04108290297231123    0.051171030166368627    
  0.06637168912681049    0.08596339985043075    0.10666735233561561    0.12297225722604431    0.12926370656880723    
  0.12297157271948055    0.10666770719843836    0.08596271942764312    0.06637251490776272    0.05117063757099465    
  0.04108309183224835    0.035541275813111    0.033801443604817794    0.03554120250163102    0.04108290297231123    
  0.03444228452481223    0.04135393808263317    0.05251643039325674    0.06795465306621704    0.0859633923382112    
  0.10257802966344098    0.11278115189908684    0.11278216701286557    0.10257719204810024    0.08596510460285486    
  0.06795342307764479    0.052516631996774005    0.04135386348558946    0.03444221774108629    0.031206997816185765    
  0.031207669276187438    0.03444228452481223    0.029726631371811873    0.0339768658671914    0.04150172751651303    
  0.05251641948366211    0.06637167373891212    0.08076771059226474    0.09198907871454624    0.09628731665336154    
  0.09198930107953031    0.08076699784349964    0.06637112000635911    0.052516993628047834    0.041501354045993026    
  0.03397718438946673    0.02972705667234998    0.028369773555311447    0.029726631371811873    0.02698420302809758    
  0.029246807738406558    0.033976866157527125    0.04135393523341736    0.051171035630956506    0.06230736506708929    
  0.072442194758531    0.07860734123521981    0.07860668221166728    0.07244237357323143    0.06230763747183207    
  0.051171130532575805    0.04135405735106323    0.03397682879711332    0.029246145156044994    0.02698439880867546    
  0.02698420302809758    0.026092521888371117    0.026984195083315666    0.02972662735266545    0.03444229133828793    
  0.04108290151744323    0.049141512679826534    0.057342697163654116    0.06362875475118772    0.06599626252498376    
  0.06362869873949903    0.05734293954657647    0.0491412346473759    0.04108265893729398    0.03444203440536222    
  0.02972739343293951    0.026984135560893605    0.026092521888371117    0.028421741100598263    0.029647779202413366    
  0.03345307628869932    0.040154637914259605    0.04992752621933973    0.06217175582418138    0.07483793104024679    
  0.08466519054886644    0.08841541101221172    0.08466461335914767    0.07483874415782456    0.06217160328752673    
  0.049926872141566055    0.04015463754238458    0.03345357775309924    0.029647714249522696    0.028421741100598263    
  0.029647719411375898    0.029646671477533068    0.03122541928568502    0.0344838330072486    0.039578743084825486    
  0.04638003698250356    0.05406672494890184    0.06101731079978706    0.06521434620134453    0.06521533424206552    
  0.06101692952376917    0.05406700042591233    0.046380016680751306    0.03957894243424589    0.03448364051366577    
  0.031224800946630608    0.029647719411375898    0.03345357765528652    0.03313420488152679    0.03345423712311302    
  0.03448270887484181    0.036433235611001626    0.03941640654558071    0.043207706546170115    0.04717594670774711    
  0.050270848661060324    0.051439960112149505    0.05027059263597632    0.04717564722619027    0.04320708310618208    
  0.03941729831537955    0.03643262524146144    0.034483630911909195    0.03345357765528652    0.040154641312848495    
  0.040648934498530784    0.04064899447468283    0.040154585675437525    0.039579067620820106    0.03941735851381449    
  0.03990293239257519    0.040987991829499325    0.04227944800294156    0.043126012631552024    0.04312594614488802    
  0.04227966523000506    0.040989062583785825    0.03990200780670863    0.03941730243532765    0.039578944512549535    
  0.040154641312848495    0.04992686580435686    0.05283525271752927    0.05397754923819714    0.05283495314818945    
  0.049927340822242386    0.046379905277556685    0.043206628977350094    0.0409886338121254    0.03981128319917705    
  0.03933423674888433    0.039205592523017814    0.03933429219247767    0.03981023954364386    0.0409890715321063    
  0.04320708927390844    0.04638001528004998    0.04992686580435686    0.06217160265792265    0.06971846567155884    
  0.07437956838562107    0.07438022116973901    0.06971758966948914    0.062171877819575644    0.05406696841911034    
  0.04717648006236817    0.04227947486227177    0.03933413024845287    0.03797623326242315    0.03797681318340989    
  0.039334304086675397    0.04227967853941594    0.04717566258658521    0.05406700521839374    0.06217160265792265    
  0.07483874568052624    0.08947715689812093    0.10107383503743765    0.1055570783796939    0.10107435475741977    
  0.08947782340483222    0.07483842690986509    0.06101682296125294    0.05027054704807336    0.043125488536652656    
  0.03920649793596595    0.037976230622135454    0.039205587929901316    0.0431259518096097    0.05027059668794589    
  0.06101691755787659    0.07483874568052624    0.0846645913724262    0.10781647866079516    0.12963006421387796    
  0.14325901943049255    0.14325756026756178    0.1296307842246644    0.10781578771072035    0.08466537349742476    
  0.06521454864125803    0.05144102343480085    0.043125478042999925    0.03933412806736507    0.03933423310492909    
  0.04312601177061446    0.05143996112218909    0.06521532130958037    0.0846645913724262    0.08841541451941666    
  0.11914298339387049    0.1522976854250235    0.17868796754325608    0.18888533661428875    0.17868761176137984    
  0.1522979228591839    0.1191430535763255    0.08841595770337853    0.06521454532694555    0.05027055376715844    
  0.04227946971150975    0.039811279528755183    0.04227944544349425    0.050270845162019274    0.06521434145196928    
  0.08841541451941666    0.08466520271849735    0.11914355830518988    0.1610637476490267    0.20047667515420337    
  0.22458477594172083    0.2245840431508452    0.20047654311655846    0.1610638592340656    0.11914305759655656    
  0.08466537919197145    0.06101682594278669    0.047176482440912194    0.04098863823294802    0.04098799694602487    
  0.04717594817564232    0.061017320538090586    0.08466520271849735    0.07483793374939036    0.10781613038284431    
  0.152298108156214    0.20047639128401892    0.23809224986710753    0.2522659515623375    0.2380935395299414    
  0.20047656349257598    0.15229792168311576    0.10781579962097039    0.07483843748175151    0.05406696823336942    
  0.043206629865469484    0.0399029306887817    0.043207710807099994    0.054066720117000144    0.07483793374939036    
  0.06217175423391638    0.0894781180795035    0.12963075553298609    0.17868772376240305    0.22458495414358512    
  0.252267780864558    0.25226593761032634    0.22458407351611545    0.17868762615021255    0.12963078834621533    
  0.08947780652879549    0.0621718780494868    0.04637990671594373    0.039417354498632935    0.0394164097411474    
  0.046380032743961803    0.06217175423391638    0.0499275245644936    0.06971803228789676    0.10107338107622067    
  0.14325832944458894    0.18888580607796626    0.22458497279161307    0.23809223478389144    0.22458479060593461    
  0.18888533080373698    0.14325756994077568    0.10107434920473492    0.06971759078442132    0.049927348465328675    
  0.03957906020645523    0.036433232086415586    0.03957873647467743    0.0499275245644936    0.04015463135082404    
  0.0528346235032855    0.07438021758051881    0.10555843851362869    0.1432583159644883    0.17868773144458652    
  0.20047640392034896    0.20047669420583694    0.1786879633298455    0.14325901359170412    0.10555708588998082    
  0.0743802175487903    0.05283494842711541    0.04015458534024975    0.034482705040284826    0.03448383552897823    
  0.04015463135082404    0.0334530820553119    0.040649642605791576    0.05397709936963134    0.07438021479600498    
  0.10107336666446114    0.12963076084115654    0.1522981081583936    0.16106372093662932    0.1522976550584309    
  0.12963006515927752    0.10107383336706789    0.07437956716923122    0.053977549896319275    0.040648985162515375    
  0.03345423940324712    0.031225414477437374    0.0334530820553119    0.029647789877599865    0.03313384306439924    
  0.040649639245050814    0.05283462574602153    0.06971803421268995    0.08947811495421225    0.10781613400955051    
  0.11914355984181961    0.11914298210789566    0.10781647906457965    0.08947715557376419    0.06971846901120848    
  0.05283526847193281    0.04064893840108324    0.03313420617715555    0.029646675265573692    0.029647789877599865    
  0.028421741100598263    0.029647779202413366    0.03345307628869932    0.040154637914259605    0.04992752621933973    
  0.06217175582418138    0.07483793104024679    0.08466519054886644    0.08841541101221172    0.08466461335914767    
  0.07483874415782456    0.06217160328752673    0.049926872141566055    0.04015463754238458    0.03345357775309924    
  0.029647714249522696    0.028421741100598263    0.03195574991436062    0.03370450246198473    0.03926183137052629    
  0.049372096546865654    0.06462015246331128    0.0842984759814964    0.1050902388985252    0.12144485453080535    
  0.12774799837012815    0.12144460263527639    0.10508961605835931    0.08429735256527239    0.06462069422575435    
  0.049371803693466436    0.03926198290900456    0.03370489002868197    0.03195574991436062    0.033704892627479596    
  0.033704203956314016    0.03579772817619699    0.04021806716343308    0.04732049198491144    0.05705822909722976    
  0.06826917646160975    0.07854225663894121    0.0848581084376446    0.08485791207226363    0.0785429225252774    
  0.06827008655270218    0.05705842304973583    0.047319881156398104    0.04021883874797766    0.03579647901279081    
  0.033704892627479596    0.03926198369969607    0.0389800366348296    0.03926219554465274    0.040217611344964786    
  0.04219362148009885    0.0454936724157124    0.04992788739401711    0.05468162152988554    0.0584572253183637    
  0.05991105308583734    0.05845662609051193    0.054681445708528585    0.04992686624308462    0.04549445986608595    
  0.0421926994875963    0.040218830516272654    0.03926198369969607    0.04937180989741526    0.050733563681538016    
  0.05073276418097248    0.04937281371381146    0.0473202205914292    0.04549409228795495    0.04449780866076556    
  0.04443728426705929    0.04494438698345386    0.04539748737316673    0.0453983034756234    0.04494422320529151    
  0.04443774000294239    0.0444977598678385    0.04549446819835963    0.047319886398073795    0.04937180989741526    
  0.06462069291329293    0.0706052853707378    0.07291950564942637    0.07060552011301456    0.06461967614642003    
  0.05705858945549644    0.049927316433716486    0.04443762798027859    0.04088059878453134    0.038969030112668925    
  0.03836628267168105    0.03896875643263493    0.04088053371388021    0.044437754013735994    0.049926865990373534    
  0.05705842496042157    0.06462069291329293    0.08429735680312021    0.09924391543348539    0.10847748246558443    
  0.10847810254783931    0.09924327670636152    0.08429837324670968    0.0682695249141082    0.0546817484810364    
  0.04494428513860372    0.03896885694953648    0.03619235376540428    0.03619252080536727    0.038968768059217354    
  0.04494423821525106    0.05468145411843363    0.0682700875012096    0.08429735680312021    0.10508961192228759    
  0.13379123093107612    0.1566100613058887    0.16540112281333166    0.15660915773756484    0.13379341368752554    
  0.10508878137533198    0.07854322006171857    0.058456589334332947    0.04539819896978064    0.03836618195916839    
  0.03619234919219072    0.0383662885175179    0.045398303219023044    0.05845662503516202    0.07854292280289617    
  0.10508961192228759    0.12144459930385189    0.16627850567237323    0.20865293665132134    0.23457897965029637    
  0.23458244458880495    0.20865089182005156    0.16627810871046916    0.1214448069930566    0.0848582249786692    
  0.05991086578955459    0.04539820348279319    0.03896885599094274    0.038969029965309834    0.04539748390041    
  0.059911046029583186    0.08485790321560838    0.12144459930385189    0.12774800364217964    0.18631562892936737    
  0.24919967520889927    0.29681929773359783    0.31419861357154316    0.2968193231523062    0.24920260635136987    
  0.18631538091909317    0.1277487704002536    0.0848582359838326    0.058456602262211305    0.044944269712173746    
  0.04088059865101964    0.04494438360780435    0.058457231945543434    0.08485809735265516    0.12774800364217964    
  0.12144486220597976    0.18631563982909513    0.2644784139535184    0.332173125248528    0.368311150072361    
  0.36830972970684295    0.332169939205323    0.2644788491070355    0.18631537857024638    0.12144480429116915    
  0.07854322301503591    0.05468174225462236    0.04443762436233195    0.04443729206148712    0.05468163369499315    
  0.07854225812287802    0.12144486220597976    0.10509023822108463    0.16627757374068222    0.2492031308824013    
  0.33217277329623707    0.38590090300523316    0.40237806474989524    0.3859046692338571    0.33216995191826126    
  0.24920262674207921    0.16627811832354486    0.10508878032595753    0.06826951847115424    0.04992731296450214    
  0.04449779887171953    0.049927892368307664    0.06826917542151814    0.10509023822108463    0.08429847016670719    
  0.1337922435481292    0.20865172589821188    0.29681927434004085    0.36830997648812575    0.40238133466228543    
  0.40237803310244086    0.3683097298506283    0.29681933141383887    0.20865089310312238    0.13379340932037798    
  0.08429837225679246    0.057058592340335904    0.045494090204872745    0.04549367658434509    0.0570582220882198    
  0.08429847016670719    0.06462015929656008    0.09924317587677461    0.15660987162199336    0.2345824596204184    
  0.31420063778088964    0.36831002076574476    0.38590090045999054    0.36831118766525794    0.3141986300832836    
  0.23458244962565028    0.15660915796969613    0.09924328224076402    0.06461969010977427    0.04732021271711716    
  0.04219361690464246    0.04732049024862493    0.06462015929656008    0.049372090890780575    0.0706056480151714    
  0.10847877979814095    0.16540048722156483    0.23458245854203136    0.29681928498810833    0.33217280041556274    
  0.3321731351016523    0.2968192793513494    0.23457901389764202    0.16540113006723434    0.10847808966693546    
  0.0706055166826824    0.0493728159956773    0.04021761420609801    0.04021807083232625    0.049372090890780575    
  0.039261836634315816    0.05073355047838423    0.07291838512527243    0.10847876274093717    0.1566098633666028    
  0.20865171837933127    0.24920311144021562    0.26447839738967377    0.24919964779717368    0.20865293908354438    
  0.15661005368587844    0.10847748741871469    0.07291950603827765    0.05073275787337561    0.039262198993079984    
  0.0357977255289854    0.039261836634315816    0.033704507791078156    0.03898014922889872    0.05073355332976298    
  0.07060564940083314    0.09924317665143122    0.1337922305344282    0.1662775759654872    0.18631563503189488    
  0.1863156336513335    0.16627850063625796    0.13379122853741754    0.09924390706190518    0.07060529783635022    
  0.05073357307199797    0.038980042405923156    0.03370420994538137    0.033704507791078156    0.03195574991436062    
  0.03370450246198473    0.03926183137052629    0.049372096546865654    0.06462015246331128    0.0842984759814964    
  0.1050902388985252    0.12144485453080535    0.12774799837012815    0.12144460263527639    0.10508961605835931    
  0.08429735256527239    0.06462069422575435    0.049371803693466436    0.03926198290900456    0.03370489002868197    
  0.03195574991436062    0.03600734094297178    0.03840270512077834    0.04618002250945579    0.06072979144056997    
  0.08325796801064231    0.11306741614345567    0.14520448611945252    0.1706914553227423    0.1805071959912208    
  0.17069302957360077    0.14519695451607265    0.11306638785034225    0.08326311556725936    0.0607286749490264    
  0.046179325887229415    0.0384036128968272    0.03600734094297178    0.03840361986079001    0.03840373945833358    
  0.0412113587391073    0.04730916643035696    0.05733011560567227    0.07129144118153019    0.08764486991508708    
  0.10285942110226359    0.11230129757528955    0.11229609385491579    0.1028613412797954    0.08764880559451362    
  0.07129227560063552    0.057325380015067484    0.047311361864031364    0.041210447513831724    0.03840361986079001    
  0.04617933276279119    0.045868708250671276    0.04617911569163781    0.04731192389248966    0.049791817417713886    
  0.05409334897967221    0.06000053863153064    0.06641496217941019    0.07155095865278187    0.07354690452449576    
  0.07155196568063303    0.06641481542649993    0.059997422057901754    0.05409300640589249    0.04979488762657899    
  0.04731135380083808    0.04617933276279119    0.06072868330390644    0.06292427536065145    0.06292405628417526    
  0.060727726732391164    0.057329958696988585    0.054091908540175246    0.05199547629422757    0.05126906865415628    
  0.051463550872825045    0.051824768377700274    0.051826237072063006    0.05146235060694443    0.05126833259351024    
  0.05199843695707136    0.0540930141929373    0.05732538657113852    0.06072868330390644    0.08326311094321988    
  0.0927323911398414    0.09639038058792299    0.09273448734622433    0.0832575353595946    0.07129259556025769    
  0.060001240033641115    0.05126793380666268    0.04555235727832098    0.042471571175009874    0.04151568555622006    