#     DFTpy    
  CRYSTAL 
    
  PRIMVEC    
  6.435448275862069    0.0    0.0    
  0.0    6.435448275862069    0.0    
  0.0    0.0    3.54551724137931    
  PRIMCOORD    
  4    1    
  Si    0.0    0.0    0.0    
  Si    3.2177241379310346    3.2177241379310346    1.772758620689655    
  Si    0.0    3.2177241379310346    0.8863793103448275    
  Si    3.2177241379310346    0.0    2.6591379310344827    
  BEGIN_BLOCK_DATAGRID_3D    
  3d_datagrid_density    
  BEGIN_DATAGRID_3D#0    
  29    29    17    
  0.0    0.0    0.0    
  6.435448275862069    0.0    0.0    
  0.0    6.435448275862069    0.0    
  0.0    0.0    3.54551724137931    
  0.08956669166862197    0.1505284601708328    0.34083348856772916    0.4579575352984317    0.34669214214820826    
  0.19695178728171858    0.1100954066311734    0.07443265643962489    0.06968421688711648    0.08917264999063206    
  0.1351700104911661    0.20818896655679567    0.2921868765548962    0.35601458412609166    0.37871927245282855    
  0.35601455700779583    0.29218683202075585    0.20818892832427552    0.13517001150602095    0.08917265325952463    
  0.06968422506492818    0.07443264360889844    0.11009540517774742    0.19695178175838826    0.3466921723283733    
  0.45795755477415895    0.34083353450994325    0.15052844109115243    0.08956669166862197    0.15052844029559914    
  0.21758892135405905    0.38855546037784583    0.45295199927250945    0.32646014447431215    0.18475500367217823    
  0.1042524971062756    0.07107975217303783    0.06662898374334265    0.08478143103881729    0.12748461430856714    
  0.19524947172681095    0.2740151686897096    0.33547290141870256    0.35797410473574176    0.3354728565819755    
  0.2740151408557132    0.19524948431657468    0.12748461861136304    0.08478143759201728    0.06662898353341666    
  0.07107976148403454    0.10425248967469097    0.18475500198738468    0.3264601081571334    0.4529519920728401    
  0.3885554754369943    0.21758893531184523    0.15052844029559914    0.34083349875330066    0.3885554578128765    
  0.45790201815820397    0.4088960462931216    0.2696103189625775    0.15299925961723707    0.08898292879771943    
  0.062275519539788805    0.05866263988816432    0.07341205736755242    0.10769259040060893    0.1617845608442846    
  0.2256141357189616    0.2776796068264466    0.2976551804690327    0.2776795768491865    0.2256140972136753    
  0.16178455941925893    0.1076926045247007    0.07341205761353652    0.05866264651304186    0.062275507982263445    
  0.0889829358598192    0.15299925841427592    0.26961035497598945    0.4088959730568722    0.4579019872597562    
  0.38855542584921116    0.34083349875330066    0.45795754744749206    0.45295202945397384    0.4088959803216021    
  0.3070471147882261    0.194182523697209    0.11371060608223103    0.0697944028773462    0.050997435702781514    
  0.048453406119579864    0.05901110531011891    0.08302116254616816    0.12016702764838699    0.16391872673372282    
  0.20031211804137344    0.21458279086551243    0.20031208492651745    0.16391871798135868    0.12016701282848057    
  0.08302117298212552    0.059011125212968786    0.048453400467845895    0.05099743927727079    0.06979439761271096    
  0.11371059770952653    0.1941825143393927    0.3070470771648022    0.4088960101878322    0.45295204671322115    
  0.45795754744749206    0.3466921645772141    0.32646015310284554    0.2696103709221345    0.19418254716389954    
  0.12584326160630183    0.07862915297545209    0.05205102295701056    0.04023793261326681    0.03861758345829584    
  0.04535871775493241    0.06027726023959861    0.08258001607782271    0.10826682210035038    0.12946394327449257    
  0.13774088380938335    0.1294639405146666    0.10826683108246275    0.0825799985456266    0.06027726910327488    
  0.04535871145563307    0.03861758034623914    0.04023792708117755    0.052051031925575975    0.07862914708106893    
  0.12584328732533107    0.1941825244117486    0.26961033909725596    0.32646011341615716    0.3466921645772141    
  0.1969517951306151    0.18475501322167065    0.15299928289034834    0.11371061205286505    0.07862916949416333    
  0.0535551141100123    0.038672462081896994    0.03174344393810259    0.030733636548053066    0.034660983005905005    
  0.043147014865833166    0.05531278675286804    0.06883991233364131    0.07973231562804531    0.08392581111288928    
  0.0797322995790905    0.06883989343690276    0.05531278232871812    0.04314701660220707    0.03466099029901942    
  0.030733636137826925    0.03174344852985864    0.03867246036005908    0.053555118280409604    0.07862915887646527    
  0.11371063179991972    0.1529992703479039    0.18475502772576227    0.1969517951306151    0.110095410837648    
  0.10425248287104201    0.08898293407714611    0.06979440533991266    0.05205103280415883    0.03867245144433674    
  0.030218181205127235    0.026043797046168122    0.025315249797669533    0.0274687128567206    0.032090685584813004    
  0.0384700218067027    0.045293781657133166    0.050629427036699245    0.052652963833226464    0.050629409652064944    
  0.04529379955784387    0.038470015242825256    0.032090691308370896    0.02746870729561946    0.025315254788495646    
  0.02604378749320516    0.030218183036682396    0.03867245961684292    0.05205103270928947    0.06979440817323329    
  0.0889829350641633    0.10425249875527959    0.110095410837648    0.0744326590719214    0.07107977452404995    
  0.06227552095281205    0.05099744737182313    0.04023793521627633    0.03174345800866491    0.026043795070894427    
  0.023004034880075276    0.022263524406946785    0.023404247817347602    0.026017157386292712    0.029574633496619204    
  0.0332585603592458    0.036068626658169456    0.03712416669618603    0.03606862353819532    0.03325854157032835    
  0.02957462232940584    0.026017162603890396    0.023404250800156127    0.02226352336936524    0.023004037517135815    
  0.02604378945795915    0.031743461264553546    0.040237936492866826    0.05099746198691575    0.06227553345111141    
  0.0710797577997707    0.0744326590719214    0.06968422669363684    0.06662897068092435    0.058662651986256184    
  0.048453406627642255    0.03861758259076037    0.03073363448628808    0.025315252768816455    0.022263517953778133    
  0.021231289976394452    0.021807392977677455    0.02359544869868687    0.026109229248886066    0.028686338832440355    
  0.030630138461518734    0.03135696300918784    0.030630133933663227    0.02868633732983585    0.02610922359866508    
  0.02359545464750837    0.021807392039568423    0.021231289030095607    0.02226352113166689    0.025315250964672523    
  0.030733632645656588    0.038617587537614566    0.04845340594048632    0.058662655061580436    0.06662898940589546    
  0.06968422669363684    0.08917265268884694    0.08478145268270541    0.07341204535093912    0.059011129735455435    
  0.04535871748333357    0.03466098711852489    0.0274687074258008    0.023404244986849638    0.021807396998265727    
  0.022118375716637256    0.023831831928826257    0.026363528597391883    0.029010340320164515    0.031021029684070948    
  0.03177261181555202    0.03102101762184759    0.029010329749607513    0.02636353091068386    0.023831829829086063    
  0.022118383834086507    0.021807396130586024    0.023404248005328566    0.027468706860518846    0.03466099187130066    
  0.04535870504186214    0.05901113948402039    0.07341204286477195    0.08478143258587834    0.08917265268884694    
  0.13517001902032152    0.12748459347439933    0.10769259636254333    0.08302115553771902    0.060277264976459334    
  0.04314700182915355    0.03209068506622218    0.026017156148826413    0.023595444737220417    0.023831820764245268    
  0.0259872085864795    0.029293685079483812    0.032849074558913366    0.03558524516423048    0.03660411366204537    
  0.03558522810280814    0.03284907756345496    0.029293678442227116    0.025987214049129386    0.023831820610501098    
  0.02359544762027646    0.026017151936401684    0.03209068933232961    0.043147007663019314    0.060277267247623285    
  0.08302115608419204    0.10769261616614575    0.1274845978797019    0.13517001902032152    0.20818894116813944    
  0.19524945632605825    0.1617845608467017    0.12016702954790723    0.08257999025444024    0.05531278030204654    
  0.03847000929795745    0.029574623853306625    0.026109220504949612    0.026363527647390167    0.029293679238417927    
  0.03393417530701342    0.0390448118148816    0.04304447879567115    0.04454764070672623    0.04304447796910649    
  0.039044815726771376    0.03393417588742325    0.02929368142792732    0.026363529270974018    0.026109219501219597    
  0.029574628970039322    0.03847000969176297    0.055312779721662306    0.08257999669743134    0.1201670213896905    
  0.1617845646312585    0.19524948747242812    0.20818894116813944    0.29218689413872967    0.27401512937752354    
  0.22561414079109002    0.16391870463900307    0.10826683717457507    0.06883989309720637    0.045293786048864706    
  0.03325854451315193    0.028686337576892595    0.029010334264238956    0.032849070481817386    0.03904481839187864    
  0.04596915943149201    0.0514862584013535    0.05359772367978535    0.05148624276357969    0.045969152821918186    
  0.039044807837856854    0.032849079615020295    0.02901032896450694    0.028686340115960583    0.03325853418278606    
  0.04529379163696282    0.0688398876193567    0.10826684234445934    0.16391873164069762    0.2256141518758657    
  0.2740151440823237    0.29218689413872967    0.35601452550584106    0.3354728788956228    0.2776795757144545    
  0.20031212793984562    0.12946393993727992    0.0797323090079217    0.05062939888453671    0.036068612946787204    
  0.030630119795558956    0.03102101949852758    0.035585239981019486    0.04304449813876208    0.05148625932536876    
  0.05826164243903186    0.06087151553036307    0.0582616542420531    0.051486255110851094    0.04304449299378606    
  0.03558523185460829    0.031021023624026325    0.030630122352334754    0.036068618631737714    0.050629403115365366    
  0.07973230551428766    0.12946393460834016    0.20031215186317416    0.2776796091279715    0.335472918317532    
  0.35601452550584106    0.37871930571843554    0.3579741406720716    0.29765520524027317    0.214582792746528    
  0.13774090323771024    0.08392580513275076    0.052652967665323826    0.03712416934445817    0.031356963096101    
  0.031772605224066115    0.03660410894828102    0.04454763512479588    0.053597735832629625    0.06087152892229645    
  0.0636637212781578    0.060871517328258934    0.05359771440338808    0.04454762575678171    0.036604122873050975    
  0.03177260500709379    0.031356962044101905    0.037124165290039944    0.05265295993243243    0.08392579945913001    
  0.13774093722871397    0.21458278889698829    0.29765522742479994    0.3579741469811809    0.37871930571843554    
  0.3560145546613209    0.33547283926794197    0.2776795820588361    0.2003121284133244    0.12946394817381773    
  0.0797323145766404    0.05062940375476305    0.03606861123139238    0.030630126377334477    0.03102102094678795    
  0.03558523273808508    0.043044496571507364    0.05148625343923397    0.05826165345606253    0.06087149583314116    
  0.05826164632558331    0.05148625920351361    0.043044484072040666    0.03558522851249915    0.031021021765494493    
  0.03063011825344204    0.036068626151862716    0.05062939877134119    0.0797323179272239    0.1294639373512337    
  0.20031213493753652    0.2776795845152668    0.3354728994051541    0.3560145546613209    0.29218688522433106    
  0.27401513705358044    0.22561412423240215    0.16391872992689846    0.10826684650377942    0.06883989365087388    
  0.045293780572278584    0.03325854075065185    0.02868633126295107    0.02901033008351089    0.032849072162430805    
  0.03904481767742755    0.04596915226503037    0.05148625827098857    0.053597738339595954    0.05148626194619614    
  0.04596915441381091    0.03904481394801148    0.032849074632102    0.02901033144025723    0.028686342589372534    
  0.03325853532826019    0.04529378623476761    0.06883988679228016    0.10826683278610504    0.16391871750649323    
  0.22561414547579295    0.2740150953705734    0.29218688522433106    0.20818894149407524    0.19524947696912648    
  0.1617845304774118    0.12016703318121774    0.0825799955262246    0.05531277893559542    0.038470012201976725    
  0.029574629512801928    0.02610921895741645    0.02636352269205981    0.029293673555001166    0.033934166470777405    
  0.03904480649140446    0.043044498605852535    0.04454763854164689    0.04304447573800832    0.03904481523490076    
  0.033934173711094445    0.029293685892129377    0.026363532456156576    0.02610921305757762    0.02957462818584972    
  0.03847000946111982    0.05531278388927215    0.08257998724521352    0.12016701255822838    0.1617845644323299    
  0.19524948777490395    0.20818894149407524    0.13517000928030048    0.1274846106160411    0.10769260828636865    
  0.0830211666101066    0.06027726540527217    0.04314700507765333    0.032090682144443355    0.02601715132748217    
  0.02359544815121667    0.023831826798133372    0.025987202803594404    0.029293682807918612    0.03284907420319112    
  0.035585238420348324    0.03660411275562106    0.03558522651493225    0.032849091286450624    0.029293678241126886    
  0.025987212488855146    0.023831823675426873    0.023595454665980224    0.02601714682906453    0.03209068564080185    
  0.04314700218801078    0.06027727238775047    0.08302114800956828    0.10769261842301206    0.12748458748228722    
  0.13517000928030048    0.08917266067132694    0.08478144462644217    0.07341205966621898    0.059011128677805134    
  0.04535872096285872    0.03466099535873255    0.02746870619341732    0.023404251085666822    0.021807394016960618    
  0.022118375134327378    0.023831823403668337    0.02636353178236759    0.029010339324340176    0.03102102487283731    
  0.031772610797181994    0.031021018520836163    0.029010329253381817    0.026363528005935465    0.023831831410398227    
  0.022118378981568262    0.02180739402665709    0.02340424318872974    0.027468704724475258    0.03466099516262209    
  0.0453587133532075    0.059011140847538064    0.07341206233322418    0.08478145567691699    0.08917266067132694    
  0.06968422166897485    0.06662897496636917    0.058662655915989396    0.04845340140724862    0.03861759205279561    
  0.030733625857906084    0.025315251981862325    0.02226351947442568    0.021231283855253566    0.021807392492336316    
  0.023595451886599828    0.02610922241776677    0.028686335111228888    0.030630139128154005    0.031356964475283994    
  0.030630123580887313    0.02868634438168164    0.026109222679482465    0.02359545830396379    0.02180739254880767    
  0.02123129016213264    0.022263514726736197    0.025315255031480084    0.030733629193358744    0.03861759679077497    
  0.048453399703550504    0.05866265340463091    0.0666289804224388    0.06968422166897485    0.07443265581413297    
  0.07107976835405155    0.06227551383073502    0.05099746079788219    0.04023793666026985    0.031743461147781066    
  0.02604379578789472    0.023004033006112094    0.02226352343166378    0.02340424844499072    0.026017155843329916    
  0.0295746357792834    0.033258555478830935    0.03606862577532142    0.037124167471603416    0.03606862160543566    
  0.03325854172729607    0.02957462934356477    0.026017160825716555    0.02340425578296058    0.02226352031228328    
  0.023004038183923395    0.026043790213188568    0.03174345891781199    0.04023793559698637    0.05099745921470612    
  0.062275531000117644    0.0710797581781116    0.07443265581413297    0.11009540742004735    0.10425247638510157    
  0.0889829319599297    0.06979441071468635    0.05205103177666912    0.03867245009114506    0.030218180520318907    
  0.026043791625587887    0.025315253519952056    0.027468705758856692    0.03209068417335347    0.038470020722744386    
  0.04529378750375407    0.050629420430382724    0.052652962532601794    0.05062940678085028    0.04529379543540001    
  0.03847001728077009    0.03209069187270827    0.02746870371510647    0.025315253898197436    0.02604378960061571    
  0.030218181044171035    0.03867245396662627    0.052051033197410626    0.06979439745550448    0.0889829256537598    
  0.10425247867680505    0.11009540742004735    0.1969517538975385    0.18475501658316754    0.15299926931380967    
  0.11371061560772695    0.07862916293920244    0.0535551121352947    0.03867245604907669    0.03174344868920644    
  0.03073363341638259    0.03466098723496832    0.04314701082262618    0.05531278295124377    0.06883989104108895    
  0.07973233272723737    0.08392580050433367    0.07973230302647831    0.06883988990814444    0.055312774961525736    
  0.04314701618736043    0.03466099988925771    0.030733634686239204    0.03174345282595061    0.03867245711490508    
  0.05355511927527865    0.07862915133852125    0.11371063180920381    0.15299925625792046    0.18475500761417565    
  0.1969517538975385    0.34669212802046173    0.32646008688659184    0.26961033042439486    0.1941825199218141    
  0.12584327783861346    0.07862915638909725    0.052051026790040096    0.04023793576282185    0.038617580325701985    
  0.045358709939920396    0.06027726181873908    0.08258000640650476    0.10826683521378892    0.12946394329245103    
  0.13774089089970484    0.12946392025780676    0.10826682888424773    0.0825799955699584    0.060277278371425    
  0.04535871511793942    0.038617585418224715    0.040237931708366474    0.05205103189831734    0.07862915068203995    
  0.1258432759214825    0.19418250271230836    0.26961035528299426    0.3264601344728967    0.34669212802046173    
  0.457957507769612    0.4529519721029568    0.4088959770234678    0.30704712197031553    0.19418251133447753    
  0.11371059584349458    0.06979438692004426    0.05099743583259659    0.04845339997530146    0.05901111599511207    
  0.0830211607383048    0.12016703005820045    0.16391875714486442    0.2003120902121449    0.21458279433076205    
  0.20031208850262341    0.163918725385965    0.12016702347613209    0.08302117003138831    0.05901113046036799    
  0.04845340046718719    0.05099743910545797    0.06979439148943745    0.11371061374538333    0.194182533299689    
  0.3070471006349692    0.40889600543318316    0.45295202226384346    0.457957507769612    0.3408335351475765    
  0.3885554303182298    0.4579019777740255    0.4088959999660599    0.26961034979453113    0.15299928482958525    
  0.08898292611022422    0.062275517637717034    0.05866264024850206    0.07341205075874031    0.10769259773486349    
  0.1617845670434832    0.22561413257412502    0.27767958519998404    0.2976552003675995    0.27767956118818715    
  0.22561410341443935    0.1617845583643787    0.10769260950103496    0.07341205380157388    0.05866265519285408    
  0.06227550711176259    0.08898293478336534    0.15299926555453106    0.2696103539561757    0.40889602728411567    
  0.45790204789769295    0.3885554665574944    0.3408335351475765    0.15052843484556727    0.21758892115662457    
  0.38855545417438203    0.4529520456481132    0.3264601195787606    0.18475500657624538    0.10425249713668663    
  0.07107974741053068    0.06662897699265356    0.08478143818444596    0.12748463492746084    0.195249485518902    
  0.2740151650154005    0.33547288296289757    0.35797411078511215    0.3354728394388082    0.2740151526787091    
  0.1952494726120193    0.1274846098374527    0.0847814335806298    0.06662898176106564    0.07107974899944743    
  0.10425249931267279    0.18475500070411743    0.3264601406956933    0.4529520646612091    0.3885554675090727    
  0.2175889558704003    0.15052843484556727    0.08956669166862197    0.1505284601708328    0.34083348856772916    
  0.4579575352984317    0.34669214214820826    0.19695178728171858    0.1100954066311734    0.07443265643962489    
  0.06968421688711648    0.08917264999063206    0.1351700104911661    0.20818896655679567    0.2921868765548962    
  0.35601458412609166    0.37871927245282855    0.35601455700779583    0.29218683202075585    0.20818892832427552    
  0.13517001150602095    0.08917265325952463    0.06968422506492818    0.07443264360889844    0.11009540517774742    
  0.19695178175838826    0.3466921723283733    0.45795755477415895    0.34083353450994325    0.15052844109115243    
  0.08956669166862197    0.14662126380954507    0.21395169193075061    0.3879510045041641    0.4566816432187417    
  0.3298887436914548    0.1850149943924732    0.10137210841230668    0.06483462972350784    0.05500390678215236    
  0.06272120382405455    0.08606472250277873    0.12420286738261758    0.17018860079534082    0.20872021622237436    
  0.22384017090936392    0.20872020371806527    0.17018858005849913    0.12420286632756791    0.08606471379754112    
  0.06272121773833553    0.05500390483090458    0.06483462698249529    0.10137210451048753    0.18501498425918367    
  0.32988872845959283    0.4566816470482044    0.3879510596436117    0.21395169336770575    0.14662126380954507    
  0.21322229475825633    0.2796515064101562    0.4236035886314298    0.44558985236450416    0.30978958267868345    
  0.17360536615949324    0.09612896199416693    0.06211175806613289    0.05289586942894354    0.06011126247002594    
  0.08189663239153439    0.11733938845687886    0.159933510173938    0.19572531134236623    0.20983054921287406    
  0.1957252794541979    0.1599335102193574    0.11733935558889068    0.08189663839202503    0.0601112525073601    
  0.05289587859440645    0.0621117631322831    0.0961289525201434    0.17360535763414633    0.30978961092334406    
  0.4455898369016576    0.42360361485370657    0.2796515209918708    0.21322229475825633    0.3848037689577666    
  0.4214435526514062    0.4609410442394318    0.3920022375104922    0.25459195828275577    0.14391945950308765    
  0.08237355238350685    0.05491848586464832    0.04737736078004019    0.05330993666968597    0.0710573582789413    
  0.09955737176204905    0.13348968104490305    0.16196553897413024    0.1732402894073498    0.16196555201105403    
  0.13348966343901936    0.09955737228792041    0.07105736870198572    0.05330994484327406    0.04737736860483404    
  0.054918482162190314    0.08237354263263864    0.14391945842913936    0.2545919740789052    0.39200220676643704    
  0.4609410061861527    0.4214435382320701    0.3848037689577666    0.4514973926477099    0.4416035999139949    
  0.3902747430874816    0.2894969723529292    0.1830821944740023    0.10733385023593847    0.06507159777154188    
  0.04564541823116823    0.04021914961968554    0.04455222932034647    0.057299366103026356    0.0773198816359453    
  0.10072123078292534    0.12012865465875067    0.1277409257766313    0.12012862415495003    0.10072124932556867    
  0.07731986988124841    0.05729938633801701    0.04455223902209115    0.04021915454363338    0.04564541908116264    
  0.06507161112480811    0.1073338423918623    0.18308218604515586    0.28949693928850345    0.39027474365343723    
  0.44160358724280957    0.4514973926477099    0.32666855086134006    0.30728316858152693    0.25346510127627464    
  0.18298548967812042    0.11934015311632687    0.07486163650264473    0.04910959170147328    0.03674744472284074    
  0.033204056305201256    0.036053274807337866    0.04428496075730794    0.056811103787273214    0.07105602369685934    
  0.08264101726877936    0.08712980139620816    0.08264099820960837    0.07105603319382911    0.05681109569851902    
  0.04428496733298048    0.03605327641965461    0.033204053698830296    0.0367474477320662    0.04910958712160329    
  0.07486164556503712    0.11934016088497015    0.18298547505804408    0.25346510682136686    0.30728311901580496    
  0.32666855086134006    0.1870386938876354    0.1756172456101211    0.14588389643048633    0.10900194159826106    
  0.07585752138247534    0.05183796143226831    0.037155338085676046    0.029743141345781002    0.02752963109934581    
  0.02924184330927898    0.034171861236291026    0.041419217947787294    0.049392280173268646    0.05573123504948393    
  0.05815350095021077    0.055731216749954224    0.04939227475737455    0.04141920212037732    0.0341718722385301    
  0.029241844325183893    0.02752963876503867    0.02974313675146496    0.03715534222728447    0.051837955366639155    
  0.07585752692350084    0.10900195647207955    0.1458838955302055    0.17561725369269632    0.1870386938876354    
  0.10953105513244699    0.10372251466313484    0.08863266563379313    0.06966095831500568    0.05199368633843268    
  0.03853241027138034    0.02981690875677458    0.02516621193737153    0.023673926145047746    0.024645005546398358    
  0.027540501769427867    0.03169481737625498    0.03611889502661633    0.03954888992816665    0.04084286068389088    
  0.03954887448955687    0.03611890391419579    0.031694814188224674    0.027540503601145627    0.0246450072243671    
  0.023673924336025887    0.025166210432502407    0.02981690456583502    0.038532420521182456    0.05199367535257713    
  0.06966097284491252    0.08863266073607141    0.10372253470487905    0.10953105513244699    0.08113971089635942    
  0.07731123799052739    0.0673606401075248    0.05469533098517255    0.042614827193835074    0.03308953702882663    
  0.026643644947341883    0.023012649055208258    0.021710863684775844    0.022227634947267795    0.024093961189092534    
  0.02678275108953095    0.02959069047307737    0.03172375531548134    0.032515448022630795    0.0317237465245184    
  0.029590681520322015    0.026782742621877773    0.024093967766028436    0.0222276334388535    0.021710866087251278    
  0.0230126477722207    0.02664364668635502    0.03308953437427159    0.042614836351903086    0.05469533048055417    
  0.0673606487151191    0.07731122706854027    0.08113971089635942    0.08588328529775369    0.08172939949652946    
  0.07094951056695954    0.0572707018325165    0.04426653850329437    0.034019346676642366    0.02706903669682289    
  0.023100654169799048    0.021516253507133317    0.02175050915584589    0.02329865827920039    0.0256261295829637    
  0.02807416828989963    0.02993319772666621    0.030625130029874107    0.029933192427072472    0.028074166310744084    
  0.025626127023293366    0.023298661067305104    0.021750513898520077    0.021516247669864576    0.023100662557900588    
  0.027069031875185803    0.03401935524503722    0.044266540351014655    0.05727071331032204    0.0709495130048807    
  0.08172941910749577    0.08588328529775369    0.12337235242320503    0.1165727872766211    0.09895819438466519    
  0.07691061872119681    0.05652525333367634    0.04100746882158438    0.030857789992959024    0.02519692616968574    
  0.0228553435311081    0.022912886941559282    0.024687376827897334    0.02748570841363409    0.03051245391875866    
  0.03284953049252635    0.03372403563332538    0.03284952379029976    0.030512451264165692    0.02748570922659445    
  0.024687381398964366    0.022912890623263023    0.02285535161583554    0.025196925401121412    0.030857792859277797    
  0.04100747441222108    0.056525249977106985    0.07691062029440995    0.09895818611758006    0.11657277547878064    
  0.12337235242320503    0.2023037899038159    0.18985094751991935    0.15744046363715525    0.11711745549254687    
  0.08078353766569335    0.054317677112853395    0.037838785140047744    0.02902125633355108    0.02542588064035422    
  0.025369335386948817    0.027814245730160454    0.03183365737945154    0.0362996920677399    0.039800243859285774    
  0.04111923354154914    0.039800231153191465    0.03629968841333867    0.03183365937608232    0.027814247948723194    
  0.025369346550394117    0.02542587999133836    0.029021264032982504    0.03783878346461843    0.054317688911350887    
  0.08078353880695435    0.1171174608974615    0.15744049055603512    0.18985096294532539    0.2023037899038159    
  0.31813692835164814    0.2990390640839367    0.24679923883231675    0.1787304569064989    0.11692412151985328    
  0.07323123728612109    0.0472900192524421    0.03402133026164323    0.028761542991533676    0.028615263833361597    
  0.03205426137412465    0.03789104174380193    0.04451223907557865    0.049797688642169075    0.051815461535026884    
  0.049797690045663215    0.04451224229157803    0.037891038827733745    0.03205426951295976    0.02861526842020438    
  0.028761548434886704    0.034021328610758905    0.04729002245644906    0.07323124138748976    0.11692412907073484    
  0.17873044256314857    0.2467992531262436    0.2990390656685119    0.31813692835164814    0.4226883916302528    
  0.4043383572284653    0.3435070467589133    0.24987305294275025    0.15881666317355098    0.09446916520274154    
  0.057437143824686315    0.039164756428995126    0.032110255784277744    0.03192089227383684    0.036493742104690904    
  0.044368098362239095    0.05342851765385912    0.06077835206164935    0.06364692871859683    0.060778343457109536    
  0.05342850649418229    0.04436809901131529    0.036493746904746806    0.03192089522244757    0.032110250141982856    
  0.039164752603468675    0.05743714687799183    0.09446916534685604    0.15881668023602655    0.24987311118575933    
  0.343507042788454    0.4043383761393603    0.4226883916302528    0.4641075911348774    0.4568718496359327    
  0.4091772964569628    0.30612921635682566    0.19323923148976335    0.11169321468299966    0.06544120030721778    
  0.043117722433184104    0.03464140358210605    0.03441984946170526    0.039877378244795134    0.049383391438912114    
  0.06044807084138901    0.0695070702012219    0.07305120571908885    0.06950707530853545    0.060448068718788286    
  0.04938339118937701    0.03987736850930942    0.034419843155096067    0.03464141069068725    0.043117718013929704    