#     DFTpy    
  CRYSTAL 
    
  PRIMVEC    
  4.644137931034483    0.0    0.0    
  0.0    4.644137931034483    0.0    
  0.0    0.0    2.558620689655172    
  PRIMCOORD    
  4    1    
  Si    0.0    0.0    0.0    
  Si    2.3220689655172415    2.3220689655172415    1.279310344827586    
  Si    0.0    2.3220689655172415    0.639655172413793    
  Si    2.3220689655172415    0.0    1.9189655172413789    
  BEGIN_BLOCK_DATAGRID_3D    
  3d_datagrid_density    
  BEGIN_DATAGRID_3D#0    
  21    21    11    
  0.0    0.0    0.0    
  4.644137931034483    0.0    0.0    
  0.0    4.644137931034483    0.0    
  0.0    0.0    2.558620689655172    
  0.050662399318915634    0.09376733599478337    0.2559065746181222    0.43525376807541394    0.4633268061639906    
  0.42591287572945524    0.4152365829488115    0.42964293961719235    0.42692293261353914    0.3920515347622293    
  0.3698382275697081    0.3920515145688558    0.4269228302275453    0.4296428669751372    0.41523660190671324    
  0.42591284568096516    0.4633268493748742    0.43525387321493847    0.2559065117948217    0.0937672905133574    
  0.050662399318915634    0.0937673771453055    0.14462379831102265    0.29984406855415097    0.4347566914878066    
  0.43626453276784705    0.39542867051685704    0.38544932965465173    0.40284730495140775    0.4117520181652473    
  0.39357642525046393    0.3788751641822898    0.39357639937236527    0.4117519980601638    0.40284733016524776    
  0.38544924856757334    0.39542872484506736    0.43626444490688304    0.4347566518805637    0.29984405887268945    
  0.14462377020234954    0.0937673771453055    0.25590660539790244    0.29984408585802896    0.3863471349357755    
  0.4115221685340589    0.36617785029217037    0.32226446198105396    0.3139051367729774    0.33501159531556146    
  0.36290494332816065    0.37595254831194147    0.3767788207451268    0.37595259599491965    0.36290490524806546    
  0.3350116277975352    0.31390505962416443    0.3222645052166669    0.3661778627573397    0.4115221328259374    
  0.3863471772536204    0.2998441242992446    0.25590660539790244    0.4352539073302421    0.4347565609040042    
  0.41152208629548487    0.3503580809164088    0.2832831096908052    0.24282315656237774    0.23607132837299016    
  0.2564638406493192    0.290922994106507    0.32024347294167854    0.33077182670436434    0.32024336693418914    
  0.2909229215798202    0.2564638487366265    0.23607126921559157    0.24282311343970403    0.28328308925152296    
  0.3503581283856971    0.4115220738325834    0.434756706818789    0.4352539073302421    0.463326995759378    
  0.43626456108364725    0.36617797680607445    0.28328319406609476    0.21833262272457105    0.18373265157381174    
  0.17794398488842242    0.1953093131214827    0.22651509233945608    0.25623496618691877    0.2684013068200938    
  0.25623502969603257    0.22651514854308197    0.19530932527891823    0.17794398655455282    0.18373270380074144    
  0.21833261056844805    0.2832832307145283    0.3661778668757373    0.43626447568385673    0.463326995759378    
  0.42591293981607004    0.39542859639470473    0.3222644634377402    0.24282308382750348    0.18373257936485812    
  0.15268049339360992    0.1472590317965462    0.16262082200181088    0.19041819329137527    0.21761461570663376    
  0.2292255504703128    0.2176146355834572    0.19041812610894332    0.16262080915642554    0.14725907286730036    
  0.15268052182337857    0.1837326529404723    0.24282317189921515    0.3222644334354635    0.3954285312426581    
  0.42591293981607004    0.41523680298743293    0.38544926679297375    0.31390507560308584    0.2360714284359039    
  0.17794400449177414    0.1472590988169265    0.14186589071212907    0.15714191594607688    0.18498535146146647    
  0.21241327566920548    0.22419745518827378    0.21241331112680695    0.18498542913935795    0.15714189636766257    
  0.14186588646742082    0.14725915807366655    0.17794394144014522    0.236071457010492    0.3139051129125077    
  0.3854492947374143    0.41523680298743293    0.42964287161388964    0.4028472212248591    0.33501157422022293    
  0.2564638431700654    0.19530926828938494    0.16262080306585946    0.15714184000214063    0.17410372950256015    
  0.2052839160747258    0.23614311386033673    0.2492481008145009    0.2361431881227791    0.20528391102663776    
  0.17410378624740597    0.15714179542200743    0.1626208113362587    0.19530927778297405    0.2564637768352572    
  0.3350115706947383    0.4028471197482739    0.42964287161388964    0.4269229150543408    0.4117519710050112    
  0.3629049816637075    0.2909229410478021    0.22651510738024597    0.19041816597255912    0.18498529008604964    
  0.2052839336013574    0.2423013394029241    0.27876958963441173    0.29404648447450266    0.27876959392812034    
  0.24230125710862505    0.20528399771779313    0.18498529572376585    0.1904182195721786    0.2265150926646225    
  0.29092299529129256    0.3629049131404978    0.4117520231605632    0.4269229150543408    0.39205160240220344    
  0.3935764548107676    0.3759526929932947    0.3202435112584736    0.2562350256086914    0.21761465777208777    
  0.21241333105072913    0.23614321902838148    0.2787695965617648    0.3206248784362803    0.3380653798789761    
  0.3206248738039075    0.27876956633155575    0.2361431737477231    0.21241327867538165    0.2176147337332438    
  0.2562349910477647    0.3202435517512486    0.37595261664093127    0.3935763666005782    0.39205160240220344    
  0.36983824320314296    0.3788751288364751    0.37677888249847463    0.33077169663906936    0.2684012690901379    
  0.2292254983929171    0.22419739297382393    0.24924808853086441    0.2940464280938965    0.3380654847584795    
  0.3564216546061138    0.33806538697162336    0.2940463087656621    0.24924814363179998    0.2241972913691462    
  0.22922550512892212    0.26840131553575447    0.33077173679898453    0.3767787753423639    0.3788750322796944    
  0.36983824320314296    0.3920515891055563    0.3935764100396712    0.3759526390077059    0.3202434817224244    
  0.25623507504331117    0.21761463457154645    0.21241328273155158    0.23614320156774787    0.2787695716576861    
  0.32062486945370805    0.33806541938449597    0.3206248574301996    0.27876967802895747    0.23614323268294604    
  0.21241331218373702    0.2176147055026989    0.2562350097351142    0.32024340352769076    0.3759526465949065    
  0.3935764294814533    0.3920515891055563    0.42692286042341454    0.41175205607770865    0.3629049486406921    
  0.2909228672705119    0.2265151083149059    0.19041814097596543    0.18498535240008013    0.20528398793003377    
  0.24230129484331395    0.2787695515118819    0.2940463540039318    0.2787695682320993    0.24230128452403393    
  0.20528397222093198    0.18498531697519213    0.19041819184438005    0.2265151221848235    0.29092293715793416    
  0.36290495766909664    0.4117520627878583    0.42692286042341454    0.42964285130195295    0.4028471657504937    
  0.33501147745215903    0.25646378089551286    0.19530924313663625    0.1626208216110787    0.15714183323412936    
  0.17410375215246876    0.20528392505314144    0.23614319879006623    0.24924809537254428    0.23614308859199307    
  0.20528393121225122    0.1741037593904184    0.15714177681498043    0.1626208425770626    0.19530925442090133    
  0.2564638307459972    0.3350115913913811    0.40284726244720204    0.42964285130195295    0.4152367697376995    
  0.38544926458459433    0.3139051799809273    0.23607144670762872    0.17794398028870956    0.14725909460158262    
  0.14186589671799194    0.15714192599671703    0.1849853523483236    0.2124132918946267    0.2241974781971296    
  0.21241331729854857    0.18498538989118543    0.15714187049628336    0.1418658501796464    0.14725913272584307    
  0.17794398613776607    0.23607144949264944    0.3139050721775652    0.38544917915085003    0.4152367697376995    
  0.4259129199795269    0.39542856243959534    0.3222644630198356    0.2428230948808167    0.18373261504183785    
  0.15268051649291717    0.14725903148361785    0.16262083601256785    0.19041815161642714    0.217614618933757    
  0.2292255567204852    0.21761459527001858    0.19041812614937312    0.16262078994592755    0.14725905867319541    
  0.1526805042136407    0.18373262889320913    0.2428231545997583    0.32226440591066785    0.39542860427587173    
  0.4259129199795269    0.46332699986508746    0.4362644877067085    0.36617784347672105    0.2832831476695084    
  0.21833263997333938    0.18373263177658247    0.17794397529128855    0.1953093602873454    0.22651512030145465    
  0.256234974126062    0.26840130348891933    0.256235071789976    0.22651514643021942    0.1953093173267639    
  0.17794396466795193    0.18373266134682023    0.21833259275017397    0.28328319095340626    0.36617780494732083    
  0.43626457183311373    0.46332699986508746    0.4352538942979322    0.43475656647020483    0.4115221002056479    
  0.3503581324834884    0.2832831300939295    0.2428231160820863    0.23607135524398212    0.2564638412790407    
  0.29092299393845833    0.3202434217013579    0.330771804263938    0.32024349813149605    0.29092290125704534    
  0.25646389446003276    0.236071310730386    0.24282317163044795    0.2832831184515365    0.35035809174101534    
  0.41152213506328716    0.4347566249592028    0.4352538942979322    0.2559065342525539    0.29984410166789505    
  0.3863472235677421    0.4115221259584393    0.36617789605392814    0.3222644544339316    0.3139050859809092    
  0.335011643114727    0.3629050064553651    0.37595256527882004    0.37677894937821244    0.3759526355848599    
  0.36290493504332466    0.3350115493694729    0.3139050214891444    0.3222644738883576    0.36617787301831156    
  0.4115220746234638    0.38634718288709424    0.2998441472526901    0.2559065342525539    0.09376738197190525    
  0.14462379222710883    0.2998441079790326    0.43475667707469823    0.43626450595415384    0.3954287162763775    
  0.38544922528321934    0.40284731283308045    0.411752026298561    0.3935763226450181    0.3788750888938775    
  0.39357644519703033    0.41175198457780593    0.4028472166155173    0.38544923753895    0.3954287746572525    
  0.43626443566062945    0.4347567589507046    0.2998440553093016    0.14462376721105663    0.09376738197190525    
  0.050662399318915634    0.09376733599478337    0.2559065746181222    0.43525376807541394    0.4633268061639906    
  0.42591287572945524    0.4152365829488115    0.42964293961719235    0.42692293261353914    0.3920515347622293    
  0.3698382275697081    0.3920515145688558    0.4269228302275453    0.4296428669751372    0.41523660190671324    
  0.42591284568096516    0.4633268493748742    0.43525387321493847    0.2559065117948217    0.0937672905133574    
  0.050662399318915634    0.10191742096804596    0.15143296989496507    0.293956129353724    0.40357893356164154    
  0.38786134508461884    0.33787246961515266    0.3195519587197419    0.33654391765611974    0.37057377192094565    
  0.39910685809065954    0.40916259463289134    0.3991068631541192    0.37057373814301575    0.33654386581108126    
  0.31955199571252174    0.33787244627970636    0.38786138597884784    0.4035790693691634    0.2939560376201013    
  0.15143291872833103    0.10191742096804596    0.15562314619321158    0.206296774517514    0.33037267227601835    
  0.4014003407810333    0.36770219928113856    0.3163167729146308    0.2984851690957484    0.31469557807621656    
  0.3484812637152132    0.3783025660469155    0.38926686793484716    0.3783025488152822    0.3484812608553327    
  0.31469558503993855    0.2984851829184232    0.31631680883909224    0.36770213522568124    0.4014003004642635    
  0.33037259201766517    0.20629671473693134    0.15562314619321158    0.32005606537568715    0.35091435535923177    
  0.3968623388496432    0.38002531233631376    0.3158204867812909    0.2646340308946889    0.2483353887806285    
  0.2622753244312436    0.2937583546403316    0.3240220113006748    0.33593159139913786    0.3240220130569732    
  0.2937583345288352    0.26227533116433227    0.24833527851382042    0.26463408459731397    0.3158205199791062    
  0.3800253148061596    0.3968624076146764    0.35091437290836325    0.32005606537568715    0.4724526836531594    
  0.4604006266019464    0.41270769023554993    0.3322397641087955    0.2554692475101195    0.2087593498640704    
  0.19449227696112575    0.20579869777126586    0.23269123277670628    0.2597468112149754    0.27089468240955017    
  0.2597467535624534    0.23269124103490768    0.20579872586523712    0.19449217308356168    0.20875932865179067    
  0.25546930002167617    0.33223983088543485    0.41270766951900795    0.46040082239295277    0.4724526836531594    
  0.49620140333593155    0.4628056190020736    0.37929122074213484    0.2841315109831574    0.2103843529187191    
  0.16884514592434405    0.1561971244738274    0.16572374489364558    0.18837281596960456    0.2113426077512745    
  0.22107697184828753    0.21134262064154336    0.18837284900994472    0.16572370993870153    0.1561970898310189    
  0.16884519823482727    0.21038431683265957    0.28413151065563585    0.3792911114413016    0.4628055779328289    
  0.49620140333593155    0.4782158993256109    0.4418752568659854    0.35522032175600937    0.2618076962996727    
  0.19180795350440455    0.15271103216154877    0.14072377907237696    0.14957817291511688    0.1704239776130444    
  0.19156765222290245    0.20066100875034404    0.19156766718278956    0.17042393865506317    0.14957816541421193    
  0.14072377775057215    0.1527110337206373    0.19180798071442032    0.2618078402329959    0.35522026943674523    
  0.4418752385282915    0.4782158993256109    0.4860021990651482    0.4516311606494009    0.36730571025204817    
  0.27328099112825754    0.20127701717484636    0.1607987901147801    0.14842190607470768    0.15767250350151296    
  0.17970057188327165    0.20221233971973454    0.21186829524724254    0.2022123494309429    0.17970066501910198    
  0.1576724852392628    0.1484218719879641    0.1607988104589194    0.2012769904473285    0.27328106108464567    
  0.3673057180295388    0.4516311962525795    0.4860021990651482    0.4779215283154463    0.45814766007974633    
  0.39719043900335965    0.3112199937015267    0.23568746094940965    0.19104280192563597    0.1774975742807059    
  0.18833850220919965    0.2142642025221657    0.24087564970798378    0.2521265516302756    0.24087574585227048    
  0.2142641996217682    0.18833855729368254    0.177497530601328    0.19104282917582127    0.23568748040328857    
  0.31121990544850453    0.3971904290558484    0.45814759438343905    0.4779215283154463    0.3742789690775194    
  0.38985268588510197    0.3990315846133804    0.35478608680418044    0.2847140152474519    0.23555319748798653    
  0.22054706102246183    0.23426979212344962    0.26578067264094285    0.29767214731080865    0.31090734309551205    
  0.297672165710949    0.26578057105189584    0.23426983449004232    0.22054702052821884    0.23555325876980934    
  0.2847140063799231    0.3547860674184091    0.39903158647556825    0.3898527591980454    0.3742789690775194    
  0.23385979466501916    0.2764953072930681    0.3602113323764273    0.380232007473068    0.3280992241107204    
  0.27724933657448836    0.2611367364045402    0.27773309135424873    0.31396594807386635    0.349736596092686    
  0.364389710121564    0.34973658794934426    0.31396587736309967    0.2777330522537685    0.261136719285306    
  0.27724939003967025    0.328099249177056    0.3802320176494975    0.36021124486587286    0.2764952642049426    
  0.23385979466501916    0.1782101224004013    0.22619501834496805    0.33511359524973194    0.3859569974819634    
  0.3452341493814475    0.29475685615091785    0.2782941836137561    0.2959962178128696    0.3338765513301464    
  0.3708533873218637    0.3859517567316594    0.37085331343524064    0.3338764369476865    0.29599630136750793    
  0.27829408786063226    0.2947568410962923    0.34523424225629606    0.3859570678304417    0.3351135286122017    
  0.22619498576393113    0.1782101224004013    0.23385972190123291    0.2764952690322398    0.36021122730536154    
  0.38023190003742435    0.3280993111262079    0.27724933892486947    0.2611367607123682    0.27773304987702785    
  0.31396587430250794    0.3497366130786497    0.3643896902936189    0.3497365287783276    0.31396594154909213    
  0.27773307717054296    0.26113671934531413    0.2772493775115465    0.3280992365119471    0.3802318751925017    
  0.36021127009267473    0.27649532492530093    0.23385972190123291    0.3742788889765716    0.38985272984302477    
  0.39903159694731527    0.3547860148758373    0.2847140672477495    0.2355532223423333    0.22054709309515727    
  0.2342698403380823    0.2657806445989761    0.29767211477553795    0.31090726430123106    0.29767214744813486    
  0.26578067611707984    0.23426982945732658    0.2205470012435821    0.23555323932585942    0.28471406804644633    
  0.3547860362256032    0.3990316213734359    0.3898527975912797    0.3742788889765716    0.47792153356041905    
  0.45814760603540644    0.3971904047341219    0.3112199122809268    0.23568745981553843    0.19104283503872244    
  0.17749754323703962    0.18833854683781331    0.21426421820117658    0.24087575715921758    0.25212653292408166    
  0.24087567638832205    0.21426421729981399    0.18833851604801288    0.1774975254211369    0.19104282673740175    
  0.23568743785060306    0.31121992200264337    0.3971904383238069    0.4581477319876458    0.47792153356041905    
  0.48600220810296446    0.4516311890915314    0.36730581080398345    0.2732810498418696    0.20127702803654998    
  0.16079881961880557    0.1484219045916627    0.15767253920553928    0.17970061533648302    0.2022123610973979    
  0.21186829190418707    0.20221236688735023    0.1797006248815572    0.15767246743204935    0.14842189535853453    
  0.16079884057165422    0.20127699388750248    0.27328103834238365    0.36730572466020667    0.4516311673902218    
  0.48600220810296446    0.47821584054852795    0.4418752801192142    0.35522029411536205    0.2618077237786818    
  0.19180796038044068    0.15271104333295538    0.14072376152827581    0.14957818568575748    0.17042396009780228    
  0.19156763418462422    0.20066102268346375    0.191567608941701    0.17042393746794388    0.1495781488787177    
  0.14072378991075596    0.15271105950375033    0.19180801302484743    0.2618078450979499    0.35522028494817165    
  0.4418752836444101    0.47821584054852795    0.49620142392776806    0.4628055958159466    0.3792911762105596    
  0.28413144923690864    0.2103843373851891    0.16884516814283557    0.15619710067545434    0.16572375540771625    
  0.18837282261981939    0.21134260535299237    0.22107697872897733    0.21134264821505772    0.18837287017729926    
  0.1657237544094142    0.15619708106021543    0.16884519503236228    0.21038431274477437    0.28413149880157235    
  0.3792911345502094    0.4628057093267217    0.49620142392776806    0.47245269628939623    0.4604006774617031    
  0.4127076417619868    0.3322397843311394    0.25546926284940286    0.2087593277962257    0.1944922656445796    
  0.20579873075671282    0.23269121134407372    0.2597467864359107    0.27089466901988235    0.2597468736310684    
  0.2326912258229027    0.20579880598882763    0.19449223995014991    0.20875935749971816    0.25546928272478175    
  0.33223975011165935    0.4127077386321607    0.460400766306037    0.47245269628939623    0.3200560300902317    
  0.35091428250337275    0.3968624312709944    0.38002529121980344    0.31582051186673565    0.2646340244176419    
  0.24833537458190108    0.26227533850138873    0.2937583794317447    0.3240220479302045    0.3359316367262766    
  0.32402207950263057    0.2937583186469343    0.262275245175754    0.24833530688564295    0.2646340355900285    
  0.3158204924728143    0.3800253442914387    0.3968623917305495    0.3509143438142226    0.3200560300902317    
  0.1556232101405632    0.20629682115054124    0.3303727109792907    0.4014003291635609    0.3677021501756831    
  0.3163167668783365    0.29848513975345736    0.31469563735336403    0.348481225793365    0.37830247440181514    
  0.3892667760388511    0.37830255013812114    0.34848130207345995    0.3146955048548675    0.298485078995845    
  0.31631684278478545    0.36770211671497227    0.40140042835482814    0.3303725961981647    0.20629674544656781    
  0.1556232101405632    0.10191742096804596    0.15143296989496507    0.293956129353724    0.40357893356164154    
  0.38786134508461884    0.33787246961515266    0.3195519587197419    0.33654391765611974    0.37057377192094565    
  0.39910685809065954    0.40916259463289134    0.3991068631541192    0.37057373814301575    0.33654386581108126    
  0.31955199571252174    0.33787244627970636    0.38786138597884784    0.4035790693691634    0.2939560376201013    
  0.15143291872833103    0.10191742096804596    0.2807196489552339    0.3135777638969113    0.36775582762032943    
  0.36153080283722205    0.3042966447640021    0.2577631399101931    0.24609846014077624    0.26642225685394866    
  0.30702227307649743    0.34758746152149367    0.3645756953726152    0.3475874474373002    0.3070222441185841    
  0.266422257876582    0.2460985084762705    0.25776310655402657    0.304296682978826    0.36153085867702894    
  0.3677557618115318    0.31357767354103533    0.2807196489552339    0.3248325465620048    0.34871484322037166    
  0.37896869233966585    0.35273758322423143    0.28987950305020194    0.24361373177876058    0.23205282035600622    
  0.25117319234664964    0.28973030103608033    0.3283200115292214    0.3444539218888738    0.3283199710430174    
  0.2897303717059692    0.2511732190211901    0.23205280875946158    0.24361377504025877    0.2898794707133278    
  0.35273760749956806    0.37896865172241667    0.34871485311644873    0.3248325465620048    0.41604236463222954    
  0.4142575329028453    0.38833432273301677    0.3241797268969268    0.25403068309987836    0.21020470596105326    
  0.199105383220565    0.21506937447316782    0.24822801509270412    0.2816653015304378    0.2957107180848732    
  0.28166531513092047    0.2482279765927347    0.21506938659839556    0.1991053443588033    0.21020477710021748    
  0.2540306865305401    0.32417973479532725    0.3883343346623909    0.41425755688617594    0.41604236463222954    
  0.46367733109220693    0.4384977240640255    0.3702209444028499    0.2849380253757203    0.2149339613818347    
  0.175237644328644    0.16482053232625757    0.17767558278259338    0.20502623551984556    0.23278535289673521    
  0.24460554544910657    0.2327852754515259    0.20502623778599463    0.17767558212910295    0.1648205016979998    
  0.1752376360011847    0.2149339651434974    0.284938146229194    0.37022091473286955    0.438497858806219    
  0.46367733109220693    0.45739656617066543    0.4243402160811125    0.34433137297066396    0.25649359040531716    
  0.1900305321153533    0.15337824393493854    0.14353334604662943    0.15475140643186203    0.17851893451318027    
  0.2025011158205195    0.21283731973845346    0.20250114018935172    0.17851896273951892    0.1547513483199869    
  0.1435333259223139    0.15337823748979149    0.19003050992409418    0.25649354313797673    0.34433127689136406    
  0.42434032347475326    0.45739656617066543    0.45952216081063685    0.4253300937552604    0.34356120681890173    
  0.2551269880844168    0.18897909270444466    0.15269268981903011    0.14294173739075433    0.1539559021186033    
  0.1770785627678922    0.20021349474035088    0.21014031184607482    0.2002134686123344    0.17707853372643592    
  0.15395586908428333    0.14294171452215107    0.15269268619681758    0.1889791303278451    0.2551270791013149    
  0.34356114862455944    0.4253300715067175    0.45952216081063685    0.4875237411883411    0.4568883689437349    
  0.3786995556367854    0.2875785175146345    0.21629308353174095    0.17675732109944575    0.16630683429080387    
  0.17850874142189044    0.2042022246401372    0.22957337402114186    0.24014913894990336    0.2295733911800004    
  0.2042022448563306    0.17850872869692522    0.1663067999902856    0.17675730222612424    0.2162930627111321    
  0.28757849689935755    0.37869952139143104    0.4568883727178214    0.4875237411883411    0.4550324084297499    
  0.45020552981317946    0.41678893813452866    0.3457273291158141    0.2720398766213158    0.22668562658670344    
  0.21461801555177487    0.2291348765853108    0.25911329648690457    0.28746886584094433    0.2985702992471107    
  0.2874689452229072    0.25911330326286575    0.2291349327629451    0.21461797287143516    0.2266856365643963    
  0.27203993011672795    0.3457273117812279    0.41678898784806045    0.45020543731557844    0.4550324084297499    
  0.27598128079309026    0.31629297160527586    0.3898345657455307    0.39898422253806654    0.34413195622659754    
  0.2947006809277951    0.28051219537938776    0.2971586637747404    0.3284651347759045    0.3538482237717845    
  0.36223706449114096    0.35384822919909487    0.32846508163627    0.29715866017311626    0.2805121561323857    
  0.2947007107313742    0.3441319107698647    0.398984201729349    0.38983455067066214    0.31629304745353615    
  0.27598128079309026    0.1089451356390491    0.1601095080419944    0.30603062940822806    0.4185440952627884    
  0.40508658027723027    0.35728911681682185    0.34144146199263736    0.35861729489456956    0.3854195292352777    
  0.3994651081731574    0.40129929277639265    0.399465028258223    0.3854194366786391    0.35861725420561336    
  0.34144134325913567    0.35728919219086747    0.40508657376338436    0.4185440940918632    0.3060306018846638    
  0.16010951862857067    0.1089451356390491    0.06215985730660798    0.10722421260432166    0.26334533550402145    
  0.41840999671283413    0.428556682966041    0.3833245081495844    0.3669274840650965    0.3837828554409276    
  0.4069270479830642    0.4137858376691088    0.41182651957481536    0.41378574892128106    0.4069269827278149    
  0.38378294591006495    0.36692734677083516    0.38332452439619086    0.4285567352376566    0.4184101573614212    
  0.2633452476837137    0.10722417319328154    0.06215985730660798    0.10894509299652014    0.16010951522809655    
  0.3060305755689387    0.4185439814114273    0.4050866704521199    0.35728914456459443    0.34144144041321467    
  0.35861719237224604    0.3854194447842418    0.3994650784528138    0.40129934016952545    0.3994649840912542    
  0.38541951527734364    0.3586172522097739    0.34144142191755505    0.35728921979779626    0.4050865989047146    
  0.41854400510542417    0.3060305660098991    0.16010953254521748    0.10894509299652014    0.2759812417671794    
  0.3162930520628502    0.38983460121187913    0.39898415292009914    0.3441319459510408    0.2947006250684588    
  0.2805122108541474    0.29715861689135514    0.32846511267539413    0.3538481800775981    0.362236984969019    
  0.35384817662578427    0.3284651652988445    0.29715867666912177    0.28051215071252616    0.2947006918076931    
  0.3441319240554418    0.3989841720099922    0.38983454458755773    0.3162930815952579    0.2759812417671794    
  0.45503234623878885    0.45020537362628293    0.41678891042752747    0.3457273457118873    0.27203988608598056    
  0.2266856235487728    0.21461797069846314    0.22913489553260435    0.25911334972845806    0.287468928933943    
  0.2985703652405695    0.2874688365620773    0.25911336307086774    0.22913488521924877    0.21461794175174098    
  0.22668561097199105    0.2720398916706356    0.34572737367060424    0.41678889988032447    0.4502055422768734    
  0.45503234623878885    0.48752379645478344    0.4568883506009335    0.3786996489479381    0.2875785392512487    
  0.21629309214364    0.17675732048253126    0.16630683999553494    0.17850876546636033    0.2042022324853472    
  0.22957341032009573    0.24014918137418995    0.22957338596353105    0.20420224934152115    0.17850870562096988    
  0.16630677917217565    0.1767573702882816    0.21629308695684854    0.28757854184074594    0.37869948184502306    
  0.4568883612869395    0.48752379645478344    0.4595221114477487    0.425330122606968    0.34356118383407025    
  0.2551270326337774    0.18897909392173476    0.15269268577515172    0.14294173171824634    0.15395585195449846    
  0.1770785530645021    0.2002134495711996    0.21014028992357334    0.20021345031461305    0.1770784848925631    
  0.15395587657815232    0.14294171009083587    0.15269268624762766    0.18897914445278707    0.25512709377865533    
  0.3435611153339032    0.425330121851312    0.4595221114477487    0.45739649304366425    0.4243402722894725    
  0.34433132544015066    0.25649350628083123    0.1900305131586791    0.15337824073242332    0.14353334332137355    
  0.15475135606522827    0.1785189193128644    0.20250111148876113    0.2128373461934528    0.2025011570471106    
  0.1785189660860543    0.1547513502818812    0.14353330938995232    0.15337825984068174    0.19003047668586676    
  0.2564935529408413    0.3443313174090641    0.4243402854003304    0.45739649304366425    0.4636773291041592    
  0.438497794086726    0.37022093880090284    0.2849381510218395    0.21493396542966575    0.17523765045834028    
  0.16482056564084363    0.17767560472081137    0.20502622475060514    0.23278531415919534    0.24460557281901985    
  0.23278536803358005    0.20502623181141405    0.17767566745035038    0.1648205242270539    0.175237642886859    
  0.21493397462058375    0.2849380629399993    0.37022096477639443    0.4384977598057395    0.4636773291041592    
  0.416042301449835    0.4142574976551459    0.3883344085447671    0.3241796697304162    0.25403064715029167    