#     DFTpy    
  CRYSTAL 
    
  PRIMVEC    
  4.541903980957754    1.9001643168043448e-05    -4.764062068965517e-13    
  -2.2709355345722235    3.93341384362457    -9.321120689655172e-12    
  -7.83391724137931e-13    -1.8149608965517238e-11    7.467595857409383    
  PRIMCOORD    
  4    1    
  Si    1.1306545162281276e-05    2.622282043850925    4.199580484444724    
  Si    2.270957139835046    1.3111508013846387    0.46578250059756315    
  Si    1.1306546868645769e-05    2.6222820438498426    7.001813301665693    
  Si    2.2709571398424164    1.3111508014137698    3.268015428091191    
  BEGIN_BLOCK_DATAGRID_3D    
  3d_datagrid_density    
  BEGIN_DATAGRID_3D#0    
  21    21    33    
  0.0    0.0    0.0    
  4.541903980957754    1.9001643168043448e-05    -4.764062068965517e-13    
  -2.2709355345722235    3.93341384362457    -9.321120689655172e-12    
  -7.83391724137931e-13    -1.8149608965517238e-11    7.467595857409383    
  0.019598832789020065    0.020418771954748127    0.023241420864568946    0.029168924574039284    0.04032284336327108    
  0.06012872698822769    0.09236516227499021    0.1383295885480825    0.19213277419126323    0.23774963532374432    
  0.25588580382459614    0.23774960565323852    0.19213278418551483    0.1383295550678992    0.09236516741431065    
  0.060128734143727935    0.04032284650643437    0.02916893109862432    0.023241421685658285    0.020418771425316496    
  0.019598832789020065    0.020418769666770694    0.020418015002802582    0.02224463275769971    0.026667616181803695    
  0.035429793525893295    0.05161795594947873    0.07943339935517994    0.1222932077318817    0.17840599830930978    
  0.23559523462566928    0.2728505036140931    0.2728541588189737    0.23561162516246503    0.17839839112032388    
  0.12228616850463528    0.0794430441992548    0.051617570097036124    0.03542931209014527    0.02666854029016494    
  0.022244019843101374    0.020418769666770694    0.023241422131482562    0.022244627054206503    0.023241456114652868    
  0.026668251787322766    0.03406960636759983    0.048542493905425435    0.07494459351480733    0.11882841670595741    
  0.182058931100231    0.2554560987435779    0.3164161438862886    0.34021686056972616    0.3163974984250464    
  0.25545618446835694    0.18208197363008666    0.11882746523362414    0.07493899304621647    0.04854541898426384    
  0.0340699978562243    0.0266685437315717    0.023241422131482562    0.02916893088311423    0.026667617491668627    
  0.026668257002676606    0.029167935872165904    0.03543010692079354    0.04854524076832051    0.07394545456307086    
  0.11939425562535355    0.1908557870754364    0.28137405751076944    0.364124987827935    0.4101982989149124    
  0.41022699118342787    0.3641247169512433    0.28136506286719487    0.19085784836980899    0.11939897608650751    
  0.07395210863166764    0.04854541430460756    0.03542931076436519    0.02916893088311423    0.04032284688835216    
  0.035429786562061874    0.034069600961049794    0.03543010819299994    0.040321762954141555    0.051616202650378536    
  0.07494412095781791    0.11939571851615087    0.19489111353371485    0.2975564754888472    0.3912531436893178    
  0.4360345529264926    0.44346769560522015    0.43604993136980214    0.3912821244299454    0.2975513616607293    
  0.19489804820727402    0.11939896337874845    0.07493899063119637    0.051617565873891366    0.04032284688835216    
  0.060128736367250635    0.051617945615558915    0.04854249059310772    0.04854522787924915    0.05161618409512122    
  0.06013271884215601    0.07943280143194488    0.11883159924505675    0.1908598504021941    0.2975455595712936    
  0.39729013647766764    0.4235579948689503    0.39736852143995705    0.39735610889704015    0.42351487449674385    
  0.3973122048419016    0.29755138100020656    0.19085786398960375    0.1188274874013457    0.07944303039522713    
  0.060128736367250635    0.0923651547945089    0.07943337357064151    0.07494457989048228    0.0739454285671794    
  0.07494410654635834    0.07943279799962048    0.09237607839726372    0.1222824189198252    0.18207743806168347    
  0.28136105082639185    0.391284876306921    0.42354673547009863    0.3636607671348943    0.32381790067875993    
  0.36369807247934394    0.42351484765698355    0.3912821194900025    0.2813650762573778    0.18208195836517688    
  0.1222861716627323    0.0923651547945089    0.13832959673502668    0.12229318438411589    0.11882841248028159    
  0.11939423126206306    0.11939568896683513    0.11883158122646428    0.12228239184604943    0.1383383049807795    
  0.17840699869155413    0.2554637212853527    0.36412476118392967    0.4360434053658096    0.39736210556795226    
  0.32383248203007753    0.32381791972700097    0.3973561238798879    0.43604997645609683    0.3641247054800464    
  0.25545624132972355    0.17839844235744412    0.13832959673502668    0.19213277327441744    0.1784060229498935    
  0.18205891270735688    0.1908557464845649    0.1948910745371636    0.1908598073211771    0.1820774314756802    
  0.17840697995949925    0.19212827376723302    0.23562142417741969    0.31640707078680885    0.41023957732383265    
  0.44346800474628095    0.3973621028747796    0.3636607668125891    0.3973685445630183    0.44346769644464185    
  0.41022704378467967    0.31639747201051954    0.23561164858330114    0.19213277327441744    0.2377496418576674    
  0.23559524309004148    0.2554560837958074    0.2813740003366437    0.2975564287688124    0.29754551821643027    
  0.28136101436932087    0.25546370102594873    0.23562139183471936    0.23774525631363397    0.2728698911506888    
  0.3402044316922881    0.41023958721139    0.4360433819613085    0.4235467155409178    0.4235579953094193    
  0.4360345998840238    0.41019830858796824    0.3402168743499823    0.27285422798380965    0.2377496418576674    
  0.25588580648071496    0.2728505104902687    0.31641613919240774    0.3641249559317633    0.3912530954276297    
  0.3972900185619556    0.391284864662948    0.3641247421232972    0.3164070739873852    0.2728698640477042    
  0.25589592858155663    0.2728698888220434    0.31640708233091264    0.3641246865866096    0.39128491227697854    
  0.39729005696659364    0.391253110062028    0.36412497740213307    0.3164161360842967    0.2728505560198146    
  0.25588580648071496    0.23774965894150488    0.27285418906805275    0.34021688547671747    0.41019830605195257    
  0.4360345818778947    0.4235580431251495    0.42354675348316545    0.43604340827000637    0.4102395292775357    
  0.3402044245948828    0.272869821026896    0.23774524617531104    0.23562142158332963    0.2554636597141516    
  0.28136100778172435    0.29754552768760484    0.2975564455331443    0.28137399722607853    0.25545609149745624    
  0.2355952789055339    0.23774965894150488    0.19213277867290068    0.23561165156068972    0.31639747015100234    
  0.4102270162432752    0.44346768488806493    0.397368628143923    0.3636607494616101    0.3973621367561765    
  0.44346799585584795    0.4102396046868597    0.31640705962234045    0.23562143274954883    0.19212827857509318    
  0.17840694110445787    0.1820774319240567    0.19085983029880077    0.19489111294621567    0.19085576268051307    
  0.18205894165153333    0.1784060182547826    0.19213277867290068    0.13832957635002996    0.1783984424113286    
  0.25545619338145825    0.3641247211672645    0.4360499091990411    0.39735614352461895    0.3238179825964278    
  0.3238326016301181    0.39736211459862897    0.43604339183149327    0.3641247397951235    0.25546370026458776    
  0.17840696797527236    0.1383382926558334    0.12228240412895969    0.11883158468949277    0.11939571750346258    
  0.1193942424181959    0.11882840527227798    0.1222932087366756    0.13832957635002996    0.09236515311670718    
  0.1222861630051903    0.18208194862019003    0.28136506687105456    0.3912820819466038    0.4235148784061532    
  0.36369810406013964    0.3238179642095363    0.363660760036641    0.4235467122471718    0.39128492063645587    
  0.28136099682582577    0.18207742562889434    0.12228238245006774    0.09237606712291305    0.0794327923461946    
  0.07494411336609905    0.07394543352180971    0.07494457683438152    0.07943337536968048    0.09236515311670718    
  0.060128734219235716    0.07944303872374466    0.11882747182251593    0.1908578379423561    0.29755135093036467    
  0.3973121868562667    0.4235149000442062    0.3973561604489455    0.39736858866377783    0.4235580540623107    
  0.3972900945466548    0.29754548320883134    0.19085980363120192    0.11883157230377972    0.07943281555625518    
  0.06013271263597047    0.05161619457720401    0.04854523569964078    0.04854248672437549    0.05161794704357964    
  0.060128734219235716    0.04032284752126174    0.051617562824283064    0.07493898619783979    0.119398958329388    
  0.19489804037494066    0.29755137257855363    0.39128211782007105    0.43604993927204616    0.44346770256590307    
  0.43603457850315147    0.39125310098708244    0.29755645889582893    0.19489111311425425    0.11939570418085706    
  0.07494411018050534    0.05161618368186177    0.040321765603094466    0.03543010671974385    0.03406959893294838    
  0.03542978622346515    0.04032284752126174    0.029168930361960225    0.03542930318145155    0.04854541700593039    
  0.07395210128945612    0.11939897005893782    0.19085784765375371    0.28136503653034617    0.3641246875613345    
  0.41022701272642415    0.41019827638715534    0.3641249968687048    0.2813740009905534    0.19085577280471708    
  0.11939422446593326    0.07394544108015409    0.04854523725222382    0.03543011444117301    0.029167941934127695    
  0.026668256468092625    0.026667625026982684    0.029168930361960225    0.023241422422722906    0.026668547771172606    
  0.03406998954167668    0.048545415295066924    0.07493898257791996    0.1188274693089336    0.18208195767212343    
  0.2554562159405809    0.31639751004455946    0.3402168600914971    0.3164161362375617    0.2554560703302963    
  0.18205891549990572    0.11882839100829685    0.07494459367240489    0.04854248674690632    0.03406960272894123    
  0.026668257856232107    0.023241448337086686    0.022244630656521477    0.023241422422722906    0.020418770759563616    
  0.02224401653101327    0.02666855046898644    0.035429305488541014    0.051617569052059095    0.07944304455404375    
  0.12228616124608731    0.1783984331542129    0.2356116228186458    0.27285421354097    0.27285052950022554    
  0.2355952448058548    0.17840601009762108    0.12229319297625352    0.07943338193908495    0.051617947457423756    
  0.03542978947029099    0.02666762807421232    0.02224462861670175    0.020418017658071812    0.020418770759563616    
  0.019598832789020065    0.020418771954748127    0.023241420864568946    0.029168924574039284    0.04032284336327108    
  0.06012872698822769    0.09236516227499021    0.1383295885480825    0.19213277419126323    0.23774963532374432    
  0.25588580382459614    0.23774960565323852    0.19213278418551483    0.1383295550678992    0.09236516741431065    
  0.060128734143727935    0.04032284650643437    0.02916893109862432    0.023241421685658285    0.020418771425316496    
  0.019598832789020065    0.01947722500457159    0.02027018395460977    0.022996560098206414    0.028703539962626826    
  0.03941628231611329    0.0583609502176789    0.08904349740783592    0.13258961148042056    0.18329571162478836    
  0.226110673070533    0.24310832239623195    0.226115273683547    0.18327489639508676    0.1325914667046431    
  0.0890608053139939    0.05835887897074307    0.039413629730502706    0.028704172369062166    0.022996339948750603    
  0.02027017347187022    0.01947722500457159    0.02027017324915404    0.020270221762732177    0.022200116591282768    
  0.026859167500961324    0.03612675618275221    0.05333705890111393    0.08302027197211843    0.12885831900188255    
  0.18882789155406413    0.24966558385804674    0.28898949270864094    0.2889951977154705    0.24969493723911956    
  0.1888315368482668    0.1288382400606518    0.08302596815139199    0.05334130805364855    0.036127161713778146    
  0.02685940753024983    0.02220063279837025    0.02027017324915404    0.02299634073878125    0.021870625618150837    
  0.02299642345302967    0.02685901567838018    0.03524325525005151    0.05177653785906964    0.08223314816263942    
  0.13335010353450813    0.20702851613762643    0.29101284794116233    0.3583293908820991    0.3837457598586787    
  0.3582876981265234    0.29101120165796523    0.2070623289188389    0.1333502196431067    0.08222949917055272    
  0.05177904977585557    0.035243495829407646    0.026859415757512592    0.02299634073878125    0.02870416879882039    
  0.025751145756079865    0.025751481904613592    0.028703414789816084    0.03612715429306958    0.051777421949757915    
  0.08243218843938592    0.1379589243128404    0.2251273789457567    0.33039025003803185    0.41449675830741806    
  0.4518027382948016    0.45185831401825194    0.41450668550651437    0.3303595958035232    0.22513654604345396    
  0.13797231801078497    0.0824326977201855    0.051779047470455426    0.03612716089520346    0.02870416879882039    
  0.039413627546549146    0.03336364463454702    0.031670997331066084    0.033363779768074454    0.03941265510435738    
  0.05334118000161562    0.08222750566516004    0.13796872168633104    0.23228978737947156    0.35096273975745607    
  0.4284130077005249    0.4257140107706346    0.4078201880019951    0.4257307240980125    0.428458452282147    
  0.35096874772348413    0.23228000859116232    0.13797231884595598    0.08222950190972945    0.05334131484828573    
  0.039413627546549146    0.05835889705523419    0.047244578805308024    0.04307740453171196    0.043081738557958674    
  0.047240521851299164    0.0583636547355328    0.08301854951961536    0.13335635114991168    0.22512507273849508    
  0.3509570521316753    0.4242744314094969    0.3629733874701898    0.27302963284548093    0.27300710518128907    
  0.3629126621250222    0.4242996844393691    0.3509687331175348    0.225136570607927    0.1333502356437793    
  0.0830259404367653    0.05835889705523419    0.08906079255759855    0.07080024512952436    0.06352129659138307    
  0.06161713469720731    0.06352146237521257    0.07080013443420421    0.08906443264217144    0.12883593737250637    
  0.20706512748427475    0.33034869533568895    0.4284702444901538    0.36294638653083844    0.2127537944095381    
  0.15293794316701498    0.21279933074703372    0.3629126967884269    0.4284584811064521    0.3303595942500059    
  0.207062315787761    0.1288382446828974    0.08906079255759855    0.13259149178094223    0.10667114517483132    
  0.09680798813340712    0.09408150811526399    0.09408127163280655    0.09681013552544428    0.10666904938377006    
  0.13259638006879562    0.18883149686134768    0.2910242260271087    0.41450131543520463    0.4257150095797212    
  0.27302921984201695    0.15294789476664947    0.1529379345871695    0.27300713034085466    0.4257307402732842    
  0.41450672610862954    0.29101122612577157    0.18883160802740245    0.13259149178094223    0.18327491134477755    
  0.15313093873170858    0.1441220704478721    0.14441959168884005    0.14547306052292408    0.14442267714428375    
  0.14412649991012327    0.1531348333434762    0.1832776884639312    0.24970206518997168    0.35829706028283254    
  0.4518786506230434    0.40780128984967035    0.273029238445318    0.2127538262887857    0.27302967108332576    
  0.4078201888822469    0.4518584199857706    0.35828768820594736    0.24969493704827458    0.18327491134477755    
  0.2261153377544809    0.20016448821569932    0.1991214566686456    0.20949813562612724    0.2183972919230087    
  0.2183889528375666    0.20950527386704063    0.19912062597480942    0.2001811933986884    0.22611038212938459    
  0.2890155087409378    0.3837163947551908    0.45187867229717815    0.425714986676889    0.36294638803140356    
  0.3629734162620692    0.42571400639555884    0.45180275966967065    0.38374575338084077    0.28899522677235573    
  0.2261153377544809    0.24310831383815332    0.23079380892335344    0.24550725441579122    0.27364015904178646    
  0.29781263297914107    0.306526308053908    0.2978182004354774    0.2736445564559049    0.24550982364700652    
  0.23080701537763823    0.24311722944757141    0.2890154568970678    0.3582970546988248    0.4145012003868417    
  0.42847025720579346    0.42427438345790996    0.428412999509121    0.41449674638778555    0.3583293671087726    
  0.28898952271483813    0.24310831383815332    0.22611068811368276    0.2308012201401488    0.2639314764963915    
  0.3135470789834736    0.356229031137251    0.37578635230482826    0.3757909461002448    0.3562371957361543    
  0.3135589059865941    0.2639347228701766    0.23080702329038527    0.22611034636348024    0.249702053238989    
  0.29102418405953134    0.3303486548407478    0.35095697245479807    0.3509627214400597    0.3303902062507699    
  0.2910128242840521    0.24966557880499735    0.22611068811368276    0.1832957171956248    0.20016888366275956    
  0.2455016978946337    0.3135510617666005    0.37641495294132726    0.40566603749749974    0.41004401635703647    
  0.4056644087860875    0.3764218337743482    0.31355892957711523    0.24550982942358382    0.20018121221394322    
  0.1832776871845144    0.18883145225873116    0.20706510713804202    0.22512501360201087    0.2322898101377862    
  0.22512735483683702    0.20702851341590178    0.18882791996415252    0.1832957171956248    0.13258959394167102    
  0.15311251182843855    0.19912073730447097    0.27364262192464145    0.35623794022129107    0.4056630572375899    
  0.41449762381716    0.41449302659546355    0.405664395941016    0.3562371732048555    0.2736445726309494    
  0.1991206248829997    0.15313484317647696    0.13259635994139182    0.12883593400940352    0.13335633803787716    
  0.13796870308758327    0.1379589147524093    0.13335008880189447    0.1288583282928592    0.13258959394167102    
  0.08904348668237404    0.1066714879490488    0.14414219764679412    0.2095014055815194    0.29781845416918895    
  0.37577857117244395    0.4100488269064036    0.41449762741822543    0.41004406611370925    0.3757910037298601    
  0.2978182203047525    0.20950532273261588    0.14412651953411135    0.10666904037159126    0.08906442250808941    
  0.08301852692852492    0.082227493137835    0.08243216411729465    0.08223313903091735    0.08302025706670775    
  0.08904348668237404    0.05836096202415411    0.07081558817269841    0.09680858672775304    0.14440713461463672    
  0.21839546389749068    0.30653146386662866    0.37577855546801053    0.40566305257096985    0.40566595789333987    
  0.37578639289319604    0.3065263562001889    0.21838892551211833    0.1444226924497479    0.09681012060268775    
  0.07080013824453212    0.05836364441400272    0.05334117836334835    0.05177743029835186    0.05177652782385392    
  0.05333705199388592    0.05836096202415411    0.03941627891230716    0.04724238931524967    0.0635080982135743    
  0.09408274423794696    0.14549057197934448    0.21839546171304033    0.2978184495906235    0.3562379216384714    
  0.37641495218831644    0.35622901040533234    0.29781264319163725    0.21839729589869314    0.1454730850011474    
  0.09408126356132122    0.06352146615466113    0.04724051133724187    0.03941265590495415    0.036127160422257526    
  0.035243244251691605    0.03612675231167121    0.03941627891230716    0.028703542544638045    0.03336126913497133    
  0.04307972099438228    0.06163246285942775    0.09408274608006492    0.14440714735234453    0.20950141083699797    
  0.27364258691671806    0.31355106508606295    0.3135471149773916    0.2736401825978878    0.20949812845584997    
  0.14441958221827228    0.0940814915739349    0.06161715211320567    0.04308174176379886    0.03336378649003281    
  0.02870341787682039    0.026859023497463535    0.026859171453372375    0.028703542544638045    0.022996556578767726    
  0.025751249882151137    0.031674068166029024    0.04307971941031253    0.06350809708053189    0.09680858038623737    
  0.14414221006937925    0.1991207476729891    0.2455017062380179    0.26393148654176113    0.24550728725289983    
  0.19912142535710625    0.14412207076639438    0.09680797073176489    0.06352130772922976    0.043077396834943056    
  0.03167099377069167    0.02575148749121559    0.022996414923333913    0.02220011379861461    0.022996556578767726    
  0.02027018417209945    0.021870539333170763    0.025751252914468788    0.03336127465503183    0.047242393536387324    
  0.0708155919826789    0.10667147989097615    0.15311252095056893    0.2001688690248753    0.2308012570746579    
  0.23079381938112126    0.20016446426359577    0.15313092457088248    0.10667115968394913    0.07080024355039723    
  0.04724457770120641    0.03336365031670989    0.025751151242551194    0.021870625098005775    0.020270222518336597    
  0.02027018417209945    0.01947722500457159    0.02027018395460977    0.022996560098206414    0.028703539962626826    
  0.03941628231611329    0.0583609502176789    0.08904349740783592    0.13258961148042056    0.18329571162478836    
  0.226110673070533    0.24310832239623195    0.226115273683547    0.18327489639508676    0.1325914667046431    
  0.0890608053139939    0.05835887897074307    0.039413629730502706    0.028704172369062166    0.022996339948750603    
  0.02027017347187022    0.01947722500457159    0.01913911717933388    0.01985352075954234    0.022301547693347936    
  0.02741048438686261    0.03692138028872685    0.05351237563071347    0.0799696686491291    0.1169672785019129    
  0.15946837577672893    0.19502234936250912    0.20908456702921907    0.19502855049477488    0.1594458148120735    
  0.1169679450959209    0.07998968431267157    0.05351142795004841    0.0369178807009438    0.02741183715760663    
  0.022301355453388384    0.019853729008695753    0.01913911717933388    0.01985372744338175    0.019853136588637136    
  0.02173541752311493    0.026256015028655492    0.03522142986152939    0.051779252284824134    0.08013443398754735    
  0.12356889999570804    0.17983423355489    0.23623940495600917    0.27231453515463117    0.2723162973378323    
  0.23627290744247012    0.17984111757687887    0.12354921994790967    0.08013644620813849    0.051786627739153775    
  0.03522001473294479    0.02625730809722266    0.02173505498733014    0.01985372744338175    0.022301356011264744    
  0.02114723097609297    0.022301304670269605    0.026256758707679607    0.034823283324616074    0.05168972148858447    
  0.08270426897057519    0.13464651286538173    0.20899548453551223    0.2922808752080384    0.35713924598659624    
  0.38099499534372167    0.35709430369755574    0.29227291339559747    0.20903125328760894    0.13465093387331073    
  0.08269932342700613    0.05169360720445773    0.03482372788857993    0.026257312627260745    0.022301356011264744    
  0.027411834529823674    0.024297533862981245    0.02429937008637448    0.027409433514139766    0.03522189619103993    
  0.05168946829848857    0.08401276413446267    0.14262245036057755    0.2340093497125268    0.34097663829195757    
  0.41928599174277825    0.4481086654878083    0.4481689857082099    0.4193048105906356    0.34095037244457654    
  0.23400859173603852    0.1426433750365072    0.08400826659054915    0.051693596855028785    0.035220016155194364    
  0.027411834529823674    0.03691788222627198    0.030433576275011136    0.028604172279203508    0.030433876207090288    
  0.036916849333375495    0.05178616131177138    0.08269636370547144    0.1426358458219374    0.2435631329804144    
  0.3650846054017094    0.42780289814231764    0.3995155926659329    0.3704403860248826    0.39953182800574705    
  0.42783572359102245    0.36510489540880153    0.24354682371209924    0.14264336954644122    0.0826993120104616    
  0.05178662376604167    0.03691788222627198    0.053511433219808655    0.04141919329617863    0.036800747143164426    
  0.036803143189535675    0.041416060343322965    0.05351491754408229    0.08013117490876857    0.13465572477860113    
  0.2340011670635054    0.3650803355411614    0.4194002141164963    0.31936733848029536    0.2124134005951908    
  0.2123876088712166    0.3193238328821799    0.4194124506487195    0.36510491085820324    0.2340086243084225    
  0.13465095255330464    0.08013644189543127    0.053511433219808655    0.07998967465109696    0.05966934405681098    
  0.051181164527969655    0.04885714475860437    0.05118168274295929    0.05966938115421087    0.07999026244278899    
  0.12354801952498953    0.20903147852390375    0.3409379869746389    0.42785363101089097    0.31934923546770494    
  0.15105128638882187    0.09513302159962067    0.15108187618733498    0.31932384451269435    0.4278357668235704    
  0.3409504241916203    0.20903122931265364    0.12354921137477451    0.07998967465109696    0.11696798088794237    
  0.08687915946465727    0.07399592202164876    0.06951574994452019    0.06951775840260582    0.07399481297901167    
  0.08688117484942039    0.11696929519079946    0.1798415330242329    0.2922849542766406    0.41929797735109664    
  0.399511172737556    0.21241507713593988    0.09513189178772685    0.09513303941645238    0.21238761078058652    
  0.39953182165555856    0.4193048081970643    0.29227297149662335    0.17984115477603732    0.11696798088794237    
  0.15944581886961237    0.12143354813529467    0.10564084762345852    0.1007611638925357    0.09984114723212467    
  0.10076242034919845    0.10564242702690564    0.12143664746341896    0.15944797516460024    0.23628026901668955    
  0.3571000559618547    0.44819124953564543    0.37041650836178747    0.21241506370927907    0.1510512963490821    
  0.21241343554435058    0.3704403730039625    0.44816900846053714    0.35709429115623137    0.23627291558300498    
  0.15944581886961237    0.1950285985309024    0.15586857087312755    0.1418089803366436    0.1406852193546935    
  0.14285876121010724    0.14284998847022598    0.1406971543858488    0.1418026308017544    0.1558846398708216    
  0.19502082183099112    0.2723355170225124    0.3809635259320785    0.4481913111386884    0.39951116287109145    
  0.3193492351871113    0.3193673686653433    0.3995156203874935    0.44810865631541663    0.38099503558944625    
  0.27231634177671205    0.1950285985309024    0.20908457267042524    0.1781364871033351    0.17207889908702992    
  0.18052557913040887    0.1920118194929618    0.1969125129674846    0.1920129047391719    0.18052776768577972    
  0.1720841033992619    0.17814179709934835    0.209097601769418    0.27233552085318563    0.3571000629569317    
  0.4192978947659175    0.4278536252086345    0.4194001526205298    0.4278028629943093    0.4192859541056625    
  0.3571392324578038    0.27231457223680483    0.20908457267042524    0.19502231608867862    0.17813974256770598    
  0.18410104639916955    0.20600463001923455    0.23222185167297488    0.24908251059652503    0.249086613396579    
  0.23222630363290434    0.20600913719451616    0.18410584931386734    0.17814177558799996    0.19502079489044757    
  0.2362802707239796    0.2922848538007073    0.34093795713626474    0.36508028154334154    0.3650845589703099    
  0.3409765783632749    0.2922808627523713    0.23623940547021577    0.19502231608867862    0.15946837720815032    
  0.15587405385508368    0.17207612711804385    0.2060045094196688    0.2477019236635642    0.28072681609387584    
  0.2927711943696466    0.2807275432713272    0.2477062160939794    0.2060091800232619    0.1720841101424558    
  0.1558846493332641    0.15944795609738163    0.1798414902113795    0.20903144437677726    0.23400110771178864    
  0.24356311535878347    0.23400933152246436    0.20899547252315093    0.17983426751838766    0.15946837720815032    
  0.11696725895355654    0.12141211372317436    0.14180490940016297    0.18052836362347077    0.23222528267974063    
  0.28072738194624025    0.30862614838166263    0.3086224644656463    0.28072752297862447    0.23222630717454473    
  0.18052775609369187    0.1418026153866802    0.12143663200633259    0.11696929244616719    0.1235480001033538    
  0.13465569247930664    0.1426358471775213    0.142622423724117    0.1346464940176161    0.12356887568219889    
  0.11696725895355654    0.07996966185773964    0.08688034259531616    0.10565982533340437    0.14069156897393062    
  0.19201044978034032    0.2490829978101195    0.2927688134064351    0.30862615868811233    0.292771190182972    
  0.24908662177279411    0.1920129484664027    0.14069716592329234    0.10564242841917737    0.08688116561570608    
  0.07999024648149844    0.0801311509282162    0.08269634222508127    0.08401273569928629    0.08270425303492264    
  0.08013442490278246    0.07996966185773964    0.0535123811164373    0.05968383508977877    0.0739952263884998    
  0.10074448958545586    0.14285562951413597    0.19691568007230992    0.2490829931260012    0.280727412557678    
  0.28072677674135316    0.24908247482160017    0.19691253468118933    0.14284996030867111    0.10076241809898973    
  0.07399479809544454    0.05966939116258238    0.053514911796165854    0.05178615521021855    0.051689455371916916    
  0.051689718723573114    0.0517792435269417    0.0535123811164373    0.03692138178415956    0.041417686045308995    
  0.0511679707044074    0.06951758617186908    0.09985922646993098    0.14285562501628643    0.19201045446122716    
  0.2322252843099011    0.2477019142064526    0.23222186448491688    0.19201184597285936    0.14285876710669526    
  0.09984116405221191    0.06951775943780336    0.05118169162616066    0.04141605272713342    0.03691685212389234    
  0.03522190238959261    0.034823276179561595    0.03522142204091322    0.03692138178415956    0.027410488038560613    