#     DFTpy    
  CRYSTAL 
    
  PRIMVEC    
  4.273862068965516    0.0    0.0    
  0.0    4.273862068965516    0.0    
  0.0    0.0    4.273862068965516    
  PRIMCOORD    
  4    1    
  Si    0.0    0.0    0.0    
  Si    0.0    2.136931034482758    2.136931034482758    
  Si    2.136931034482758    0.0    2.136931034482758    
  Si    2.136931034482758    2.136931034482758    0.0    
  BEGIN_BLOCK_DATAGRID_3D    
  3d_datagrid_density    
  BEGIN_DATAGRID_3D#0    
  19    19    19    
  0.0    0.0    0.0    
  4.273862068965516    0.0    0.0    
  0.0    4.273862068965516    0.0    
  0.0    0.0    4.273862068965516    
  0.06346446073050759    0.11358736610797386    0.27837181465937416    0.3902413016779533    0.3152898435906437    
  0.20262327619795573    0.1315125140210425    0.09585640552811668    0.08033770911909532    0.07618579065557249    
  0.08033771204177025    0.09585640789726572    0.13151249720641484    0.2026232424504102    0.3152898876159129    
  0.3902413394356924    0.27837179680171287    0.11358736207745261    0.06346446073050759    0.11358736733717495    
  0.1704418941815658    0.32092139961087757    0.3893432533628862    0.3023718037436444    0.19645375699657747    
  0.13108098418337186    0.09832912291304095    0.08411311445977263    0.0803377018782896    0.08411310650458927    
  0.09832913668856663    0.1310810009457414    0.19645373655416837    0.30237171581402994    0.3893432627175501    
  0.32092140494978916    0.1704419046047477    0.11358736733717495    0.27837178033018006    0.32092133866647987    
  0.38813033793589685    0.3639585217269723    0.2671606980871176    0.1823145391469424    0.13256584212237996    
  0.10828852638218957    0.0983291568671499    0.0958564007609454    0.09832914775980488    0.10828852550940972    
  0.13256586291306616    0.18231451342601482    0.26716075917914767    0.36395852461004347    0.38813034510254174    
  0.32092140264880836    0.27837178033018006    0.39024129339268954    0.3893432873261859    0.36395853235375236    
  0.2976944798290023    0.22293108250523158    0.17020748713468975    0.1427355053156494    0.13256588064921468    
  0.13108100414885154    0.1315125174439739    0.1310810148920219    0.1325658659410911    0.14273548580094378    
  0.17020748920199724    0.22293107300068696    0.2976944637700049    0.3639585366775872    0.3893431944328893    
  0.39024129339268954    0.3152898685577462    0.30237175117631915    0.26716073594966466    0.22293111697391335    
  0.18729901347258449    0.16983974844253336    0.17020745596573444    0.18231453292308938    0.1964537292516629    
  0.2026232213761613    0.19645373740711106    0.18231447573680223    0.17020750589495642    0.169839745482774    
  0.18729901945964905    0.22293108622548805    0.26716071717907647    0.302371775443749    0.3152898685577462    
  0.20262322793772622    0.1964537111843202    0.18231453248064847    0.17020746893221214    0.16983971022598912    
  0.18729906349987163    0.22293106210271657    0.2671607478935492    0.30237176292064866    0.31528983056165943    
  0.3023718069732376    0.2671606899694115    0.2229310590627945    0.18729906251432718    0.16983971494662994    
  0.17020748980814196    0.18231450510157793    0.19645374072818206    0.20262322793772622    0.13151248055142284    
  0.1310810135810599    0.1325658696788911    0.14273549824709092    0.1702074597206945    0.22293111096136128    
  0.29769449210878945    0.3639585490251701    0.3893432473622943    0.3902413032827033    0.3893432811307621    
  0.36395851270166124    0.29769449278332094    0.22293108448686297    0.17020748553751597    0.14273551729339792    
  0.13256587273106116    0.13108098815781274    0.13151248055142284    0.09585640179062992    0.09832912933109106    
  0.10828854449276612    0.1325658640898305    0.18231451530638917    0.26716073772946713    0.36395850968762034    
  0.3881303449306547    0.3209213978931057    0.2783717941300564    0.32092142731634776    0.3881302639093824    
  0.3639585613872002    0.2671607309710925    0.18231448683717622    0.13256587976757395    0.10828852002873975    
  0.09832913483193303    0.09585640179062992    0.080337718453254    0.0841131069858313    0.09832915266881466    
  0.13108099761576159    0.1964537019622622    0.3023718264208695    0.3893431518195775    0.3209214544267572    
  0.1704419146652423    0.11358733455186641    0.1704419087900753    0.3209213401398661    0.3893432470600425    
  0.30237177210870253    0.19645371824211508    0.13108100472498324    0.0983291402184313    0.0841131267367966    
  0.080337718453254    0.07618579672383448    0.08033770668710967    0.09585641131194333    0.13151252256261795    
  0.202623214416695    0.31528987100360123    0.39024129477745256    0.27837180544886214    0.11358736004097213    
  0.06346445674827876    0.11358737512956829    0.27837179620098107    0.3902413347933435    0.31528988453930806    
  0.20262322357506485    0.13151249937844892    0.09585641010501798    0.0803376961875673    0.07618579672383448    
  0.08033770074065942    0.0841131012510442    0.09832913561771742    0.13108100653859062    0.19645373282184392    
  0.3023718090430373    0.38934318557051006    0.32092140620545745    0.17044191736128175    0.11358735871721477    
  0.1704419016977066    0.3209213653443554    0.38934323944106713    0.3023717570346378    0.19645371144495516    
  0.131081007279514    0.09832913022187557    0.08411310894679602    0.08033770074065942    0.09585641413541206    
  0.09832913793057423    0.10828853331783346    0.13256588176700992    0.18231445785167508    0.2671607441160852    
  0.36395848703360645    0.3881303273292768    0.32092138396550834    0.2783717768317011    0.3209214257829668    
  0.3881303539849506    0.36395854663081145    0.2671607320248162    0.1823145216124342    0.13256587781750137    
  0.108288509355166    0.09832914821209576    0.09585641413541206    0.13151247956503442    0.13108103157695938    
  0.13256589851806644    0.14273549958665596    0.17020747294991562    0.22293109768109054    0.2976944714607348    
  0.3639584997379882    0.3893432292854813    0.3902412676380232    0.3893432157315266    0.36395850601247687    
  0.29769449838054474    0.22293107859787178    0.17020746852449892    0.1427354993833769    0.13256591087849715    
  0.13108096993376897    0.13151247956503442    0.20262323329772866    0.19645369560701859    0.18231450573364666    
  0.17020749724305664    0.16983973849731804    0.18729904294606653    0.22293107275123955    0.26716071868960845    
  0.3023717871064209    0.3152898812273764    0.3023717930047351    0.267160704366991    0.2229311129698789    
  0.1872990174386293    0.16983973782206024    0.17020748647287634    0.1823145238544018    0.19645374085352774    
  0.20262323329772866    0.31528986456803343    0.3023717373133566    0.2671607271963734    0.22293109286581853    
  0.18729899225446706    0.1698398029093215    0.17020744748944594    0.18231451661984646    0.19645374290384995    
  0.20262321123494023    0.19645371924432975    0.18231448287536736    0.17020745895902764    0.169839758675849    
  0.18729902151271888    0.22293109848048082    0.26716071880150616    0.3023717306222348    0.31528986456803343    
  0.3902413043846642    0.3893432771165837    0.36395855908734115    0.29769448791856834    0.22293107310064084    
  0.1702074780120002    0.14273551358422207    0.13256585528609113    0.13108101733989863    0.13151250623674135    
  0.13108102309573333    0.13256587608842252    0.1427355111023742    0.17020747143587486    0.22293111315654995    
  0.2976945036888279    0.36395854090013013    0.3893431719450428    0.3902413043846642    0.2783717908413507    
  0.32092135265372357    0.38813030109106117    0.36395857681639254    0.2671606947231344    0.18231452297145784    
  0.13256585202510382    0.10828851780872675    0.09832912764774893    0.09585642448567128    0.09832913495768734    
  0.10828851613609894    0.13256588324314253    0.1823145137606456    0.2671607085190685    0.363958545979514    
  0.38813034610624986    0.3209213889867209    0.2783717908413507    0.11358735356395712    0.1704418745519975    
  0.32092138194092795    0.3893432104895504    0.3023716953308551    0.19645374596020357    0.1310810009994393    
  0.09832913425272294    0.08411312396241291    0.08033769598240123    0.08411311396010643    0.09832910734166815    
  0.13108101463779503    0.1964537345119951    0.30237175091170054    0.3893432663119307    0.3209214163890191    
  0.1704419124128909    0.11358735356395712    0.06346446073050759    0.11358736610797386    0.27837181465937416    
  0.3902413016779533    0.3152898435906437    0.20262327619795573    0.1315125140210425    0.09585640552811668    
  0.08033770911909532    0.07618579065557249    0.08033771204177025    0.09585640789726572    0.13151249720641484    
  0.2026232424504102    0.3152898876159129    0.3902413394356924    0.27837179680171287    0.11358736207745261    
  0.06346446073050759    0.11358735665400654    0.17044188063329851    0.3209214140825897    0.38934321036483666    
  0.30237177024889444    0.19645373582928485    0.13108099984797783    0.09832914873181288    0.0841131171047395    
  0.08033770725915149    0.08411313622653775    0.09832913788885221    0.13108100023798885    0.196453732019536    
  0.30237174916190596    0.38934324562420014    0.3209213804700508    0.17044189253572684    0.11358735665400654    
  0.1704419151826824    0.2271964621081838    0.35301995712564727    0.38345260748114796    0.2895058730492831    
  0.19050963942129484    0.13041171052131345    0.10038783378590006    0.08748987052620773    0.0841131009922614    
  0.08748987485500215    0.10038783785584937    0.13041175690244722    0.19050959830144334    0.28950584829021164    
  0.38345257360796964    0.353019955832356    0.2271964437867572    0.1704419151826824    0.3209213681398956    
  0.35301989795170596    0.39257064128211056    0.35007001497363666    0.254947184020182    0.176558510361107    
  0.13103034238448777    0.10906503118401231    0.10038787344763368    0.09832911129200823    0.10038783321777095    
  0.10906505172319733    0.13103033780999593    0.17655850234658677    0.25494727007791745    0.35006996191716644    
  0.3925706390577825    0.35301992712343994    0.3209213681398956    0.38934324587113694    0.38345264635343956    
  0.3500699746270726    0.28276776546735777    0.2124882654461058    0.1642645663192713    0.13958417051123978    
  0.13103032541448348    0.13041176316391376    0.13108098728576834    0.13041176541533633    0.13103033789460966    
  0.13958416352829572    0.16426455719021957    0.21248828221307106    0.28276773558906726    0.35007003073975496    
  0.3834525932092496    0.38934324587113694    0.3023717385079103    0.289505864912167    0.25494722973073963    
  0.212488296539842    0.17905608980435267    0.16317057884387526    0.16426452884616585    0.1765585044449852    
  0.1905095874567131    0.19645371360156647    0.1905096217124213    0.17655846121343696    0.16426454281456881    
  0.16317056331568078    0.17905607925249947    0.21248826303960736    0.25494725158376874    0.2895058633447871    
  0.3023717385079103    0.196453701061253    0.19050960219884622    0.17655850374306287    0.1642645423100508    
  0.16317055401218786    0.17905614702967912    0.2124882135555807    0.2549472712658325    0.2895058762559139    
  0.3023716851493255    0.28950591491643524    0.25494722451175494    0.21248822674653525    0.17905613192762485    
  0.16317057196095022    0.16426456238382417    0.17655847597373905    0.1905095977243071    0.196453701061253    
  0.13108098421580586    0.1304117772517537    0.13103035373006325    0.13958415033385901    0.16426454401557739    
  0.2124882766058996    0.28276777116352103    0.3500699579726982    0.3834525957090878    0.3893431916006844    
  0.3834526909622983    0.35006997524722905    0.28276776566400547    0.21248824091042232    0.16426455010966948    
  0.13958416814814809    0.13103035734849292    0.13041174568722627    0.13108098421580586    0.09832914026098472    
  0.10038782671609685    0.10906505253768049    0.1310303602044477    0.17655848726257634    0.2549472445098623    
  0.3500699388074519    0.3925706561528456    0.3530199336679246    0.32092136461362886    0.3530199638636891    
  0.3925706185578998    0.35007000766311774    0.25494721738103615    0.17655848134081623    0.13103033286537222    
  0.10906504795754927    0.10038783669192776    0.09832914026098472    0.08411311348255349    0.08748987210229885    
  0.10038785179809878    0.13041174109930218    0.19050957644903935    0.2895059020255347    0.38345254069375173    
  0.35301997507056737    0.2271964624243632    0.17044186165355807    0.2271964776423673    0.353019872374017    
  0.38345254400042283    0.2895059222082163    0.19050962859021164    0.13041177399865514    0.10038782439339312    
  0.08748988444867187    0.08411311348255349    0.08033770944410504    0.08411310457778302    0.09832914111612344    
  0.13108103102530663    0.19645369825945558    0.3023717905478203    0.38934320491267543    0.3209213689387726    
  0.17044190104339954    0.11358734927548712    0.17044189967641196    0.320921395558375    0.38934322774477736    
  0.30237176392858817    0.19645374317595993    0.13108100074130863    0.09832913135865404    0.08411310030208377    
  0.08033770944410504    0.0841131140998674    0.08748986490393455    0.10038783911413691    0.1304117315972183    
  0.1905096016634362    0.28950591141866605    0.38345261615487325    0.3530199645927973    0.2271964640084441    
  0.17044188039777405    0.22719646599019147    0.3530199063310371    0.38345264156135017    0.28950585289320346    
  0.190509600054191    0.13041176631815404    0.10038785486852878    0.08748987316440693    0.0841131140998674    
  0.09832912201703481    0.10038782779281939    0.10906504087561587    0.1310303360069162    0.17655845065136952    
  0.2549472655904205    0.3500699671395455    0.3925706311847296    0.35301991848667374    0.3209213905391965    
  0.3530199701326611    0.3925706087607142    0.35007000222999923    0.2549472365625145    0.17655851036129283    
  0.1310303481940189    0.10906505962678406    0.10038785253252845    0.09832912201703481    0.1310809994721301    
  0.13041177267105528    0.1310303647027384    0.13958416373722804    0.1642645577083374    0.21248827414442464    
  0.28276777421211263    0.3500699435958974    0.3834526148713191    0.389343235476588    0.3834526125249654    
  0.35006995346950925    0.2827677708010797    0.2124882692886813    0.16426453860301563    0.1395841668669608    
  0.1310303378112286    0.1304117428618136    0.1310809994721301    0.1964537276763983    0.19050958838032256    
  0.17655849541741991    0.1642645682324793    0.1631705733839743    0.17905609364689448    0.2124882347649321    
  0.25494725325907064    0.2895058827138987    0.3023717748710604    0.2895059018301459    0.25494718191948706    
  0.21248828155448424    0.17905610721786194    0.16317056544655703    0.16426455008586816    0.17655848157991016    
  0.19050961657569346    0.1964537276763983    0.3023717567064515    0.28950589001112165    0.25494726078473734    
  0.21248825179076034    0.17905605395245447    0.16317060895123914    0.16426450698131526    0.17655848864429596    
  0.19050961595816182    0.19645370227964962    0.1905096187408803    0.17655845659952946    0.16426452359220714    
  0.16317059031600695    0.17905608578855423    0.2124882606822011    0.25494724294917104    0.2895058430373842    
  0.3023717567064515    0.3893431996072765    0.3834526107778502    0.35007002202554416    0.2827677666298762    
  0.2124882450784023    0.16426455121122385    0.1395841871356759    0.13103033230329367    0.13041174695014027    
  0.1310809819127399    0.1304117665174438    0.13103033794909733    0.1395841781828861    0.16426452089324894    
  0.21248825601322435    0.28276775573198776    0.3500700096572207    0.38345258680866523    0.3893431996072765    
  0.32092140773073025    0.3530199208105946    0.3925706524718414    0.3500700582078575    0.2549472083254952    
  0.17655846778013728    0.13103032098318826    0.10906506705464257    0.10038784757148253    0.09832914102880334    
  0.10038784499737836    0.10906502361779677    0.13103034729913238    0.17655849336148494    0.25494722585124835    
  0.35006997022341446    0.3925706145172663    0.35301995088509236    0.32092140773073025    0.17044186958722807    
  0.22719642282444402    0.3530199435169952    0.3834526172774288    0.2895058098056372    0.19050961434368985    
  0.13041173137312587    0.10038784740695611    0.08748990205486694    0.08411310211007522    0.08748987336711188    
  0.1003878102896778    0.13041175852731163    0.19050959582078258    0.2895058881587642    0.38345262676088665    
  0.35301994620082183    0.22719644574668518    0.17044186958722807    0.11358735665400654    0.17044188063329851    
  0.3209214140825897    0.38934321036483666    0.30237177024889444    0.19645373582928485    0.13108099984797783    
  0.09832914873181288    0.0841131171047395    0.08033770725915149    0.08411313622653775    0.09832913788885221    
  0.13108100023798885    0.196453732019536    0.30237174916190596    0.38934324562420014    0.3209213804700508    
  0.17044189253572684    0.11358735665400654    0.27837175562043814    0.32092136668759036    0.3881303254040791    
  0.36395851747290664    0.2671607129943957    0.18231453799104544    0.1325658753530309    0.1082885256640353    
  0.09832913010908884    0.09585641307140895    0.09832915980650357    0.10828851063747885    0.13256588752873869    
  0.18231452798645983    0.2671607068523753    0.36395852321384925    0.3881303091941848    0.3209213786793809    
  0.27837175562043814    0.3209213888328809    0.35301990853806253    0.39257063307434337    0.35007001281144917    
  0.2549471922326199    0.17655847007261707    0.13103032688689087    0.10906504029265283    0.10038785284727902    
  0.09832913017701564    0.100387861170025    0.10906504722822138    0.13103032937545991    0.17655849128396084    
  0.2549472501351967    0.35006994912406164    0.3925706506145922    0.35301990588709    0.3209213888328809    
  0.3881303436195534    0.3925706226516588    0.3750532470477671    0.30680611318433243    0.22350644718832824    
  0.16272265500858338    0.12883962309856178    0.1137920079238039    0.10906506881549077    0.1082885009682987    
  0.10906504115910329    0.11379199984976478    0.1288396406805219    0.16272265413196538    0.22350651870084057    
  0.3068061100505722    0.37505325740917994    0.3925705758791458    0.3881303436195534    0.3639585382389197    
  0.35007003175120044    0.30680609046969437    0.24408309366070627    0.1868148373926866    0.14993355017068666    
  0.1326434258945818    0.128839645805528    0.13103036726988812    0.13256586096812142    0.1310303446142793    
  0.12883965476872228    0.13264340352367948    0.14993353326041534    0.18681482812376157    0.24408309991764637    
  0.3068061400648285    0.3500699884147202    0.3639585382389197    0.26716070428286903    0.25494719406906674    
  0.22350649715261722    0.18681484989224753    0.15919421018272145    0.1471215897253726    0.14993349833447028    
  0.16272267225093587    0.17655848168543642    0.18231449560414106    0.17655848096032634    0.16272263220906533    
  0.14993355012385814    0.1471215770644833    0.15919423600105403    0.1868148087510876    0.22350649938875847    
  0.25494723311848794    0.26716070428286903    0.18231447948975568    0.17655847217695025    0.16272266162923107    
  0.1499335423634699    0.14712155603150276    0.1591942604830982    0.18681477103106625    0.22350651566056862    
  0.25494725572407784    0.2671606777431048    0.25494726022074476    0.22350647111282512    0.18681479013804794    
  0.1591942461179424    0.14712157141738033    0.1499335389354344    0.16272265159856708    0.17655848294579432    
  0.18231447948975568    0.13256587168496592    0.13103036746533775    0.12883967256648848    0.13264341383699496    
  0.14993351186047124    0.18681484309831464    0.24408309725271413    0.3068060868668045    0.35006998465243505    
  0.36395850712923244    0.35007005398793983    0.3068060759936787    0.24408311406561234    0.18681480365293995    
  0.14993353688659705    0.13264342589900166    0.12883968010452446    0.13103033261141667    0.13256587168496592    
  0.10828851994063841    0.10906501334186756    0.1137920140644814    0.12883966416858741    0.16272267047783576    
  0.22350649103562809    0.3068060627318318    0.37505325557909364    0.3925706762789935    0.38813031636082296    
  0.3925706461655303    0.37505320967477845    0.30680612668725216    0.22350648447051932    0.16272263812540835    
  0.12883966145283476    0.11379199870774276    0.1090650593683304    0.10828851994063841    0.09832913996341903    
  0.10038783779136322    0.10906507418720704    0.1310303434370806    0.17655844959424705    0.2549472530398047    
  0.35006995684362    0.39257069268246086    0.35301994370342055    0.3209213165184869    0.3530199782782856    
  0.39257056675177343    0.3500699402151989    0.25494725285611947    0.17655850136476473    0.13103035108036007    
  0.10906504625104846    0.10038785685681122    0.09832913996341903    0.09585640364599178    0.09832913129460473    
  0.10828853120109241    0.13256587669283126    0.1823144963116144    0.26716075091701424    0.3639584748494222    
  0.3881303028799887    0.3209214089278169    0.2783717638276405    0.3209214027183301    0.3881303151264075    
  0.36395853148646945    0.26716071714259226    0.18231451654305933    0.1325658669731727    0.10828851745764714    
  0.09832912209558807    0.09585640364599178    0.09832913286225463    0.10038781642537829    0.10906505705516083    
  0.13103034875007177    0.17655846371973397    0.2549472703450362    0.35006995597633855    0.3925705939407615    
  0.3530199368298256    0.320921377587061    0.35301994597944636    0.3925705996016442    0.35006998185510385    
  0.2549471823016943    0.1765584737828736    0.13103034986531134    0.10906506350055506    0.10038783104111763    
  0.09832913286225463    0.10828851461629262    0.10906503301843933    0.11379201493703212    0.12883966622582674    
  0.16272261499799062    0.2235065141068127    0.3068060529339081    0.37505323294467435    0.39257065002149194    
  0.3881303304019843    0.39257062546978255    0.37505322182143547    0.30680612800399665    0.22350646477995803    
  0.1627226791893679    0.12883967120791165    0.11379199477799283    0.10906507120768373    0.10828851461629262    
  0.13256585373834207    0.13103035339107466    0.12883965971255373    0.1326434202308625    0.1499335233824746    
  0.1868148294496156    0.24408310854390566    0.30680609554755217    0.350069995753564    0.363958523497297    
  0.35006999083048473    0.3068060708631873    0.2440831045515213    0.18681481780078366    0.14993352066825893    
  0.13264341778091807    0.12883966446785158    0.13103032680589208    0.13256585373834207    0.18231448071721773    
  0.17655843716673783    0.16272265712631212    0.14993354075014026    0.14712156468696475    0.159194231304964    
  0.1868148131848903    0.22350647477733465    0.25494724610056446    0.2671607352978643    0.2549472827639759    
  0.223506436206771    0.18681485336769463    0.15919425129965395    0.1471215633355354    0.14993352146917077    
  0.16272265728236088    0.17655849249123617    0.18231448071721773    0.2671607535388365    0.25494724883236436    
  0.22350648860122765    0.1868148423153445    0.1591941858846582    0.14712162012902624    0.14993350074816517    
  0.16272264704316614    0.17655851018702606    0.18231449046307655    0.17655846024602675    0.16272263029801473    
  0.14993350922519122    0.14712160444839745    0.15919422846924083    0.1868148314112165    0.22350648339590687    
  0.25494720848297464    0.2671607535388365    0.3639585172793213    0.3500699863563834    0.3068060990050919    
  0.24408311510450373    0.18681480658765795    0.14993352879994976    0.1326434173062027    0.12883962326143897    
  0.13103036725613262    0.13256588390711058    0.1310303630335629    0.1288396796557993    0.1326434109045814    
  0.14993352103818547    0.18681482767834962    0.24408309326979358    0.3068061403637045    0.35007000112441006    
  0.3639585172793213    0.3881303642061028    0.39257061619702277    0.375053231313272    0.30680613077253943    
  0.22350648718042584    0.16272265495487861    0.12883962324987944    0.11379200080442421    0.10906505057196675    
  0.10828854661651674    0.10906505206358061    0.11379200509073041    0.12883966575039316    0.16272265594960678    
  0.22350649386409546    0.3068060838216291    0.3750532599163255    0.3925706712773827    0.3881303642061028    
  0.3209213768507013    0.3530199215525934    0.39257066235322347    0.35006996101279936    0.2549471581395581    
  0.1765584726265635    0.13103032092795694    0.10906505939728929    0.10038786720824094    0.09832913288754165    
  0.10038783640349459    0.10906500722335592    0.13103036098579252    0.1765584716060621    0.25494725437196863    
  0.35006998425546837    0.39257062907510465    0.3530199445535033    0.3209213768507013    0.27837175562043814    
  0.32092136668759036    0.3881303254040791    0.36395851747290664    0.2671607129943957    0.18231453799104544    
  0.1325658753530309    0.1082885256640353    0.09832913010908884    0.09585641307140895    0.09832915980650357    
  0.10828851063747885    0.13256588752873869    0.18231452798645983    0.2671607068523753    0.36395852321384925    
  0.3881303091941848    0.3209213786793809    0.27837175562043814    0.3902413207974868    0.38934326357903926    
  0.3639585458884932    0.2976944879649029    0.22293106423822243    0.17020751770437328    0.1427355135173893    
  0.13256586106453058    0.13108099831845701    0.13151250898205966    0.13108101224531815    0.13256587924159116    
  0.14273549743845163    0.1702075009951708    0.2229310694360146    0.29769451777445344    0.36395853953906976    
  0.3893432320337027    0.3902413207974868    0.38934325791546154    0.383452630316229    0.35006999945919504    
  0.28276781952395486    0.21248827930246486    0.16426459177043562    0.1395841542407418    0.1310303314535789    
  0.13041174991401489    0.13108099459715994    0.1304117538816139    0.13103033153959429    0.13958418576254011    
  0.16426455262632597    0.21248822617042548    0.2827678196217278    0.3500699973291695    0.38345261032611816    
  0.38934325791546154    0.3639585335000183    0.35006995713127026    0.3068060896880904    0.2440831023084859    
  0.18681480127285152    0.14993354716235452    0.1326434005096161    0.12883966264595104    0.13103038007661355    
  0.13256586730845563    0.13103036351529648    0.12883965858083782    0.13264337871661752    0.1499335270911354    
  0.18681483400497922    0.24408313889656488    0.3068061279076878    0.3500699962672506    0.3639585335000183    
  0.29769445618074336    0.2827678359789065    0.24408310971636327    0.19703514192227248    0.15829672011649717    
  0.13595485161240892    0.12900519174390843    0.13264341203034355    0.13958419137995653    0.14273550803044552    
  0.1395841831535499    0.13264342003936297    0.12900520314530925    0.13595483733991304    0.1582967490427035    
  0.19703512921800287    0.2440831447518093    0.28276777401676034    0.29769445618074336    0.2229310775266826    
  0.21248822616763047    0.1868148226511979    0.15829675921514774    0.13782558656339802    0.13049704702131557    
  0.13595482939551037    0.14993352779652136    0.16426455788425845    0.17020746440125145    0.16426455409480054    
  0.1499334984568721    0.13595484197714397    0.1304970470110828    0.13782560367524793    0.1582967393244251    
  0.18681482213679534    0.21248826398299958    0.2229310775266826    0.17020744293684048    0.16426453094200286    
  0.14993352987315697    0.13595485078236935    0.13049700380432602    0.13782564408654077    0.158296704862185    
  0.1868148528880035    0.21248827780714205    0.22293106432842005    0.21248831475398264    0.18681479778829616    
  0.15829671937986975    0.13782562853551478    0.13049703754476982    0.13595484187056342    0.14993352780269506    
  0.16426455028684644    0.17020744293684048    0.14273547987052979    0.1395841901707376    0.1326434039362592    
  0.1290052012707621    0.13595482353413496    0.15829675511303862    0.19703516947536565    0.2440831144820438    
  0.28276778830289395    0.29769447073513944    0.28276784509350783    0.24408309660797256    0.19703512765154185    
  0.15829672301168757    0.13595485297287646    0.12900520886737094    0.13264341495680285    0.13958413767913466    
  0.14273547987052979    0.13256587332549855    0.13103034515108022    0.12883967319602868    0.13264341577603492    
  0.14993351773863128    0.1868148195010125    0.24408309804428097    0.3068061276907229    0.3500699888648757    
  0.36395856855859643    0.3500700644003169    0.3068060720285859    0.24408312283705189    0.1868148409618966    
  0.14993352459208645    0.1326434311538558    0.1288396451880093    0.13103035504332833    0.13256587332549855    
  0.1310810028750714    0.1304117372012104    0.1310303546091745    0.13958416783840846    0.1642645220998452    
  0.21248830134299632    0.28276772783979837    0.3500700405572943    0.38345266121253446    0.3893431732791417    
  0.383452629940533    0.3500699480132843    0.28276779907545796    0.21248825413350964    0.16426453145103104    
  0.1395842030018874    0.13103032802345124    0.1304117790758512    0.1310810028750714    0.13151252157032267    
  0.13108100748649448    0.1325658827193774    0.14273551043737523    0.17020745048813066    0.22293112039361648    