#     DFTpy    
  CRYSTAL 
    
  PRIMVEC    
  1.2316806422567743    -2.133333451087799    0.0    
  1.2316806422567743    2.133333451087799    0.0    
  0.0    0.0    4.16441435986207    
  PRIMCOORD    
  2    1    
  Si    1.2316806422567743    0.7111111503625996    1.0411035899655174    
  Si    1.2316806422567745    -0.7111111503625996    3.123310769896551    
  BEGIN_BLOCK_DATAGRID_3D    
  3d_datagrid_density    
  BEGIN_DATAGRID_3D#0    
  11    11    19    
  0.0    0.0    0.0    
  1.2316806422567743    -2.133333451087799    0.0    
  1.2316806422567743    2.133333451087799    0.0    
  0.0    0.0    4.16441435986207    
  0.20462504078504015    0.21872972065123303    0.2585462712242318    0.3145590574232333    0.366286346118972    
  0.3876694375026089    0.3662863203613706    0.31455909933424714    0.2585462716514067    0.21872974419273147    
  0.20462504078504015    0.2187297213287882    0.21873156268682556    0.24578518939552677    0.29420064553413533    
  0.3487243081506435    0.3853613938801132    0.38535479418156576    0.3487216120054572    0.2942027724368649    
  0.2457903323460087    0.2187297213287882    0.2585462743808195    0.24578516933656258    0.2585551963556301    
  0.29419997293389816    0.34195815381317346    0.38228029469934754    0.39772430222255983    0.38228860323506303    
  0.3419551890353646    0.29420281065544934    0.2585462743808195    0.3145590293557108    0.2942006360232577    
  0.2941999987490467    0.3145488410353221    0.34872383436606036    0.38229188391055186    0.4018839738139351    
  0.4018947968771331    0.3822885834288091    0.3487215817646141    0.3145590293557108    0.36628632960285745    
  0.3487243324473783    0.34195810597788207    0.3487238695003883    0.36629421112837857    0.38535680187230786    
  0.397722227319074    0.4018839569909216    0.39772428543943505    0.38535484633997835    0.36628632960285745    
  0.387669432132183    0.38536139308099393    0.382280259938407    0.38229189221885934    0.38535682727884946    
  0.3876585560411988    0.385356794776248    0.38229191212578967    0.3822802473902192    0.38536139638944866    
  0.387669432132183    0.36628630670466406    0.38535480065014666    0.39772430905196443    0.40188398667168523    
  0.39772220418600496    0.385356807446596    0.36629423693813834    0.3487238757939286    0.3419581141403435    
  0.34872435274550095    0.36628630670466406    0.3145590306717363    0.3487215942707877    0.3822885914402229    
  0.4018947873229865    0.4018839707990169    0.38229188230685646    0.3487238494984905    0.3145488463096981    
  0.2941999728998519    0.29420065269802426    0.3145590306717363    0.25854627890723975    0.29420279461541116    
  0.3419551828535473    0.3822885577437929    0.39772428822069655    0.38228029028649285    0.3419581506795015    
  0.2941999973183728    0.2585551829669261    0.24578518557007487    0.25854627890723975    0.21872971552040005    
  0.24579034297135294    0.2942027784959577    0.34872159400020913    0.38535477746315666    0.3853614061552305    
  0.34872434479950587    0.2942006269451835    0.2457851662505883    0.21873159022092717    0.21872971552040005    
  0.20462504078504015    0.21872972065123303    0.2585462712242318    0.3145590574232333    0.366286346118972    
  0.3876694375026089    0.3662863203613706    0.31455909933424714    0.2585462716514067    0.21872974419273147    
  0.20462504078504015    0.22099836288357344    0.23549059495154262    0.2762468676640429    0.3325280980979204    
  0.3827637646417688    0.4029375992104114    0.3827592267853805    0.3325287113874924    0.2762454396372081    
  0.23549262628313616    0.22099836288357344    0.235492605378861    0.23549002163693716    0.25845330069058275    
  0.2982553409488098    0.3418685377797856    0.3708150372840488    0.37080913185627296    0.3418722008214064    
  0.2982574944862646    0.25845197038675183    0.235492605378861    0.2762454444134911    0.2679165418565303    
  0.2762514112374899    0.29825605193807886    0.3262945344794569    0.3497185042328017    0.35877888765941796    
  0.3497234902355988    0.3262893639385649    0.2982575226809169    0.2762454444134911    0.3325286352956023    
  0.3255566070088115    0.325553452562285    0.3325229286576683    0.3418691686555036    0.349727231283306    
  0.35419980545622837    0.3542037707505172    0.34972343677438694    0.3418722103617841    0.3325286352956023    
  0.3827592387034493    0.3872914462854055    0.3873259756864465    0.3872919891599883    0.38277359651004383    
  0.3708069483124162    0.3587815921734136    0.3541998022162901    0.35877887574191564    0.3708091760856282    
  0.3827592387034493    0.40293757344978776    0.42545734164705684    0.4311076858607466    0.4311150332714185    
  0.42544796005514374    0.4029344135936847    0.37080696109736055    0.3497272575340089    0.3497184732849994    
  0.3708150804553317    0.40293757344978776    0.38276369804128607    0.42545369449392817    0.4446441261068162    
  0.44665449847937055    0.44464335466408256    0.4254479324241438    0.38277363662818786    0.3418691852074442    
  0.32629449530629595    0.3418686009008274    0.38276369804128607    0.3325280581997538    0.3872969161221257    
  0.4311100212264146    0.44666922307813844    0.4466544913902561    0.43111504403322737    0.38729198157788236    
  0.33252293211999234    0.2982560412776054    0.2982553341852764    0.3325280581997538    0.2762468914819666    
  0.3255588974206804    0.38732193201325005    0.43110996585650857    0.44464412508667717    0.4311076860412612    
  0.3873260037371478    0.3255534738786019    0.27625140099082846    0.2584532817292596    0.2762468914819666    
  0.23549060278431294    0.2679179524110338    0.32555886915496657    0.3872969000787461    0.4254536379017923    
  0.4254573621571391    0.3872914241099986    0.3255566319299206    0.267916522088876    0.23549001895860375    
  0.23549060278431294    0.22099836288357344    0.23549059495154262    0.2762468676640429    0.3325280980979204    
  0.3827637646417688    0.4029375992104114    0.3827592267853805    0.3325287113874924    0.2762454396372081    
  0.23549262628313616    0.22099836288357344    0.2659742029935847    0.281479106238241    0.32407243434416017    
  0.37802496557434945    0.418544333952974    0.4321485500608916    0.41849202079367    0.37803381467544145    
  0.3240988473234794    0.28147589941680057    0.2659742029935847    0.2814758951215948    0.2814661280077538    
  0.3009283409834576    0.33352054203168385    0.36655539642118157    0.3868018250050421    0.3868048584815193    
  0.3666024852872799    0.33351480059631794    0.30089677064831755    0.2814758951215948    0.3240988378018528    
  0.32008119767480914    0.32406961250842414    0.33351505683625005    0.34347798801441337    0.35055065796822943    
  0.35313767703225823    0.3505540306235116    0.3434362899856361    0.333514842120329    0.3240988378018528    
  0.37803374336144907    0.38089001115441135    0.38092212318648266    0.37803297643664663    0.36655367393167065    
  0.3505621587964571    0.33961309716148164    0.33960191139766205    0.35055401793818985    0.3666025148630374    
  0.37803374336144907    0.4184920239431205    0.427219275342646    0.42447888136636935    0.4272313585085077    
  0.4185542701039233    0.38679537032300004    0.3531331141129783    0.3396130794334396    0.35313764917431306    
  0.3868048943527188    0.4184920239431205    0.4321485229195722    0.4404281853524093    0.41671889289375735    
  0.41670406691210043    0.44035222155813725    0.4321798978395083    0.3867953786774424    0.3505621627435073    
  0.3505506259875105    0.3868018705422622    0.4321485229195722    0.4185442684267464    0.4403955270706525    
  0.4002935867996797    0.36936189510563877    0.40035648967604615    0.4403522324454196    0.4185543300246611    
  0.36655368458191834    0.34347796921971463    0.36655546530400507    0.4185442684267464    0.37802493815286675    
  0.4272322194797044    0.4167130812105321    0.36940007164913674    0.36936190067878016    0.4167040751900047    
  0.4272313370725562    0.37803296865729263    0.3335150410796156    0.33352054823453015    0.37802493815286675    
  0.32407245403048096    0.38093031268834904    0.424468378425402    0.41671302151866835    0.400293631851663    
  0.4167188630046931    0.42447888848726895    0.3809221408985139    0.3240695914224794    0.3009283365581523    
  0.32407245403048096    0.2814791212757258    0.3200617067871187    0.3809303053899749    0.42723223215909495    
  0.44039550910698294    0.4404282444766639    0.42721926550634987    0.38089002884890966    0.3200811673317474    
  0.28146617806509744    0.2814791212757258    0.2659742029935847    0.281479106238241    0.32407243434416017    
  0.37802496557434945    0.418544333952974    0.4321485500608916    0.41849202079367    0.37803381467544145    
  0.3240988473234794    0.28147589941680057    0.2659742029935847    0.32370512986526434    0.3403947325633413    
  0.3833746911551262    0.4269635418258561    0.4434679891393313    0.4428033706345337    0.4432899724694492    
  0.42698967931355924    0.38349620979315807    0.34036887571767566    0.32370512986526434    0.3403688250571174    
  0.34034714642217684    0.35680737973055265    0.38257493387047864    0.40399745098756107    0.41401750864147413    
  0.4140298382771967    0.4041538524254372    0.3825555663372339    0.3566853586744531    0.3403688250571174    
  0.3834962417362648    0.3830742185715278    0.38335743330514876    0.3825482678226893    0.3773097006403061    
  0.3702987967840119    0.36746890687639167    0.37031645376002253    0.3771582190683903    0.38255560627724106    
  0.3834962417362648    0.4269895855151092    0.4313520069995393    0.43151404675528265    0.42699987135024475    
  0.4039925965354065    0.37033756545375784    0.34745067460770046    0.3474149222720618    0.37031644802144903    
  0.4041538424241873    0.4269895855151092    0.4432899646757091    0.42551425698085965    0.4058340977318879    
  0.4255327063433974    0.4434633395393619    0.41400391611178944    0.36744340206402687    0.34745069085156927    
  0.3674689067483461    0.4140298699137616    0.4432899646757091    0.44280333702109964    0.38351218498850526    
  0.29950804434224676    0.29946000559555125    0.38329412403484603    0.44292933089682784    0.41400390307790036    
  0.37033761555019534    0.3702987612772211    0.4140175129067402    0.44280333702109964    0.443467910004394    
  0.38340651793212827    0.24469584242795908    0.1832633035197874    0.2448768135734114    0.3832940695794534    
  0.44346336408006853    0.4039926534471095    0.37730965202078337    0.40399748452003953    0.443467910004394    
  0.42696349732349564    0.4255038351012056    0.29950702869801776    0.18335229686614535    0.18326327612676716    
  0.29945998705677485    0.4255327029156957    0.426999905244482    0.3825482409736667    0.3825749606022884    
  0.42696349732349564    0.3833746944906649    0.43153035624660546    0.405785126904186    0.29950698823836897    
  0.2446958232868328    0.2995080548786343    0.40583415379258303    0.4315140295548097    0.3833574179801142    
  0.3568073732334441    0.3833746944906649    0.34039472194897014    0.3829867189307034    0.43153035392504757    
  0.4255038217727708    0.38340650202397564    0.3835121728377863    0.4255142840717953    0.43135199780750827    
  0.3830742136874532    0.34034718313726275    0.34039472194897014    0.32370512986526434    0.3403947325633413    
  0.3833746911551262    0.4269635418258561    0.4434679891393313    0.4428033706345337    0.4432899724694492    
  0.42698967931355924    0.38349620979315807    0.34036887571767566    0.32370512986526434    0.3655206490119073    
  0.38300011000303796    0.42467833541675837    0.4552350871062272    0.4475050658264386    0.43392839275397566    
  0.44722906512844574    0.4552732960971037    0.42490024825217315    0.3829486781419798    0.3655206490119073    
  0.3829486613832553    0.38292529885871446    0.39786968701489417    0.4187888664898156    0.4308712820968925    
  0.4327284113440451    0.43274951973911113    0.43111738295678237    0.418755105133696    0.3976615543062635    
  0.3829486613832553    0.42490023346447947    0.4259649990424188    0.4246484243376162    0.41873713724665934    
  0.4043979271301256    0.3886275949128249    0.3826044193061098    0.38866157172461185    0.40415148505830056    
  0.41875516194542334    0.42490023346447947    0.4552732116025197    0.45448933589472795    0.4547702873846254    
  0.45530186415332263    0.43086812952706055    0.3886822595492718    0.35959742146624285    0.3595238558461118    
  0.3886614884363422    0.4311174015098544    0.4552732116025197    0.4472290947191503    0.3968401789704057    
  0.36114822024098164    0.39686682456833194    0.4474660872975493    0.432729143801026    0.38254581350283623    
  0.35959744044498776    0.38260439790880735    0.43274957444117007    0.4472290947191503    0.43392837468724055    
  0.3140706995569713    0.1990166587246175    0.1989430531656837    0.3137944616154306    0.43411514240923454    
  0.43272910865505704    0.388682296392624    0.3886275498421865    0.43272845048552283    0.43392837468724055    
  0.4475050463428789    0.3139301254629203    0.13623698842015355    0.07949137083216175    0.1364340572050052    
  0.3137944342411557    0.4474661024860657    0.43086817262948557    0.40439787719085346    0.4308713367053846    
  0.4475050463428789    0.45523504866697906    0.39679846157479876    0.19902663518618582    0.07956597626353715    
  0.07949137793625705    0.19894304830784162    0.39686679322579543    0.45530183843314664    0.4187371353557594    
  0.4187888504536698    0.45523504866697906    0.42467832798986804    0.45480208226292196    0.36105798067485506    
  0.1990266021099815    0.136236986095114    0.1990166601801457    0.36114824731548417    0.45477032596075023    
  0.4246484145689373    0.39786965064027807    0.42467832798986804    0.38300012724127913    0.4258116458915879    
  0.45480204884707    0.39679845650236495    0.3139300785329133    0.31407070644323365    0.3968401674427595    
  0.4544893399799956    0.4259649798452511    0.3829253189037681    0.38300012724127913    0.3655206490119073    
  0.38300011000303796    0.42467833541675837    0.4552350871062272    0.4475050658264386    0.43392839275397566    
  0.44722906512844574    0.4552732960971037    0.42490024825217315    0.3829486781419798    0.3655206490119073    
  0.3655207342383477    0.38300003458317844    0.42467838273265224    0.45523500021335633    0.44750520880425987    
  0.43392832139559007    0.4472291787273141    0.45527320340530486    0.42490034847631153    0.3829485803385568    
  0.3655207342383477    0.38294857459196513    0.38292535890221585    0.39786958738362943    0.418788941073649    
  0.43087120974858184    0.4327284992001377    0.43274945577757595    0.43111746335582923    0.41875503963505745    
  0.39766163686420664    0.38294857459196513    0.42490033266356175    0.42596491927042934    0.4246485125450652    
  0.4187370827723516    0.40439799361202655    0.3886275120891618    0.3826045332090546    0.38866145882541064    
  0.404151603683219    0.4187550613424251    0.42490033266356175    0.45527309860864745    0.45448943388423096    
  0.45477023272177297    0.45530192607793224    0.43086807293192453    0.38868236142378265    0.35959734947688204    
  0.3595239541999968    0.38866140072451044    0.4311175062724151    0.45527309860864745    0.44722917748358326    
  0.3968400854612268    0.36114829349425914    0.39686672259870087    0.44746618114220554    0.43272902253464385    
  0.38254590112517084    0.3595973496094568    0.3826044966130798    0.43274948181996237    0.44722917748358326    
  0.4339283081401314    0.31407076586909494    0.199016607003261    0.1989431186272313    0.31379437955269435    
  0.4341152824581442    0.4327290351056751    0.3886823947375147    0.3886274517764978    0.4327285605634084    
  0.4339283081401314    0.4475051258729536    0.3139300326025803    0.136237039962451    0.07949133353434955    
  0.13643410458612232    0.31379436444177056    0.4474662174751805    0.43086806391936    0.40439798210437844    
  0.4308712790562029    0.4475051258729536    0.45523497866279083    0.39679857978324873    0.19902656972847307    
  0.0795660162840258    0.07949132930838541    0.19894310628899428    0.39686670721904127    0.4553019683947642    
  0.4187370361001264    0.4187889367979625    0.45523497866279083    0.4246784136699623    0.45480196112971516    
  0.3610580507636005    0.1990265364967732    0.13623705577595174    0.19901658275239065    0.36114832295148536    
  0.4547702440490393    0.4246485067156812    0.3978695936210833    0.4246784136699623    0.38300005732980474    
  0.4258117496234981    0.454801953312199    0.39679855392491453    0.31393000324028353    0.31407080128711384    
  0.3968400703211012    0.4544894336753074    0.42596488535850735    0.38292539544984455    0.38300005732980474    
  0.3655207342383477    0.38300003458317844    0.42467838273265224    0.45523500021335633    0.44750520880425987    
  0.43392832139559007    0.4472291787273141    0.45527320340530486    0.42490034847631153    0.3829485803385568    
  0.3655207342383477    0.3237050624017927    0.34039480190455923    0.3833746084990094    0.426963599242647    
  0.4434678536976508    0.4428034440735153    0.4432898790826794    0.4269897707492494    0.38349611285492147    
  0.34036895060563527    0.3237050624017927    0.3403689042317133    0.34034706425596994    0.3568074544333668    
  0.38257485887485787    0.40399752377956244    0.4140174162388927    0.4140299070055247    0.40415376884329474    
  0.3825556511477409    0.3566852692672913    0.3403689042317133    0.38349614777075697    0.38307431130525516    
  0.3833573414161243    0.3825483535476522    0.3773096267778176    0.3702988739917017    0.3674688213644696    
  0.3703165388241015    0.3771581431872737    0.3825556864920398    0.38349614777075697    0.4269897078580463    
  0.43135190482563757    0.43151412563476943    0.4269997850458855    0.40399267982231335    0.3703374789250471    
  0.34745076502065636    0.3474148345292081    0.37031653146242843    0.4041537483828221    0.4269897078580463    
  0.4432898935602849    0.42551435671290155    0.40583400240706125    0.42553280663560555    0.44346322491005324    
  0.4140040094957822    0.3674433156545713    0.3474507741417484    0.36746882014957305    0.414029964038785    
  0.4432898935602849    0.4428034210883258    0.383512107140376    0.2995081217553542    0.299459930261661    
  0.38329419663733794    0.44292923631046827    0.4140039982138148    0.37033751560124273    0.3702988435225362    
  0.4140174283890074    0.4428034210883258    0.44346783913792215    0.38340660629462864    0.24469576990510422    
  0.18326336043776742    0.24487673280344624    0.3832941698446743    0.4434632954093847    0.40399274600192275    
  0.37730956042626257    0.40399757695733596    0.44346783913792215    0.4269635661204774    0.4255037381348758    
  0.29950711022831994    0.1833522424999625    0.18326333898755626    0.2994599046053315    0.42553277940395484    
  0.4269997960270524    0.3825483389739244    0.3825748688976931    0.4269635661204774    0.38337459449950356    
  0.43153044458743384    0.4057850314722604    0.2995070639168079    0.24469575813350936    0.2995081486435768    
  0.4058340585455204    0.43151411234449494    0.38335734942936767    0.35680746214076087    0.38337459449950356    
  0.3403947991753353    0.38298664548196226    0.43153044854623507    0.4255037252327964    0.38340657688447743    
  0.3835121090444538    0.42551437246941637    0.4313519014270046    0.38307430751310506    0.3403471178654103    
  0.3403947991753353    0.3237050624017927    0.34039480190455923    0.3833746084990094    0.426963599242647    
  0.4434678536976508    0.4428034440735153    0.4432898790826794    0.4269897707492494    0.38349611285492147    
  0.34036895060563527    0.3237050624017927    0.2659742792373048    0.28147903711243627    0.3240725284887729    
  0.3780249057707142    0.41854440153698325    0.43214846284617364    0.4184921054369078    0.3780337677130953    
  0.3240989189699882    0.28147584835554784    0.2659742792373048    0.2814758222016485    0.2814662221635519    
  0.30092828304120994    0.3335206384496198    0.36655531897962573    0.38680191424754046    0.3868047393400645    
  0.36660258308626015    0.3335147303331135    0.3008968595918833    0.2814758222016485    0.32409891045918277    
  0.32008109261985684    0.324069692099514    0.33351497953201403    0.34347807196712443    0.35055058388651267    
  0.35313773668828563    0.35055399929361264    0.34343636397008837    0.3335147640503179    0.32409891045918277    
  0.3780336525210353    0.380890100758132    0.38092202493261385    0.3780330454418523    0.366553576514374    
  0.35056223199054426    0.3396130050392665    0.33960199930741947    0.3505539060031639    0.3666025931767592    
  0.3780336525210353    0.4184921206958336    0.4272191832977016    0.42447898339342255    0.4272312964294956    
  0.4185543888777235    0.38679529307656507    0.3531331950298278    0.33961302110368985    0.3531377232869417    
  0.3868047966077443    0.4184921206958336    0.43214846829346715    0.4404282556709573    0.4167188084037983    
  0.4167041708135995    0.44035215227359364    0.43217994489647305    0.38679528836656135    0.3505622598708662    
  0.35055054126312957    0.3868019524585446    0.43214846829346715    0.41854435337146617    0.44039547316569744    
  0.40029368987465386    0.36936178833452593    0.4003565824185892    0.44035210824808735    0.4185544010109367    
  0.36655358036170027    0.3434780447215174    0.3665553671719575    0.41854435337146617    0.3780248712322111    
  0.42723230647090166    0.41671298840680526    0.3694001724312482    0.36936181921721917    0.4167041647611496    
  0.4272312704238368    0.3780330565845312    0.3335149672585077    0.3335206197669601    0.3780248712322111    
  0.32407253038922185    0.3809302493474311    0.42446847178846675    0.4167129556167603    0.40029367904284946    
  0.41671877352144243    0.42447900663276095    0.3809220446343886    0.3240696908078112    0.3009282594250748    
  0.32407253038922185    0.2814790443430755    0.3200617805461743    0.3809302323186939    0.427232308457664    
  0.44039542857150654    0.44042830806063843    0.4272191720928597    0.3808901229698038    0.3200810727914841    
  0.281466232894977    0.2814790443430755    0.2659742792373048    0.28147903711243627    0.3240725284887729    
  0.3780249057707142    0.41854440153698325    0.43214846284617364    0.4184921054369078    0.3780337677130953    
  0.3240989189699882    0.28147584835554784    0.2659742792373048    0.2209983149230534    0.2354906521713527    
  0.2762467947251034    0.33252816704337174    0.382763686522525    0.4029377045163491    0.3827591287389955    
  0.3325287900111376    0.2762453593209974    0.23549267518754624    0.2209983149230534    0.23549267814366429    
  0.23548992936571864    0.25845336417324216    0.29825525656401874    0.3418686324528944    0.3708149499939435    
  0.37080923439128244    0.3418720924917396    0.29825755999782566    0.25845190280887637    0.23549267814366429    
  0.27624537298936114    0.2679166114220631    0.27625134153662795    0.29825612233883203    0.3262944428097681    
  0.3497185788836959    0.3587788242699918    0.34972355769887414    0.3262893048530332    0.2982575931837099    
  0.27624537298936114    0.33252870870159296    0.32555656245385445    0.3255535634104728    0.3325228455971418    
  0.3418692590251482    0.3497271503282115    0.3541998703850362    0.3542037027199558    0.34972352120778516    
  0.3418721169322526    0.33252870870159296    0.38275914608009476    0.38729151643866044    0.3873258610867161    
  0.38729205167133723    0.3827735188711774    0.3708070408754736    0.3587815113381712    0.3541998749286223    
  0.3587788039534197    0.37080927507771766    0.38275914608009476    0.40293765386957026    0.4254572531883824    
  0.4311078144297731    0.43111495471951716    0.4254480428528552    0.40293434316995824    0.37080705078294823    
  0.3497271884265708    0.34971852188567026    0.3708150108772669    0.40293765386957026    0.3827636070181621    
  0.42545376113041417    0.44464402930234664    0.44665460017282405    0.4446432571470743    0.4254480424021046    
  0.38277356388558464    0.3418692839525584    0.32629443595732005    0.34186871267569735    0.3827636070181621    
  0.3325281545753936    0.3872968522804123    0.43111009059095945    0.44666912452108637    0.4466545809440674    
  0.4311149240695206    0.3872920412652886    0.33252285302484524    0.2982561047050296    0.29825525006530107    
  0.3325281545753936    0.27624681209421215    0.32555896358199105    0.3873218453830828    0.4311100543806227    
  0.44464405239659344    0.4311077843699132    0.38732590835826197    0.3255535686417906    0.27625132232652966    
  0.25845336576310146    0.27624681209421215    0.23549065170132039    0.26791787180802584    0.3255589564377684    
  0.3872968322176513    0.42545373375053963    0.4254572931310318    0.38729151636728626    0.325556555124748    
  0.26791659274941665    0.23548997390450174    0.23549065170132039    0.2209983149230534    0.2354906521713527    
  0.2762467947251034    0.33252816704337174    0.382763686522525    0.4029377045163491    0.3827591287389955    
  0.3325287900111376    0.2762453593209974    0.23549267518754624    0.2209983149230534    0.20462510553169078    
  0.21872965390699342    0.2585463446677007    0.31455898205025595    0.3662864305704634    0.3876693458428088    
  0.3662864099495916    0.31455901715742846    0.25854634086808037    0.21872967808127733    0.20462510553169078    
  0.21872965471126202    0.21873162430395204    0.2457851179576125    0.2942007193884814    0.3487242225562183    
  0.38536147575860663    0.3853547065417983    0.34872169255406943    0.2942026995992427    0.24579040094773058    
  0.21872965471126202    0.25854634907467705    0.24578509827678394    0.2585552672655272    0.2941998987382561    
  0.3419582304066226    0.38228020442510074    0.3977243909089847    0.38228851802559777    0.3419552734861573    
  0.2942027305461882    0.25854634907467705    0.31455895172870724    0.29420071127302094    0.29419992445820564    
  0.31454892221296016    0.34872375110912796    0.3822919673135599    0.4018838828068363    0.40189489459924244    
  0.38228849244618146    0.3487216675728942    0.31455895172870724    0.3662864159744444    0.3487242490501164    
  0.3419581922894675    0.34872377876066923    0.3662942954378523    0.38535671444359526    0.39772231626016047    
  0.40188387632890804    0.3977243769540307    0.38535476333169344    0.3662864159744444    0.38766934279462995    
  0.3853614756127831    0.3822801783304726    0.382291975681003    0.38535674129416964    0.3876586396477652    
  0.3853567093452152    0.38229199655571144    0.38228016193652414    0.3853614850056004    0.38766934279462995    
  0.3662863945058699    0.38535471836641394    0.3977243989441036    0.40188389469724534    0.3977222964661698    
  0.3853567165204958    0.36629432121397637    0.3487237921420403    0.3419581962859718    0.3487242750127627    
  0.3662863945058699    0.31455894476944685    0.3487216845758684    0.38228850060052477    0.40189488330800144    
  0.4018838816301641    0.3822919699917124    0.34872376294490054    0.3145489262993519    0.2941998887959753    
  0.29420073149149706    0.31455894476944685    0.25854635359142303    0.29420271146065635    0.3419552679771492    
  0.38228847643756675    0.397724379027736    0.3822802035516858    0.34195823558213456    0.29419992136935474    
  0.25855525715445205    0.24578510933086767    0.25854635359142303    0.2187296483000795    0.24579041235308605    
  0.2942027021388427    0.34872167829998985    0.38535469230337366    0.38536148557413114    0.348724268120635    
  0.2942007072193737    0.2457850957172457    0.21873165573372053    0.2187296483000795    0.20462510553169078    
  0.21872965390699342    0.2585463446677007    0.31455898205025595    0.3662864305704634    0.3876693458428088    
  0.3662864099495916    0.31455901715742846    0.25854634086808037    0.21872967808127733    0.20462510553169078    
  0.22099829850529462    0.23549267047392022    0.2762453493463883    0.33252874535984434    0.3827591837220931    
  0.4029376865786406    0.3827636372402343    0.3325282267615345    0.2762468082106906    0.23549068586225655    
  0.22099829850529462    0.2354906725503562    0.23548994985642704    0.26791661690034774    0.3255565754308319    
  0.38729147049453333    0.42545722693132587    0.42545376700246157    0.3872968480383647    0.3255589413838006    
  0.2679178601551068    0.2354906725503562    0.2762468201668893    0.2584533643387451    0.2762513345784017    
  0.3255535395506184    0.3873259179096611    0.4311078118232544    0.4446440314791553    0.431110115449784    
  0.38732180814615025    0.32555896929905837    0.2762468201668893    0.3325281415788383    0.2982552267480857    
  0.29825611369617366    0.33252284601504645    0.38729202919977634    0.4311149502601255    0.4466545751176758    
  0.4466691054206912    0.43111005323824364    0.3872968612062227    0.3325281415788383    0.38276364868378426    
  0.34186867167997054    0.3262944320426138    0.341869289324577    0.38277351138072685    0.4254480167676275    
  0.4446433172872379    0.4466545840847489    0.4446440238968264    0.4254538247706457    0.38276364868378426    
  0.40293766533797304    0.3708149771674691    0.34971855935121793    0.3497271329942053    0.370807061632797    
  0.40293432475625174    0.4254480436168697    0.43111498358176653    0.4311077782175771    0.42545726993940086    