#     DFTpy    
  CRYSTAL 
    
  PRIMVEC    
  1.1213808832487047    -1.9422886644232202    0.0    
  1.1213808832487047    1.9422886644232202    0.0    
  0.0    0.0    3.79148173062069    
  PRIMCOORD    
  2    1    
  Si    1.1213808832487047    0.64742955480774    0.9478704326551723    
  Si    1.1213808832487049    -0.64742955480774    2.8436112979655164    
  BEGIN_BLOCK_DATAGRID_3D    
  3d_datagrid_density    
  BEGIN_DATAGRID_3D#0    
  11    11    17    
  0.0    0.0    0.0    
  1.1213808832487047    -1.9422886644232202    0.0    
  1.1213808832487047    1.9422886644232202    0.0    
  0.0    0.0    3.79148173062069    
  0.3298257866997939    0.3477289843559235    0.3976572993414939    0.4650546351216092    0.5232011761947737    
  0.5459611071837557    0.5232011573236117    0.4650546781632127    0.3976573570343696    0.3477290077008669    
  0.3298257866997939    0.3477289886234737    0.347723739991855    0.3816512214898428    0.4403713800772371    
  0.5028074116296267    0.5423234575138632    0.542330372566604    0.5028135797768618    0.440366746531043    
  0.38164844952075344    0.3477289886234737    0.3976573161457778    0.3816512528143487    0.397659971710915    
  0.4403631946839733    0.49388716913397795    0.5358121891989286    0.5508794488842456    0.5358061414350652    
  0.4938920257570147    0.44036675619445764    0.3976573161457778    0.46505465723033745    0.44037137685092864    
  0.4403632100098725    0.46505639385370307    0.5028135885973121    0.5358078725122903    0.5517568026590697    
  0.5517468543612434    0.5358062033199865    0.5028134728887088    0.46505465723033745    0.5232011689519545    
  0.5028074505910911    0.4938872780510899    0.502813640845583    0.5232022655425519    0.5423250540366167    
  0.5508736436951025    0.5517568320297421    0.5508794009326804    0.5423303594106924    0.5232011689519545    
  0.5459611359329593    0.5423234751145913    0.5358122626878056    0.5358078919214415    0.5423250431774037    
  0.5459633647288451    0.5423250493113431    0.5358079660411362    0.5358122778051432    0.5423234203992016    
  0.5459611359329593    0.5232011587774619    0.5423304050430111    0.5508795254017356    0.5517568499943464    
  0.5508736854957074    0.5423249747977965    0.5232022183097866    0.5028136617425053    0.4938872227188956    
  0.5028074204018428    0.5232011587774619    0.4650546146695561    0.5028134621627773    0.5358061323504519    
  0.5517468297757041    0.5517567614156783    0.5358078687191579    0.5028135939414901    0.4650563747711477    
  0.44036324367031976    0.44037136568816215    0.4650546146695561    0.3976573209786601    0.44036675389126895    
  0.49389203097690926    0.5358061315023585    0.5508794099008351    0.5358122226022222    0.49388722563503384    
  0.4403632223715919    0.39765996784661867    0.3816511731112823    0.3976573209786601    0.34772898428223664    
  0.3816484964041991    0.44036677233803456    0.5028135998920034    0.5423303813942986    0.5423234562601961    
  0.5028073875322123    0.4403713840548446    0.381651221688077    0.3477237697517384    0.34772898428223664    
  0.3298257866997939    0.3477289843559235    0.3976572993414939    0.4650546351216092    0.5232011761947737    
  0.5459611071837557    0.5232011573236117    0.4650546781632127    0.3976573570343696    0.3477290077008669    
  0.3298257866997939    0.3553439542211823    0.3734546245692129    0.42231541994722066    0.4842981684083681    
  0.5336710872700328    0.5517558585047684    0.5336667008657234    0.4842945981302612    0.4223224182422828    
  0.37345189851082355    0.3553439542211823    0.37345192862377996    0.37345687170482966    0.4030995264633789    
  0.4527902089171771    0.5042358660991452    0.5363468507380751    0.5363550859832229    0.5042502776071914    
  0.452781254319749    0.40310054075371154    0.37345192862377996    0.42232240023233464    0.41044139460515555    
  0.4223167598207168    0.4527796732903923    0.4898032599379316    0.518887649582198    0.5295201624516379    
  0.5188798903661023    0.4898002076009851    0.4527811741749661    0.42232240023233464    0.48429458834074435    
  0.46883553068186107    0.46883742261177874    0.4842954638021529    0.5042379235607096    0.5188907133694465    
  0.524785986983974    0.5247878944231402    0.5188799588241116    0.5042501835622056    0.48429458834074435    
  0.5336668046568755    0.5205625399129047    0.5122944403709823    0.5205745152837952    0.5336788364213886    
  0.5363512811050557    0.5295082892003499    0.5247859904561145    0.5295201435308123    0.5363551070478891    
  0.5336668046568755    0.551755825737344    0.5459447208291334    0.5283366087317863    0.5283351481420471    
  0.5459222956608741    0.5517630996173574    0.5363512156050285    0.5188907741546154    0.518887657766127    
  0.5363467832568144    0.551755825737344    0.5336711984929012    0.5459348162139082    0.5283484711016813    
  0.5137939199230991    0.5283565453924239    0.545922291399543    0.533678728782857    0.5042380553060816    
  0.4898032968113127    0.5042359059365891    0.5336711984929012    0.484298100870256    0.5205764478559456    
  0.5283322674625139    0.5137869651998558    0.5137938135120648    0.5283351995971298    0.5205745126590345    
  0.48429542945593956    0.4527797289193754    0.4527902474915657    0.484298100870256    0.4223153903075986    
  0.4688307385390198    0.5123053760887537    0.5283322645019258    0.5283484081879056    0.528336669239276    
  0.5122944470209144    0.468837387801362    0.4223167662103783    0.4030994586753673    0.4223153903075986    
  0.3734545669505347    0.4104452877628062    0.4688307769480816    0.5205765051486478    0.5459348337861747    
  0.5459446958759242    0.5205624848263134    0.46883556903435963    0.41044141457202205    0.3734567995518115    
  0.3734545669505347    0.3553439542211823    0.3734546245692129    0.42231541994722066    0.4842981684083681    
  0.5336710872700328    0.5517558585047684    0.5336667008657234    0.4842945981302612    0.4223224182422828    
  0.37345189851082355    0.3553439542211823    0.4257951304134088    0.4429451368812396    0.4841385776286211    
  0.5235310368166604    0.5404580207056199    0.5420665419209572    0.5404163027434296    0.5235274525833828    
  0.48417226750170583    0.44293640888346353    0.4257951304134088    0.4429363771729817    0.4429373276051238    
  0.46689101165822    0.5024927356179564    0.533642962153209    0.5496211904181861    0.5496412032738286    
  0.5336841329292451    0.5024878455004999    0.46686189791366106    0.4429363771729817    0.4841721267005649    
  0.47569123735725277    0.4841381187759032    0.5024763061297216    0.5196111441953013    0.5298203751252546    
  0.5327762440188583    0.5298169112607862    0.5195710614417087    0.5024878871092208    0.4841721267005649    
  0.5235274202763525    0.5077909261739445    0.5078288818435941    0.5235317227526617    0.5336465207295097    
  0.5298282027371226    0.5220308657242552    0.5220255763509489    0.5298169355999093    0.5336840305457698    
  0.5235274202763525    0.5404164115802194    0.5016022286799074    0.4784732356622477    0.5016119445823963    
  0.540456272672404    0.5496360591763517    0.5327537574254053    0.5220309138578184    0.5327762201600037    
  0.5496412511056129    0.5404164115802194    0.5420664511271386    0.47385496729687987    0.4021079093859644    
  0.40209760203513245    0.4738013136135923    0.5420846587071438    0.5496360836196255    0.5298282884082727    
  0.5298204610067847    0.5496212077971616    0.5420664511271386    0.54045800587211    0.4738246117875579    
  0.362416296823804    0.31123401543408974    0.36245912366712474    0.47380124445101096    0.5404562639278487    
  0.5336465349113003    0.5196112138188568    0.5336429857379127    0.54045800587211    0.523531076382639    
  0.501603049596847    0.40210880989197095    0.31124724945462356    0.3112339708811562    0.40209762896460594    
  0.5016119289001426    0.523531746083752    0.5024763262589679    0.502492705718237    0.523531076382639    
  0.48413854987300053    0.5078272696524837    0.47846964616769294    0.40210877819153035    0.36241621193389656    
  0.402107973737951    0.4784732144417918    0.507828871197108    0.4841381173159676    0.466890982302308    
  0.48413854987300053    0.44294512932503183    0.475673421886776    0.507827340062419    0.5016031244000462    
  0.4738246233313091    0.4738548885947782    0.5016022127279204    0.5077909012200065    0.4756913026985094    
  0.44293733030576554    0.44294512932503183    0.4257951304134088    0.4429451368812396    0.4841385776286211    
  0.5235310368166604    0.5404580207056199    0.5420665419209572    0.5404163027434296    0.5235274525833828    
  0.48417226750170583    0.44293640888346353    0.4257951304134088    0.5077637021330048    0.5221255420543149    
  0.5485170177315751    0.5506550070193659    0.5195287316342925    0.49870856151692966    0.5194779964997313    
  0.5506520900585651    0.5485691607807825    0.5221095195089284    0.5077637021330048    0.5221095023108437    
  0.5221137385465383    0.5394564520071962    0.5592551765733331    0.5668622323635818    0.5632051936043456    
  0.5632353673535091    0.5669046290199672    0.5592613187768779    0.5394015441909733    0.5221095023108437    
  0.5485691317843036    0.5417592038369703    0.5485047492210736    0.5592405321275172    0.5614902809371207    
  0.5556848761324835    0.5515793855493948    0.55568976289655    0.5614320487466609    0.5592612767537664    
  0.5485691317843036    0.5506520751107543    0.5231613941024615    0.5232272591376929    0.5506627768950141    
  0.5668713461162295    0.5556866178448324    0.5386586173388267    0.5386262171558379    0.5556897979343492    
  0.5669045807576142    0.5506520751107543    0.5194781266917453    0.43267900875980336    0.3891937410953042    
  0.43269201778227295    0.5195046437607486    0.5632427577252715    0.5515403659424788    0.5386586554124073    
  0.5515793448857034    0.5632353404088735    0.5194781266917453    0.49870850180066584    0.34666421572230294    
  0.23356486048002137    0.23354226923517618    0.3466266971457135    0.49872401112834197    0.5632426984412092    
  0.5556866868904998    0.5556848636441444    0.5632051364624665    0.49870850180066584    0.5195287933864591    
  0.34664731733500115    0.1758368667790841    0.12014120068426298    0.17587255396183327    0.34662670077710267    
  0.5195046030551439    0.5668714770512329    0.561490404686136    0.5668622399553693    0.5195287933864591    
  0.5506549550712141    0.43266564504156496    0.233568334237244    0.12014567295989562    0.120141168292848    
  0.23354226740827522    0.43269204782783144    0.5506627385746348    0.5592405656457251    0.5592550410028612    
  0.5506549550712141    0.5485171081402151    0.5232368178644901    0.3891783558500499    0.23356835777293541    
  0.17583682073415474    0.23356489971975378    0.38919368831190715    0.5232272324538266    0.5485047103067197    
  0.5394564243555868    0.5485171081402151    0.5221255187477973    0.5417104733019202    0.5232368059773272    
  0.4326657003946265    0.34664734587196155    0.3466641488603128    0.4326789626079808    0.5231613863385703    
  0.5417591688394485    0.5221137328303807    0.5221255187477973    0.5077637021330048    0.5221255420543149    
  0.5485170177315751    0.5506550070193659    0.5195287316342925    0.49870856151692966    0.5194779964997313    
  0.5506520900585651    0.5485691607807825    0.5221095195089284    0.5077637021330048    0.5444998613148402    
  0.5573653274804214    0.5757241817847407    0.5579502643837236    0.5029429766808752    0.47185441380395055    
  0.5029197946484169    0.5579412594983133    0.5757719550661126    0.5573517746259934    0.5444998613148402    
  0.557351829440449    0.5573655157032565    0.5718036610614214    0.5843331387360583    0.580494059827543    
  0.5669692060461236    0.5669958575970134    0.5805156514899722    0.5843460941290509    0.5717533094173628    
  0.557351829440449    0.5757718520957613    0.5691572337256356    0.5757099434588804    0.5843231536577869    
  0.5809433762121743    0.5680423339236503    0.5605546182983742    0.5680510480896321    0.5808993773843548    
  0.5843461272065459    0.5757718520957613    0.5579412116456077    0.5228392074706567    0.522888510079851    
  0.557957733472524    0.5805025994320506    0.5680417009278209    0.5471544677950995    0.5471120782265878    
  0.5680510542946672    0.5805155245864768    0.5579412116456077    0.5029198313183711    0.39393626382494207    
  0.34294673080435545    0.3939582592141662    0.502914941830509    0.5670210501754313    0.5605035110715028    
  0.5471544944618614    0.5605545574757222    0.5669958426239448    0.5029198313183711    0.47185435143390275    
  0.28835193890324184    0.16984581494956758    0.1698246608085333    0.2883422437249243    0.4718499811528493    
  0.5670209815854123    0.5680418330527989    0.5680423983490805    0.5669691770417559    0.47185435143390275    
  0.502942928667788    0.28834823321923614    0.11444856784299652    0.06721389965486056    0.11446037622567813    
  0.2883421782516268    0.5029149111780399    0.5805026691626258    0.5809433873850681    0.5804940212245953    
  0.502942928667788    0.557950282847022    0.39393077411608934    0.1698542165990599    0.06720148399248956    
  0.06721387384908589    0.16982466699461732    0.39395820885525623    0.5579576947211172    0.5843231803505848    
  0.5843331106809662    0.557950282847022    0.5757241384196574    0.5229021720459617    0.3429291304168854    
  0.16985420851758398    0.11444853924055094    0.16984582671744464    0.342946713778467    0.5228885509193878    
  0.5757099573009353    0.5718035572662689    0.5757241384196574    0.5573653788264239    0.5691154797996271    
  0.5229022246901267    0.3939308534752779    0.28834825482184756    0.28835193117515034    0.39393626478541766    
  0.5228391579969711    0.5691571983379944    0.5573655648942217    0.5573653788264239    0.5444998613148402    
  0.5573653274804214    0.5757241817847407    0.5579502643837236    0.5029429766808752    0.47185441380395055    
  0.5029197946484169    0.5579412594983133    0.5757719550661126    0.5573517746259934    0.5444998613148402    
  0.5077637196422482    0.5221255562048961    0.5485170343839744    0.5506549710119419    0.5195286725195576    
  0.49870854280130034    0.5194780310039248    0.5506521152870893    0.5485691216129531    0.522109467398359    
  0.5077637196422482    0.5221094936775423    0.5221138022201468    0.5394564604848529    0.5592550811719962    
  0.5668622521079132    0.5632051487947479    0.5632353025721472    0.5669046873178487    0.5592612768307821    
  0.5394015613353886    0.5221094936775423    0.5485691090531957    0.54175921026111    0.5485047120140497    
  0.5592405202284187    0.5614903290942067    0.5556848695933506    0.5515793997967631    0.5556897372565719    
  0.5614321003186677    0.5592612528816057    0.5485691090531957    0.5506520721796988    0.5231613981255034    
  0.5232272400686667    0.5506627605278054    0.5668713295550674    0.5556865910050526    0.5386585996436342    
  0.5386261987850022    0.5556898176844224    0.5669045641203578    0.5506520721796988    0.5194781265571399    
  0.4326789440087017    0.3891937174410372    0.43269202018327174    0.5195046560711079    0.5632427769290094    
  0.5515403372715357    0.53865863616453    0.5515793539571859    0.5632353383593768    0.5194781265571399    
  0.49870848154649183    0.3466641634416799    0.2335648618803067    0.23354224762670012    0.346626731626436    
  0.4987240059583227    0.5632426931248861    0.5556866592783344    0.5556848655752521    0.5632051625127563    
  0.49870848154649183    0.5195287891541339    0.34664732855697344    0.17583686960905678    0.1201411995367554    
  0.17587254529848875    0.34662672879878353    0.5195045445203192    0.5668714062433354    0.5614903404596411    
  0.5668622231916125    0.5195287891541339    0.5506549172478605    0.43266568994510596    0.23356832173552605    
  0.12014567116749325    0.12014117980822747    0.23354230266762532    0.43269201695382215    0.5506627254601353    
  0.5592406113349867    0.5592550654541227    0.5506549172478605    0.5485170638791053    0.5232368079960802    
  0.38917836462465044    0.23356831197560918    0.1758368432464583    0.23356488996735186    0.38919372272607533    
  0.5232272371629613    0.54850470572298    0.5394563766471557    0.5485170638791053    0.5221254548537285    
  0.5417104309969124    0.5232368207479838    0.43266569627470386    0.3466473569332384    0.3466641581120799    
  0.43267897397016275    0.5231613580258411    0.5417592429740324    0.5221136920787418    0.5221254548537285    
  0.5077637196422482    0.5221255562048961    0.5485170343839744    0.5506549710119419    0.5195286725195576    
  0.49870854280130034    0.5194780310039248    0.5506521152870893    0.5485691216129531    0.522109467398359    
  0.5077637196422482    0.4257950675391801    0.44294513460672863    0.48413853953544816    0.5235310603630005    
  0.5404580463991734    0.5420665079657553    0.5404162898851832    0.5235274820072158    0.4841722333702996    
  0.44293641728690275    0.4257950675391801    0.4429363797846892    0.442937327763932    0.4668910243234672    
  0.5024926938153866    0.5336430109058647    0.5496211904685513    0.5496412792059348    0.5336840905033692    
  0.5024879123732896    0.4668618738561685    0.4429363797846892    0.48417216435607174    0.47569124017639425    
  0.48413811617880026    0.5024763390286956    0.5196111718925219    0.5298203896057858    0.5327762263353125    
  0.5298169235995734    0.5195710715079439    0.502487903085742    0.48417216435607174    0.5235274377626786    
  0.5077909051153738    0.5078288492812293    0.5235316945690132    0.5336465088508193    0.5298281985868045    
  0.5220308602775561    0.5220255846453415    0.5298169423957368    0.5336840545874155    0.5235274377626786    
  0.5404163799877538    0.5016022593889166    0.4784732089425683    0.5016119419774365    0.5404562666620808    
  0.5496360974650858    0.5327537682410047    0.5220309192232025    0.5327761863392063    0.5496412500259926    
  0.5404163799877538    0.5420664491515058    0.47385496767332597    0.40210792714950927    0.4020975809065068    
  0.47380130412859    0.5420846506769386    0.5496360832555972    0.5298283157952727    0.5298204633464874    
  0.5496212218781739    0.5420664491515058    0.5404579957600427    0.47382459045861414    0.36241631831873483    
  0.3112340144744912    0.36245914708547045    0.47380126878523454    0.540456242816485    0.5336465642601831    
  0.5196111600697074    0.5336429932550277    0.5404579957600427    0.5235310697669734    0.5016030168692703    
  0.4021087878519613    0.3112472380475007    0.31123398337921127    0.40209760422193275    0.5016119460908944    
  0.5235317195191146    0.5024763240140125    0.5024926853632005    0.5235310697669734    0.4841385578356799    
  0.5078272817655695    0.4784696459902115    0.4021087816295347    0.3624161931602107    0.4021080069135212    
  0.4784732043859825    0.5078288532941435    0.48413814384668613    0.4668909475224153    0.4841385578356799    
  0.44294514014941905    0.4756734166647082    0.5078273813387139    0.501603101183076    0.47382462390140123    
  0.4738548722989809    0.5016022193071341    0.5077908977240795    0.47569130652796426    0.4429373129562604    
  0.44294514014941905    0.4257950675391801    0.44294513460672863    0.48413853953544816    0.5235310603630005    
  0.5404580463991734    0.5420665079657553    0.5404162898851832    0.5235274820072158    0.4841722333702996    
  0.44293641728690275    0.4257950675391801    0.3553439691219935    0.3734546071151974    0.42231541351931856    
  0.48429814380291264    0.5336711171757883    0.5517558740997358    0.5336667113371824    0.4842945770314536    
  0.42232246045228605    0.3734519016848645    0.3553439691219935    0.37345191234619557    0.37345684574606824    
  0.4030995158456031    0.4527902959193151    0.5042358970754744    0.5363468556265885    0.5363551249633745    
  0.5042502893415406    0.452781256543776    0.403100532756223    0.37345191234619557    0.42232240587247716    
  0.41044140510102733    0.4223167851221037    0.45277964448509295    0.48980324934375236    0.5188876986393062    
  0.5295201873624639    0.5188798944255708    0.48980015687380435    0.45278121408423366    0.42232240587247716    
  0.48429457763581124    0.46883558822527754    0.4688374572232318    0.4842954854725117    0.5042379244444061    
  0.5188907998132454    0.5247860187603772    0.5247878573302769    0.5188799552519351    0.5042501330078341    
  0.48429457763581124    0.5336667934912893    0.5205625368120054    0.5122944669903488    0.5205744929156054    
  0.5336788460731744    0.536351240669951    0.5295082798806366    0.524785999972102    0.529520128586696    
  0.5363551019378259    0.5336667934912893    0.5517558098709776    0.5459448305698079    0.5283366309060225    
  0.5283351742291498    0.5459222388848193    0.551763093483951    0.5363512499311849    0.5188908354121833    
  0.5188876789646153    0.5363468164563786    0.5517558098709776    0.5336712047228807    0.545934781724851    
  0.528348482907141    0.5137938743279981    0.5283565835826658    0.5459222602865861    0.5336788088963375    
  0.5042380415936013    0.48980333879822724    0.5042358742108592    0.5336712047228807    0.4842981004737125    
  0.520576444787802    0.5283323070463705    0.5137870285525976    0.5137937734159062    0.5283351841701756    
  0.5205745562373114    0.48429544855792567    0.45277968706150706    0.452790227892243    0.4842981004737125    
  0.42231543754627    0.46883076707050947    0.5123053696940321    0.5283323329777739    0.5283484542418495    
  0.5283366500387564    0.5122944397931148    0.46883741010246666    0.4223167635864475    0.4030994813144281    
  0.42231543754627    0.37345457919905156    0.4104453166174842    0.46883075247779843    0.5205765652475537    
  0.5459348353584598    0.5459446974019875    0.5205624881786006    0.46883555945286565    0.4104413807863039    
  0.37345683005055724    0.37345457919905156    0.3553439691219935    0.3734546071151974    0.42231541351931856    
  0.48429814380291264    0.5336711171757883    0.5517558740997358    0.5336667113371824    0.4842945770314536    
  0.42232246045228605    0.3734519016848645    0.3553439691219935    0.32982578158654197    0.34772899235806465    
  0.3976572926914203    0.46505466650960997    0.5232011742450444    0.5459611167579006    0.5232011365455832    
  0.4650546986599061    0.39765735643933137    0.34772901321988015    0.32982578158654197    0.3477289956704442    
  0.3477237302672279    0.38165123370816584    0.4403713801849243    0.5028074224039186    0.5423234507097109    
  0.54233037699322    0.5028135548019904    0.440366768755153    0.3816484444668024    0.3477289956704442    
  0.39765730693304074    0.3816512626615466    0.3976599646851977    0.4403631941478726    0.49388715332170086    
  0.5358121978062738    0.550879446232328    0.535806138615931    0.493892023937893    0.44036677121978174    
  0.39765730693304074    0.46505467962990527    0.4403713560667571    0.44036320686435537    0.4650563785419847    
  0.5028136009411841    0.5358078467210214    0.5517568101814174    0.5517468445121309    0.5358062187017603    
  0.5028134684327653    0.46505467962990527    0.5232011528994632    0.5028074678357894    0.4938872619120526    
  0.5028136538678794    0.5232022325810692    0.5423250729647766    0.5508736255798876    0.5517568498471435    
  0.5508793871123008    0.5423303819773877    0.5232011528994632    0.5459611552031389    0.5423234607668684    
  0.5358122576190337    0.5358078628655203    0.5423250680451525    0.5459633398350452    0.5423250396019167    
  0.5358079367744929    0.5358122883813052    0.542323404683925    0.5459611552031389    0.5232011324918089    
  0.5423304166837626    0.5508795122975523    0.5517568692092676    0.5508736824577685    0.5423249840452176    
  0.5232022016385932    0.5028136897498215    0.4938872023192969    0.5028074423246487    0.5232011324918089    
  0.4650546209094181    0.5028134670354469    0.5358061397794116    0.5517468131014197    0.5517567790214153    
  0.5358078631897677    0.5028135957398494    0.4650563450696233    0.44036325213356814    0.4403713566511583    
  0.4650546209094181    0.39765731577169866    0.4403667524668564    0.49389201671470684    0.5358061414965956    
  0.550879419099733    0.5358122342557269    0.49388722433798155    0.44036323585296194    0.3976599584854891    
  0.38165118146604576    0.39765731577169866    0.34772899474793334    0.3816484901589951    0.4403667936148782    
  0.5028135778642746    0.5423304005718749    0.5423234406300076    0.5028073996807974    0.4403713655490657    
  0.3816512476966653    0.34772376815860595    0.34772899474793334    0.32982578158654197    0.34772899235806465    
  0.3976572926914203    0.46505466650960997    0.5232011742450444    0.5459611167579006    0.5232011365455832    
  0.4650546986599061    0.39765735643933137    0.34772901321988015    0.32982578158654197    0.3553439689674655    
  0.37345195039817974    0.4223224359090694    0.48429459922238866    0.533666748348576    0.5517558510867703    
  0.5336710868284769    0.48429814051717796    0.42231543432734614    0.37345454938432787    0.3553439689674655    
  0.37345458599790976    0.37345687726307053    0.4104414337824137    0.4688355587630342    0.5205624522082762    
  0.5459447544189285    0.5459347538800562    0.5205765488615225    0.46883073720606216    0.41044526556142713    
  0.37345458599790976    0.4223154108695668    0.40309947934489887    0.422316770777051    0.4688373704027768    
  0.5122944655681682    0.5283366363441785    0.528348441506371    0.5283322314175976    0.5123054498723918    
  0.46883068344657464    0.4223154108695668    0.48429814088590845    0.45279020447498136    0.4527797075159329    
  0.48429546713661115    0.5205744095572423    0.5283351107871014    0.5137938712433945    0.5137869873028817    
  0.5283322984637205    0.5205764587765714    0.48429814088590845    0.533671170195305    0.5042359417969957    
  0.48980325896218474    0.5042380051817351    0.5336788434953973    0.5459223509182317    0.5283565576312033    
  0.5137938529852224    0.5283484269691773    0.5459347906059254    0.533671170195305    0.551755814667586    
  0.5363468290615999    0.5188876086271447    0.5188907722321915    0.5363512085968279    0.5517631142009279    
  0.545922262002809    0.5283351823959789    0.5283366527425658    0.5459446961259934    0.551755814667586    
  0.5336668463556073    0.5363551275573281    0.5295202157743654    0.524786003663185    0.5295083295659315    
  0.5363512022877136    0.5336787418786623    0.5205745343880469    0.5122944859488492    0.5205624942783333    
  0.5336668463556073    0.4842945320348877    0.5042502047176346    0.5188798985220542    0.5247878790754158    
  0.5247858887465736    0.5188908427899762    0.5042379983090662    0.4842954180091367    0.468837425850755    
  0.46883557695217154    0.4842945320348877    0.422322428053744    0.45278123100480483    0.4898001566680344    
  0.5188799154872318    0.5295201610072202    0.5188876541611541    0.4898032699399199    0.45277966812117726    
  0.4223167820455228    0.41044136288280025    0.422322428053744    0.37345190696855024    0.40310056500466374    
  0.4527812595720858    0.5042502428009706    0.5363551429981052    0.5363468125861707    0.5042358682705068    
  0.4527902439844254    0.40309948189197514    0.3734568126134283    0.37345190696855024    0.3553439689674655    
  0.37345195039817974    0.4223224359090694    0.48429459922238866    0.533666748348576    0.5517558510867703    
  0.5336710868284769    0.48429814051717796    0.42231543432734614    0.37345454938432787    0.3553439689674655    
  0.42579510496955897    0.44293637804778924    0.48417218186119526    0.5235273789923132    0.5404163342156881    
  0.5420665590456946    0.5404579656038153    0.5235311341276446    0.48413864076838176    0.44294518828072615    
  0.42579510496955897    0.44294514758083237    0.4429373167424953    0.4756912767816929    0.5077909605561806    
  0.5016022240890978    0.4738549207901033    0.47382457167811304    0.5016031176830545    0.507827291838735    
  0.4756734217094909    0.44294514758083237    0.48413850877946757    0.4668909769568182    0.4841381265816776    
  0.5078289381275368    0.47847314353080156    0.40210794077239626    0.36241625831188734    0.4021087679955952    
  0.47846963103268086    0.5078273230442034    0.48413850877946757    0.5235310968556937    0.5024926849680207    
  0.5024763093710292    0.5235317159776455    0.5016119244539499    0.4020975493521626    0.31123401819889124    
  0.3112472289394536    0.4021087961139374    0.5016030003546403    0.5235310968556937    0.5404580563222592    
  0.5336430067284863    0.5196112215476746    0.5336465845371122    0.5404562629061148    0.473801264061874    
  0.36245911308456796    0.31123404807047794    0.3624162418661703    0.4738246371022908    0.5404580563222592    
  0.5420664573557192    0.5496212410028292    0.5298203761243977    0.5298282504714065    0.5496361480166447    
  0.5420846437327964    0.4738012748628007    0.40209761584209136    0.40210800929443496    0.4738549283337605    
  0.5420664573557192    0.5404163189814067    0.5496412568995108    0.5327762654996819    0.5220308840587261    
  0.532753751084662    0.5496360749372264    0.5404562408711496    0.5016119379815892    0.4784732047015689    
  0.5016022522402669    0.5404163189814067    0.5235274095230328    0.5336840321774403    0.5298169838343463    