#     DFTpy    
  CRYSTAL 
    
  PRIMVEC    
  5.692137931034482    0.0    0.0    
  0.0    5.692137931034482    0.0    
  0.0    0.0    5.692137931034482    
  PRIMCOORD    
  8    1    
  Si    0.0    0.0    0.0    
  Si    1.4230344827586205    1.4230344827586205    1.4230344827586205    
  Si    0.0    2.846068965517241    2.846068965517241    
  Si    1.4230344827586205    4.269103448275861    4.269103448275861    
  Si    2.846068965517241    0.0    2.846068965517241    
  Si    4.269103448275861    1.4230344827586205    4.269103448275861    
  Si    2.846068965517241    2.846068965517241    0.0    
  Si    4.269103448275861    4.269103448275861    1.4230344827586205    
  BEGIN_BLOCK_DATAGRID_3D    
  3d_datagrid_density    
  BEGIN_DATAGRID_3D#0    
  25    25    25    
  0.0    0.0    0.0    
  5.692137931034482    0.0    0.0    
  0.0    5.692137931034482    0.0    
  0.0    0.0    5.692137931034482    
  0.060920086425402545    0.1102811177478516    0.2760558786518714    0.3951731308430846    0.32289914839234246    
  0.204331557538705    0.12457672954698365    0.0809181446316024    0.05814189772303527    0.0463073244218153    
  0.040185785656296644    0.037278744200275125    0.036404420267637856    0.037278744009381935    0.04018574751171335    
  0.04630739725825486    0.05814185623955896    0.08091824429396122    0.1245765714979731    0.2043317846651607    
  0.3228988178642158    0.3951734391267474    0.27605571361205306    0.11028118183031439    0.060920086425402545    
  0.11028114095219162    0.16733476844250664    0.32237726382101983    0.40041426682104075    0.314722929515918    
  0.20059845198592635    0.12460940924599617    0.08226534582234533    0.05969683998768206    0.04768752657224598    
  0.04130779275691397    0.038217812210666766    0.0372787357093511    0.03821781828956104    0.04130782345424405    
  0.04768748462241335    0.059696900680120485    0.08226517000131582    0.12460965910606273    0.20059816228931016    
  0.31472325316674266    0.4004140155873322    0.3223774308290321    0.16733468538955326    0.11028114095219162    
  0.2760558225725604    0.32237727674837424    0.40119250491951114    0.38750191983334664    0.2878160858468399    
  0.1899692566945636    0.12478831521908382    0.08628396232474292    0.06442200884707645    0.05198537579872011    
  0.04491427282890277    0.04130781521435558    0.0401857877319024    0.041307823736036677    0.04491424988180687    
  0.05198545059499572    0.0644218815608774    0.08628411166640293    0.12478809928536792    0.18996953034553266    
  0.28781570428485165    0.3875022477763552    0.40119229901416037    0.3223773727395379    0.2760558225725604    
  0.39517345148982896    0.4004140496700851    0.38750211770802995    0.3273341323389725    0.24502793600615466    
  0.17440399681999136    0.12493131505406109    0.09283224634292254    0.07265888658379616    0.05990441783625807    
  0.051985430971890394    0.04768748130266473    0.04630738324818771    0.04768745851126409    0.051985460339836524    
  0.059904363078303324    0.07265904264182244    0.09283202662725658    0.12493155463485739    0.1744036973652805    
  0.2450282980897528    0.3273338295837748    0.387502400037246    0.40041387683990237    0.39517345148982896    
  0.32289868722147413    0.3147232964622963    0.28781579941927204    0.24502808395256467    0.19800810684979447    
  0.1567018271417653    0.12478826387376181    0.10149586794268363    0.08474810056735417    0.07265897236832722    
  0.06442187176698733    0.059696935516560724    0.05814182918069128    0.0596969962729107    0.06442178917816878    
  0.07265908966094278    0.08474793920974467    0.10149608570580379    0.12478800808825859    0.15670217466947506    
  0.19800772963309218    0.24502841332401842    0.2878154914530819    0.31472343713038037    0.32289868722147413    
  0.2043320418108288    0.20059793455164013    0.18996964191840374    0.1744037271964655    0.1567020111446743    
  0.13955729610770956    0.12460951544232207    0.11203049583736102    0.10149596710191322    0.09283204800297781    
  0.08628419637298343    0.0822650478038768    0.08091836684006462    0.08226502953832437    0.08628426464195474    
  0.09283190766703205    0.10149614796934404    0.11203023540515963    0.12460981655766101    0.13955695802980292    
  0.15670229167656902    0.17440343032593936    0.18996987813027358    0.20059776193813458    0.2043320418108288    
  0.12457623612740246    0.12460991766544956    0.12478789602753543    0.12493159838355623    0.1247880610941507    
  0.12460960710144227    0.12457663685193417    0.12460961327500882    0.12478806968459069    0.12493156347917521    
  0.12478797383518662    0.12460982280182716    0.12457635904165136    0.12460988622529962    0.12478784505082505    
  0.12493177013061717    0.12478787580140097    0.12460987447230562    0.12457630619789974    0.12460994123503627    
  0.12478774563002636    0.12493189675046769    0.12478769400872759    0.12461002632496102    0.12457623612740246    
  0.08091860796495304    0.08226484999003575    0.08628439836043546    0.09283185744372445    0.1014961301318786    
  0.1120303253244712    0.12460968221865372    0.13955716215140143    0.15670212799656336    0.1744036150633883    
  0.18996977292767697    0.2005978140164584    0.2043321348251689    0.20059779511622786    0.1899698805694316    
  0.1744034022284468    0.15670241171871802    0.13955682977277503    0.12461002215753203    0.11203001783539751    
  0.10149643797055515    0.09283162496053204    0.08628457409159439    0.08226475446380478    0.08091860796495304    
  0.05814153566390135    0.059697214691636996    0.06442157947817866    0.0726592355207815    0.08474784123721021    
  0.10149617289425093    0.12478797369164922    0.15670218740067066    0.19800772650562332    0.24502843296978685    
  0.28781537502787624    0.31472363267781117    0.3228983908629909    0.3147237524260599    0.2878152210276808    
  0.24502869997729476    0.19800749506407378    0.15670246154254613    0.12478766259682056    0.10149645888171421    
  0.0847475581395142    0.07265946032222034    0.06442145311144917    0.059697294627280156    0.05814153566390135    
  0.04630771938026224    0.04768714856787784    0.051985722513313494    0.059904117043813224    0.07265923254951566    
  0.09283185501746313    0.12493170105241096    0.17440355369723645    0.2450284162961606    0.32733356863398616    
  0.38750268763993573    0.40041356939775125    0.39517394375796017    0.40041344435213566    0.3875028295528599    
  0.3273333793547397    0.24502873752531237    0.17440324994282072    0.12493198523574454    0.09283160251427242    
  0.07265945111966764    0.05990392944517342    0.051985840825877705    0.04768709499405263    0.04630771938026224    
  0.04018545443026387    0.04130811567063813    0.044913983530372896    0.0519856921101347    0.06442167136095839    
  0.08628434934245764    0.1247878554766531    0.18996978945520618    0.28781543876602106    0.3875026925595717    
  0.4011918212505183    0.32237789501548886    0.27605525554918803    0.322377961109874    0.4011916627958916    
  0.38750290002417614    0.287815143058194    0.1899700675508404    0.12478761094540383    0.08628460331513953    
  0.06442146047959958    0.05198584621237413    0.04491388752695013    0.04130816213872296    0.04018545443026387    
  0.037279052158802006    0.03821753011997405    0.041308077703597214    0.04768724320238858    0.059697159651089474    
  0.08226492248471476    0.12460986639145384    0.20059785508530778    0.3147235925746763    0.4004136068036912    
  0.3223778114246423    0.16733426992698153    0.1102815278490813    0.1673342422798554    0.32237797735729196    
  0.40041342572650684    0.31472384023818517    0.20059757832936112    0.12461013582861027    0.08226473744455935    
  0.059697299652965406    0.0476870913487507    0.04130820455960869    0.03821746032037086    0.037279052158802006    
  0.03640415809252    0.037279016066352914    0.04018552676067366    0.04630758398464031    0.058141641646582955    
  0.08091844868814287    0.12457635899589936    0.2043320769907412    0.3228984975011917    0.39517379872873054    
  0.276055298477266    0.11028150318090577    0.0609197917989397    0.11028153034672708    0.27605519802471584    
  0.39517405044208453    0.322898222389324    0.20433230101184044    0.12457609007294311    0.08091867587709184    
  0.05814146603595154    0.046307729851274154    0.040185439661521466    0.037279048744440116    0.03640415809252    
  0.03727904056236356    0.038217534898549524    0.04130806926075973    0.04768721341934805    0.059697146009930514    
  0.08226494169691556    0.12460991305790306    0.20059784686760485    0.31472363557461297    0.4004136240249143    
  0.3223778802824856    0.16733427104720575    0.1102815344531162    0.167334265393681    0.32237796878672    
  0.400413459591579    0.3147238343430908    0.20059765914512084    0.1246101058609007    0.08226476834029801    
  0.05969729718778168    0.047687101622670744    0.04130816477544126    0.03821748484474668    0.03727904056236356    
  0.040185488924933455    0.0413081097127708    0.04491396046953978    0.05198568363639858    0.06442165811025116    
  0.08628437188377609    0.12478786098457212    0.18996984068494333    0.28781532624882467    0.3875027299232222    
  0.4011917578225927    0.32237796187372947    0.2760552466778971    0.32237794650452456    0.4011916944021729    
  0.38750277740876143    0.2878152026351759    0.18997000868907904    0.12478767849855561    0.08628451917174927    
  0.06442150419627546    0.051985790811936015    0.04491394003111743    0.04130813689134848    0.040185488924933455    
  0.04630770497937855    0.04768717186450994    0.051985713410734    0.05990409816534666    0.07265926788345028    
  0.09283175639303752    0.1249318036615046    0.1744034479781192    0.24502857224475338    0.32733346063442853    
  0.38750275546284696    0.4004134187821089    0.3951739980778056    0.4004134154098747    0.3875027978143461    
  0.32733343967969436    0.245028665416932    0.17440334383641584    0.12493189473175657    0.09283164995018377    
  0.07265940011218246    0.05990397285844099    0.05198581542721582    0.047687117448189334    0.04630770497937855    
  0.05814150018242622    0.05969723914421826    0.06442156717357804    0.07265930539190157    0.08474774801691508    
  0.10149626247025535    0.12478783621485769    0.1567023079207837    0.1980075792956101    0.2450286349258311    
  0.2878151738436969    0.3147237962538673    0.32289828038900803    0.31472382920872777    0.28781514873346653    
  0.24502865760290632    0.19800752295622914    0.15670240252919196    0.12478770802343304    0.10149640674945058    
  0.08474761730932578    0.0726593722406268    0.06442151407533722    0.05969728312853689    0.05814150018242622    
  0.08091865936534853    0.08226479228806566    0.08628446811862735    0.09283174226853419    0.10149632099213457    
  0.11203013559398435    0.12460988687963863    0.13955689509020086    0.15670236487942205    0.17440334307616812    
  0.18997000738923733    0.20059757889338034    0.20433231402570856    0.20059759003437744    0.1899699999328888    
  0.17440332865634295    0.15670238261374136    0.13955680730943182    0.12460997080839903    0.11203004292099158    
  0.10149641171041733    0.0928316334722531    0.0862845453283344    0.08226473965965175    0.08091865936534853    
  0.1245761177008439    0.12461006705535667    0.12478770485008808    0.12493183629378793    0.12478783227741215    
  0.12460984992684614    0.12457636285429197    0.12460990424808986    0.12478777537522825    0.12493183929830949    
  0.12478769686314614    0.12461008695139228    0.12457612309340996    0.12461005300484215    0.12478768526883073    
  0.12493188148682938    0.12478776393626068    0.1246099774679613    0.12457627310645765    0.12460998210500653    
  0.12478770539742162    0.12493194098998907    0.12478764213072391    0.12461009832265432    0.1245761177008439    
  0.20433226430359033    0.20059766553122266    0.1899699188061324    0.17440343753767945    0.1567023088093299    
  0.13955693780687362    0.12460983695293311    0.11203019032708271    0.10149630218454657    0.09283174879857203    
  0.08628445593388778    0.08226481852040968    0.08091860854591543    0.08226482670481665    0.08628444738482825    
  0.0928317616987101    0.1014962966078562    0.11203014408707157    0.12460993050023865    0.13955685426651357    
  0.15670240611066105    0.1744032969007583    0.18996999906560327    0.20059764998825252    0.20433226430359033    
  0.3228984413885434    0.31472363796392394    0.28781535608028663    0.2450285125862115    0.19800775051583677    
  0.15670218602961922    0.12478791043084798    0.10149619724167207    0.08474779264748121    0.07265923547754258    
  0.0644216238523869    0.05969715956034307    0.05814161175959839    0.05969715378155858    0.06442165511664778    
  0.07265924330567736    0.08474776507635118    0.10149623414244992    0.12478784386582042    0.1567023168395977    
  0.19800762320616186    0.24502863277595557    0.2878152606814209    0.314723750743073    0.3228984413885434    
  0.3951737621326903    0.40041367608375666    0.3875024931805891    0.3273338198563323    0.24502834316612324    
  0.17440365697798457    0.12493160436316819    0.09283195807343655    0.0726591147480812    0.05990419170238427    
  0.05198561570455731    0.047687287821772166    0.04630755670561794    0.04768727144951969    0.05198562404779253    
  0.059904210885204444    0.07265917278910304    0.0928318881625197    0.1249316859229835    0.17440353853988436    
  0.24502848614282624    0.32733360895347774    0.38750263685069397    0.4004136264657897    0.3951737621326903    
  0.27605555951627875    0.32237755625395276    0.401192256477007    0.3875022342379635    0.2878157711039372    
  0.1899695035018957    0.12478808440067499    0.08628418735708322    0.06442182021805747    0.051985528749809294    
  0.044914134935448255    0.041307931251434324    0.040185678420365904    0.04130793120177306    0.04491414172774518    
  0.05198554697518402    0.06442177771382705    0.08628424583363709    0.12478797020925492    0.18996968014642046    
  0.2878155482299852    0.38750245077788936    0.40119207363281156    0.32237767290738223    0.27605555951627875    
  0.11028124083775573    0.16733466964092344    0.3223773699691707    0.4004141325823738    0.31472315390510475    
  0.20059826218157673    0.1246095260336022    0.08226521328479894    0.05969690422526955    0.047687422579012456    
  0.04130787083426331    0.038217743851304616    0.03727879979138331    0.03821775201022088    0.04130786725027076    
  0.04768742158998988    0.059696964211819074    0.08226510387902047    0.1246096741241753    0.20059809034240658    
  0.3147233123719875    0.4004138529694323    0.3223775684836745    0.16733459988190494    0.11028124083775573    
  0.060920086425402545    0.1102811177478516    0.2760558786518714    0.3951731308430846    0.32289914839234246    
  0.204331557538705    0.12457672954698365    0.0809181446316024    0.05814189772303527    0.0463073244218153    
  0.040185785656296644    0.037278744200275125    0.036404420267637856    0.037278744009381935    0.04018574751171335    
  0.04630739725825486    0.05814185623955896    0.08091824429396122    0.1245765714979731    0.2043317846651607    
  0.3228988178642158    0.3951734391267474    0.27605571361205306    0.11028118183031439    0.060920086425402545    
  0.11028118640181574    0.16733470571646775    0.3223773323051852    0.4004141930821492    0.31472304799414774    
  0.20059832369180242    0.12460953171854418    0.08226525118441289    0.05969685796883241    0.04768746859057803    
  0.041307861261715095    0.038217768732481554    0.037278774331499724    0.03821775160268383    0.0413078741131221    
  0.04768743302149653    0.05969694660272275    0.0822651033978596    0.12460967516237478    0.2005981337365879    
  0.3147232777192198    0.400413906744112    0.3223775741412744    0.1673346279893254    0.11028118640181574    
  0.16733470370066975    0.23268793996925283    0.37780301335626004    0.42731233990514156    0.33219268800374807    
  0.21751241299197033    0.13955737181989744    0.09417260262804897    0.06855802870983391    0.053898704321618265    
  0.04537632339235826    0.04056730087306139    0.038217786823538165    0.03792993304615766    0.0398416222245156    
  0.044890496097995024    0.055028178611393315    0.07466783216034928    0.11203037429256095    0.17948522898547065    
  0.28363128012072364    0.37655019776386006    0.342075803583892    0.21875992867783814    0.16733470370066975    
  0.3223774731466369    0.37780277599534184    0.4512555946016681    0.430866817051231    0.32990831570222684    
  0.22853307717898194    0.1567017628715201    0.1109206730496249    0.08239600509912406    0.06428329856922572    
  0.05263288409720652    0.045376314152964434    0.041307857811295326    0.039841628558120616    0.04085530414570994    
  0.0450059396177962    0.0537478542243516    0.07048880492354821    0.10149605386065857    0.1558032860708794    
  0.2407724301815976    0.3370223339423124    0.3774111902012375    0.3420758033528939    0.3223774731466369    
  0.40041390732831866    0.4273126515146349    0.4308666959242456    0.38319690956658947    0.30609078654234895    
  0.23232035007553314    0.17440402019258372    0.13203939754043362    0.10172429408860917    0.0798304792039712    
  0.06428325584247073    0.053898764305806986    0.047687435960418495    0.04489052400444058    0.045005902539825504    
  0.048302233446978884    0.05564274101252528    0.0691503284485454    0.09283198178601432    0.13203965109414867    
  0.1917515577663591    0.2678369197478036    0.3370222531309826    0.3765502650419469    0.40041390732831866    
  0.3147234849960968    0.3321923104175138    0.32990870226934776    0.30609060872246646    0.2691503014560389    
  0.22853297953458296    0.18996931571112932    0.155803554252245    0.1263911336876519    0.10172425890585908    
  0.08239613358946649    0.06855785428549481    0.05969700757551654    0.055028095751959834    0.053747911870689155    
  0.05564270175788888    0.060935017618124365    0.07048874411954023    0.08628423957979177    0.110920374684516    
  0.14639502668589705    0.19175141589450947    0.24077265637197015    0.28363099897993643    0.3147234849960968    
  0.20059782985348218    0.2175128968656868    0.2285326402212677    0.23232065403699756    0.22853289115901518    
  0.21751250844269931    0.20059830785037447    0.17948510857583855    0.15580343089966872    0.13203960153929656    
  0.11092042940313473    0.09417282305633538    0.08226503724081786    0.0746679859594708    0.07048863058491854    
  0.06915041264222498    0.07048867367249245    0.07466798181870073    0.08226497143341682    0.09417290967577971    
  0.11092025457729178    0.13203989552342882    0.15580298900171954    0.1794855579197259    0.20059782985348218    
  0.1246100626069877    0.1395568021675975    0.1567022814809004    0.1744035692125074    0.18996958022651744    
  0.20059816880920528    0.20433172665541308    0.20059820891507965    0.18996954639046512    0.17440362031755535    
  0.15670221484454122    0.13955694078694564    0.124609924593645    0.11203012455011177    0.10149625076347053    
  0.0928318019038587    0.0862843669867434    0.08226492687180464    0.08091849240602282    0.08226487185872285    
  0.08628444438067875    0.09283167691765967    0.10149644419942579    0.11202997888518425    0.1246100626069877    
  0.08226479480481655    0.09417306106647425    0.11092023596136433    0.13203981157585729    0.15580320612499418    
  0.1794852719648945    0.20059806356466725    0.21751274603342763    0.22853266309945203    0.23232086937479934    
  0.22853245584721768    0.21751296750539453    0.20059777686277622    0.1794856241493052    0.15580295025834906    
  0.1320399453415694    0.11092019900550226    0.09417300346323236    0.08226483546659888    0.07466816305787333    
  0.07048845735192431    0.06915064593443127    0.07048840062306673    0.0746682428175911    0.08226479480481655    
  0.05969731048261745    0.06855758627639454    0.08239641927284147    0.10172396930070655    0.12639146932268552    
  0.15580321493505825    0.18996965041265057    0.2285326008307592    0.2691506608212557    0.30609019395512244    
  0.32990901562730296    0.3321919375185003    0.3147237505217514    0.283630778668396    0.24077285301763654    
  0.1917512046293313    0.14639525970981884    0.1109201002585176    0.08628452174736495    0.07048845375931549    
  0.06093532827956152    0.05564237194600686    0.05374822967641705    0.055027745517336156    0.05969731048261745    
  0.04768710670650859    0.05389910223386492    0.06428294734959054    0.07983081261828381    0.10172398048073063    
  0.13203979043077302    0.17440349568588648    0.2323209787605638    0.3060901940831354    0.3831974533966205    
  0.4308660831134477    0.4273132305233546    0.400413468494726    0.3765508051888969    0.3370218386970014    
  0.2678372885160838    0.19175113818853345    0.1320400526170657    0.09283160082615355    0.06915068318562537    
  0.05564236558998429    0.048302578597047875    0.045005565093905846    0.04489085427716182    0.04768710670650859    
  0.04130817361457845    0.0453759814282625    0.052633226166566904    0.06428295672294883    0.08239639230094964    
  0.11092024104281485    0.15670229915403847    0.22853249414349247    0.32990901441847864    0.4308660874216083    
  0.4512563486160786    0.3778022501919327    0.32237805136080255    0.34207524156242136    0.377411680320889    
  0.3370217964654626    0.24077297640555476    0.15580282831284237    0.1014965186978941    0.07048838163148355    
  0.053748227828875186    0.045005559591019983    0.040855678649747436    0.03984126560665869    0.04130817361457845    
  0.03821748733004654    0.040567607542466966    0.045376019611318284    0.05389901580429796    0.06855771937392462    
  0.09417295140985511    0.1395568964025509    0.21751299413654734    0.33219204314147227    0.4273131808567832    
  0.37780220435701717    0.23268846643338226    0.16733423020700994    0.2187604242694903    0.3420752378164476    
  0.3765508512930414    0.2836306988120616    0.1794857911201803    0.11202987862764605    0.07466828085179987    
  0.05502774991331724    0.044890858857680904    0.03984128541072973    0.03793024220997209    0.03821748733004654    
  0.037279056014163    0.03821751075297831    0.04130808982671188    0.04768719744383838    0.05969717225889958    
  0.08226488528067331    0.12460996127403068    0.20059780562141913    0.31472366317080397    0.40041350241385737    
  0.3223779565341787    0.16733426312258493    0.11028156519086409    0.16733422571225062    0.3223780139602443    
  0.4004133749536955    0.3147238471030826    0.2005975304438981    0.12461015423168571    0.08226470380499643    
  0.059697309472319424    0.047687072544418375    0.04130819599777305    0.038217455779790376    0.037279056014163    
  0.03821749410278695    0.03793018426406876    0.03984138239935064    0.04489071248393646    0.055027960750141186    
  0.07466806687721836    0.11203012700508615    0.17948554661946242    0.28363091432133175    0.3765506788283196    
  0.3420752915842153    0.21876038873645734    0.1673342603012773    0.23268852115168456    0.3778021162907439    
  0.4273133284846823    0.3321918597357118    0.2175132192367077    0.13955666664924657    0.0941731572947492    
  0.06855752115104519    0.05389912459275276    0.04537596434194391    0.040567611767675545    0.03821749410278695    
  0.04130815934223754    0.03984135897117446    0.040855543913507465    0.04500574518339237    0.05374805880042596    
  0.07048858145928641    0.1014962836361245    0.15580305113688728    0.24077273732322182    0.33702189818268524    
  0.37741162381192356    0.3420753181220125    0.32237801175925446    0.3778021016322295    0.4512564126928058    
  0.43086589453123164    0.3299092253126997    0.22853227515620603    0.15670251654949663    0.11092006259563307    
  0.08239655587486082    0.06428284103681328    0.05263330767742756    0.04537596222627859    0.04130815934223754    
  0.04768712801715544    0.0448907880842901    0.04500568719578017    0.04830243861105446    0.05564255028826771    
  0.06915045279426317    0.0928318185934059    0.13203988676759174    0.19175128592115032    0.26783714796977226    
  0.3370218613054006    0.3765508199473331    0.40041334695767467    0.4273133118197073    0.43086589046657897    
  0.38319773164962884    0.30608999863491204    0.2323211871284232    0.17440327276794423    0.13204000640614347    
  0.10172378172997819    0.07983094401670475    0.06428285164185374    0.0538991136308125    0.04768712801715544    
  0.05969728123168261    0.05502783646186384    0.05374811064866314    0.05564250882502543    0.06093519727712    
  0.07048857355302827    0.08628437392105007    0.11092022969155513    0.14639521357796012    0.1917512258339409    
  0.2407728818453684    0.2836306498517706    0.3147238958125727    0.33219181530794606    0.3299092109534744    
  0.306089975864837    0.26915099493336964    0.22853234699069003    0.18996994416879306    0.15580292979795182    
  0.12639168151701155    0.10172375473274098    0.08239657708002046    0.06855754444380678    0.05969728123168261    
  0.08226474458649513    0.07466820221424905    0.07048847940641355    0.06915054317271578    0.07048860523282113    
  0.07466805441109803    0.08226491545117123    0.09417296675579216    0.11092016962119657    0.13203996191368794    
  0.1558028784870072    0.17948573295133732    0.20059758591206794    0.2175132068674507    0.22853222810748644    
  0.23232117601519103    0.22853230329495564    0.21751306606291307    0.20059773525155689    0.1794856191401601    
  0.15580292485079714    0.13204001475639754    0.11092006070956512    0.09417313916489028    0.08226474458649513    
  0.12461012571168041    0.11202992850764454    0.10149639754002276    0.09283174285421354    0.08628437754479318    
  0.08226492015850624    0.08091848688046177    0.08226495959428139    0.08628440554174222    0.09283167765021433    
  0.10149643659842243    0.11202993692030382    0.12461013524562933    0.1395566928986648    0.1567025028680739    
  0.1744033316455446    0.18996989158893343    0.20059776718587724    0.20433213352261262    0.20059776391932732    
  0.18996999601742928    0.17440320929425762    0.15670254831107444    0.13955664908874157    0.12461012571168041    
  0.20059762608752768    0.17948568064090034    0.15580297702658194    0.1320398748236971    0.11092028680021468    
  0.09417290227523006    0.08226498001425281    0.07466806364445312    0.07048858395281461    0.06915052980214514    
  0.07048851212880852    0.07466816711105109    0.08226481105565711    0.09417306337215023    0.11092014742457477    
  0.13203988880016532    0.15580304493729621    0.1794855386857187    0.2005978411601639    0.2175130244082821    
  0.22853236977823907    0.2323212142104758    0.22853222861079625    0.21751321326334325    0.20059762608752768    
  0.3147238062449249    0.28363088914882967    0.24077273183662906    0.19175141930083178    0.14639506984958586    
  0.1109203159616123    0.08628427446700515    0.07048866425749556    0.060935113932599344    0.05564255725325849    
  0.05374805446271909    0.055027921056825045    0.05969720954657614    0.06855766227805109    0.08239640316710865    
  0.10172394240220019    0.12639146350419111    0.15580309661759173    0.18996975914251488    0.22853245472914122    
  0.2691508515681832    0.30609003182853806    0.3299091646373764    0.33219186192748207    0.3147238062449249    
  0.4004136070847862    0.3765505189651704    0.33702215188516416    0.2678369376356003    0.19175150922124057    
  0.13203968510013644    0.0928319517895161    0.06915040024571012    0.05564263000604112    0.048302350582093374    
  0.04500576642241751    0.044890693074030256    0.04768727808273875    0.053898944348988516    0.06428302837700048    
  0.07983072949314562    0.10172399346698399    0.1320397649457848    0.17440354592800422    0.23232090684034712    
  0.30609016722138466    0.3831975082088555    0.43086613508077426    0.42731306890856385    0.4004136070847862    
  0.32237766172637    0.34207565599858564    0.3774112804487186    0.3370223426663834    0.24077241979199102    
  0.1558032966654286    0.101496074118107    0.07048878009226556    0.05374792358894676    0.04500586903162575    
  0.04085541038019698    0.03984150694871797    0.04130799182500949    0.045376177939637496    0.05263303798674726    
  0.06428311271932406    0.08239624692523284    0.1109203965558807    0.15670218134062208    0.22853261902654656    
  0.32990884693554434    0.43086626491659197    0.45125615814954323    0.37780248757452684    0.32237766172637    
  0.16733462821878123    0.21875997682282086    0.3420758633775144    0.3765500458635977    0.2836314994266938    
  0.17948511743583137    0.11203042105730862    0.0746678376573061    0.05502815563024028    0.04489052688544889    
  0.039841589430227836    0.03792998324777044    0.038217731550944455    0.04056737052773    0.04537624725291517    
  0.05389883221237565    0.06855786205244292    0.09417276182268099    0.13955708797731065    0.2175127560160127    
  0.33219231078492056    0.42731280445402825    0.3778025923306185    0.23268814199141674    0.16733462821878123    
  0.11028118640181574    0.16733470571646775    0.3223773323051852    0.4004141930821492    0.31472304799414774    
  0.20059832369180242    0.12460953171854418    0.08226525118441289    0.05969685796883241    0.04768746859057803    
  0.041307861261715095    0.038217768732481554    0.037278774331499724    0.03821775160268383    0.0413078741131221    