#     DFTpy    
  CRYSTAL 
    
  PRIMVEC    
  5.804482758620689    0.0    0.0    
  0.0    5.804482758620689    0.0    
  0.0    0.0    5.804482758620689    
  PRIMCOORD    
  8    1    
  Si    0.0    0.0    0.0    
  Si    1.4511206896551723    1.4511206896551723    1.4511206896551723    
  Si    0.0    2.9022413793103445    2.9022413793103445    
  Si    1.4511206896551723    4.353362068965517    4.353362068965517    
  Si    2.9022413793103445    0.0    2.9022413793103445    
  Si    4.353362068965517    1.4511206896551723    4.353362068965517    
  Si    2.9022413793103445    2.9022413793103445    0.0    
  Si    4.353362068965517    4.353362068965517    1.4511206896551723    
  BEGIN_BLOCK_DATAGRID_3D    
  3d_datagrid_density    
  BEGIN_DATAGRID_3D#0    
  25    25    25    
  0.0    0.0    0.0    
  5.804482758620689    0.0    0.0    
  0.0    5.804482758620689    0.0    
  0.0    0.0    5.804482758620689    
  0.06311728598428394    0.11575938787386285    0.2885911137843099    0.39689472344153814    0.3091050683377759    
  0.18844103718239488    0.11223010088618562    0.07212195961358875    0.05180916958293581    0.041508669839406105    
  0.036252009345331224    0.03380923703432649    0.033078889526836075    0.0338092586857712    0.03625196047639663    
  0.04150878147434538    0.051809027781832225    0.07212215162533861    0.11222981410738016    0.18844133853771183    
  0.30910466462574526    0.3968951053933751    0.288590867878506    0.11575947374571963    0.06311728598428394    
  0.1157593791872199    0.17617895919567184    0.33455863700522037    0.3987414880046215    0.2995902675275741    
  0.18448433073418494    0.11213839921511576    0.07333062811676777    0.05322561342194229    0.04274594768647445    
  0.037232535712307835    0.03460459032089115    0.033809224285187844    0.03460460085172357    0.037232594685244126    
  0.04274586366375127    0.05322574146618168    0.07333042407432677    0.11213869593287408    0.18448395684948216    
  0.29959065354947395    0.39874111920252914    0.3345589134216948    0.17617888084036754    0.1157593791872199    
  0.28859111134825055    0.33455866057867956    0.40598517193427647    0.37732989093570385    0.2701753549094534    
  0.1735215619085213    0.11208516802483293    0.07700822595886102    0.05753402199533384    0.0465722514097464    
  0.04037554179509725    0.03723254701635295    0.03625203515279192    0.037232575498284876    0.04037546836188454    
  0.04657234172676908    0.057533906148028655    0.07700837923192588    0.11208495251327151    0.17352185738065942    
  0.27017505797501923    0.37733026719955076    0.40598497264855543    0.3345587925947213    0.28859111134825055    
  0.3968948115401901    0.39874138564601636    0.3773299457925492    0.30996711671186167    0.22631919330402372    
  0.15817585564290446    0.1121258545101593    0.08304304668419654    0.06499926779995421    0.053619841764488745    
  0.046572232505976696    0.04274598296387964    0.04150859658516638    0.04274595505584873    0.046572281303171766    
  0.05361978906333776    0.06499936844108414    0.08304291527169494    0.11212603842432337    0.15817558178101335    
  0.22631950113000407    0.30996685092699194    0.3773301726017835    0.3987412888511338    0.3968948115401901    
  0.30910492178692245    0.29959041020964444    0.270175311161272    0.22631925090080068    0.18040236940306373    
  0.14141729271101855    0.11208523506727246    0.09104998969266195    0.07593376592489068    0.06499923408168656    
  0.05753407128192825    0.05322549770369492    0.051809278011475016    0.053225561830329726    0.05753401335210115    
  0.06499930961339125    0.07593369207374148    0.09105012349970444    0.11208507581516065    0.1414174915795672    
  0.18040207607828945    0.22631948876177255    0.2701751042312534    0.2995904885541024    0.30910492178692245    
  0.18844115451197233    0.18448417745854365    0.17352167777244942    0.15817581788029975    0.14141731994727375    
  0.12563261034763726    0.11213826752520852    0.10075819319463487    0.09104993934491046    0.08304312708128608    
  0.07700811580756872    0.07333072882790573    0.07212183316685178    0.07333075767215681    0.07700814179164675    
  0.08304305243470494    0.09105003419716955    0.1007580492618888    0.11213848474139236    0.12563242764407476    
  0.14141754617842056    0.15817561435748315    0.1735218527041634    0.18448411300183978    0.18844115451197233    
  0.11222995394687892    0.11213855001517846    0.11208505105533385    0.11212601729719324    0.11208515966014139    
  0.11213838020736008    0.11223022074825056    0.11213829553758124    0.11208531263914989    0.11212579861829469    
  0.11208530890081193    0.11213821969681521    0.112230305982047    0.11213825249360887    0.1120853041791776    
  0.11212583654288438    0.11208520444239078    0.11213842640400284    0.1122300848840976    0.11213846767060982    
  0.11208503516116455    0.11212612625438202    0.11208496676564811    0.1121386101424757    0.11222995394687892    
  0.07212210433161348    0.07333050117776467    0.07700831891970984    0.08304292465769361    0.09105008818059741    
  0.10075807923060139    0.11213832241824297    0.1256326802743974    0.1414172173318086    0.1581759728462567    
  0.17352134553135734    0.1844845439178352    0.1884406984661131    0.18448456174600156    0.17352136729527098    
  0.15817593461586246    0.14141728751769572    0.12563257827710533    0.11213846488622364    0.10075793549806679    
  0.09105021962533846    0.08304282443855583    0.07700840300051097    0.07333043018488646    0.07212210433161348    
  0.05180902418142801    0.053225752181036694    0.057533868202342624    0.06499943092177722    0.07593365602189915    
  0.09105005714935284    0.11208519721325953    0.14141730023087237    0.1804024348368031    0.2263190315923746    
  0.27017567665429176    0.299589925449331    0.3091055449111641    0.2995899434596253    0.27017558958354754    
  0.22631905846898315    0.1804024048208476    0.1414173798616037    0.11208507588223111    0.09105017743125543    
  0.07593355590286457    0.0649995352382387    0.05753380502065403    0.05322578335440408    0.05180902418142801    
  0.04150882855116824    0.042745817450763245    0.04657240684174963    0.05361967827330096    0.06499939124980438    
  0.08304295112596928    0.11212590122498149    0.15817588307069644    0.22631908012087287    0.30996740856052135    
  0.3773294794360509    0.3987420047777671    0.39689411056960805    0.39874193147958503    0.3773295310323405    
  0.3099673197184762    0.22631912959740297    0.15817581431853647    0.1121260118312654    0.08304285163659844    
  0.06499952954901633    0.05361959435042795    0.046572463648450066    0.04274574533632658    0.04150882855116824    
  0.036251862643778714    0.03723271346126406    0.040375365961571215    0.046572429406628785    0.057533882591225945    
  0.07700829463840914    0.11208515846708657    0.17352153508040694    0.2701755249397855    0.3773296084061213    
  0.405985673365747    0.33455806607726885    0.2885917546999217    0.3345581683988568    0.40598559509538573    
  0.3773296357581564    0.2701754610553091    0.1735216499704177    0.11208504012765987    0.07700837926068758    
  0.057533819031142616    0.04657247804082974    0.040375312027541396    0.037232748146502556    0.036251862643778714    
  0.03380939905455167    0.0346044510960507    0.037232708810993824    0.04274581205092578    0.053225710480338105    
  0.07333053639327065    0.11213843719395795    0.1844843650663882    0.2995901179775881    0.3987417904526353    
  0.3345581569523059    0.17617941140444202    0.11575892309550553    0.17617945471563295    0.33455820431921274    
  0.39874175059649863    0.2995902497720158    0.18448430253239828    0.11213854201624902    0.07333043087213283    
  0.05322581178258248    0.04274576063090581    0.037232746856912774    0.03460440808876383    0.03380939905455167    
  0.033078699996279    0.03380941347169324    0.03625185675840157    0.04150882085850802    0.05180905988370382    
  0.07212204477889415    0.11223008024788116    0.18844092995129433    0.3091052941742024    0.39689439310427405    
  0.288591564304994    0.11575898547470227    0.06311766820609062    0.1157589711205538    0.288591602301266    
  0.3968943594000436    0.30910515281993134    0.1884411191500646    0.11222993623139055    0.07212215973849576    
  0.051808947141153666    0.041508855848030525    0.036251799706055396    0.0338094186596315    0.033078699996279    
  0.03380944612223758    0.0346043943711386    0.03723275668432311    0.04274576902033267    0.05322575779800426    
  0.07333048834200187    0.11213849406373207    0.18448428671214628    0.29959024551959257    0.3987417136812033    
  0.3345582854099873    0.17617934625542142    0.11575899304398225    0.17617933754646106    0.3345583383571694    
  0.3987416296281353    0.2995903250774813    0.18448412320866237    0.112138650705226    0.07333036253820595    
  0.053225867555907705    0.04274571700008581    0.03723281994680886    0.03460435216330265    0.03380944612223758    
  0.03625178545111301    0.03723279133575289    0.04037527626168954    0.046572504680045604    0.05753378997786043    
  0.07700842964487886    0.11208499276684977    0.17352169420313032    0.27017537728380037    0.3773297956125442    
  0.4059854212499693    0.33455834783178406    0.2885914555755035    0.33455841796643443    0.40598533539260895    
  0.37732994094040057    0.27017524182534913    0.17352186988657936    0.11208485218537259    0.07700855137017874    
  0.057533688944629985    0.04657262704677518    0.04037519353533752    0.037232853912538645    0.03625178545111301    
  0.04150895885879239    0.04274564934342269    0.0465725461842414    0.05361952682326747    0.06499955072016808    
  0.08304277711665509    0.11212608089673139    0.15817566097732827    0.22631931875113775    0.3099671129102039    
  0.37732986456001183    0.3987416076552531    0.39689444674828017    0.3987415478215216    0.3773299565734333    
  0.309966979207671    0.2263194882213453    0.15817548609552948    0.11212627246152107    0.08304264412553311    
  0.06499969436520325    0.05361941527315607    0.04657264571242352    0.04274562070692937    0.04150895885879239    
  0.051808809680496344    0.05322594607650584    0.05753366578411236    0.06499961302179978    0.0759334231323644    
  0.09105028513666619    0.11208493803883507    0.14141753463864323    0.1804021619207089    0.22631935469788395    
  0.2701752699473991    0.29959031543313264    0.309105057622936    0.29959042656403495    0.27017511716412557    
  0.2263194374406568    0.18040198126781193    0.1414177089182066    0.11208475714715169    0.09105045836021954    
  0.07593324115673941    0.06499977377934339    0.05753357251585784    0.05322600125222189    0.051808809680496344    
  0.0721223810995584    0.07333021124836843    0.07700859432813449    0.08304265347596694    0.09105032268966701    
  0.10075781158874886    0.11213859824749677    0.12563240182357682    0.14141754082786395    0.1581756515854075    
  0.1735217428973623    0.1844841903521059    0.18844113040134539    0.18448416053269806    0.17352179577073185    
  0.1581755055715021    0.14141771172505124    0.12563219960091068    0.11213884368203647    0.10075758540792351    
  0.0910505521539219    0.08304251367396477    0.07700873254648075    0.07333014519163863    0.0721223810995584    
  0.11222961301810712    0.11213892414690609    0.11208472446880587    0.1121263362814581    0.11208484599936366    
  0.11213869710980007    0.11222991432482217    0.1121386031408261    0.11208501022241575    0.11212613714280041    
  0.11208499881603677    0.11213858832584983    0.11222994219390818    0.1121386148787372    0.11208490625485713    
  0.11212622301658261    0.11208481041356463    0.11213883116118262    0.1122296797305849    0.11213891427228895    
  0.11208459987239426    0.11212655660914095    0.11208455171697725    0.11213899304846336    0.11222961301810712    
  0.18844164398989546    0.18448373195714304    0.1735220682013987    0.15817536337300106    0.1414176843659447    
  0.1256322969781438    0.1121386073250808    0.10075788128984513    0.0910502292971547    0.08304282444041122    
  0.07700839987898508    0.07333045735011365    0.0721220892592649    0.07333043673707754    0.07700846844239108    
  0.0830426927357933    0.09105039254727794    0.1007576415755163    0.11213887293770482    0.12563199882733997    
  0.14141797638394282    0.15817517444507392    0.1735222892257365    0.18448366680854406    0.18844164398989546    
  0.3091043773649238    0.29959095192628954    0.2701747932501752    0.22631966537055132    0.18040196458144395    
  0.1414176400642241    0.11208491340490144    0.09105024592627851    0.07593354298072062    0.06499945808488737    
  0.05753384574080828    0.05322574393601053    0.051809044480433275    0.05322579155650046    0.05753375933241499    
  0.06499959236922732    0.0759333611624711    0.09105046700042364    0.11208467196668456    0.14141791209847107    
  0.18040164830346148    0.22632001152135234    0.27017459212848793    0.2995910511292421    0.3091043773649238    
  0.39689530855427596    0.3987409072025969    0.3773304181963333    0.30996669855159303    0.22631957122852855    
  0.15817556803801522    0.11212610297767156    0.0830428444683748    0.0649994778457094    0.05361965575846501    
  0.046572394350330025    0.042745803893972596    0.04150877184325095    0.042745786087262864    0.04657248565842402    
  0.053619554123096304    0.06499961743967801    0.083042621706267    0.1121263805581975    0.1581752081930227    
  0.22631998059341343    0.30996633805747836    0.37733071928385525    0.3987407689211141    0.39689530855427596    
  0.28859077911618997    0.334559000238022    0.4059848502978536    0.37733022365128227    0.27017510834873143    
  0.1735218116308302    0.1120850020215215    0.07700839445619215    0.057533886278517944    0.04657235559939515    
  0.0403754196795067    0.03723262470107019    0.03625195566942053    0.037232697048512044    0.040375350743574866    
  0.04657248381050577    0.057533735950380645    0.07700855352751462    0.1120847214199739    0.17352207406398867    
  0.2701747037775693    0.37733062888046986    0.40598452035829585    0.3345591044186148    0.28859077911618997    
  0.1157595048991433    0.17617880769971264    0.33455882654976166    0.39874131993031736    0.2995904452228036    
  0.18448417022879202    0.11213848564930932    0.07333056059620616    0.0532256660499999    0.04274588114402824    
  0.03723260497720452    0.0346045285246256    0.03380928758777134    0.03460453811012837    0.03723265618381551    
  0.042745801155864606    0.053225830165982466    0.0733303739999333    0.11213876444637152    0.18448383024933937    
  0.29959088785057075    0.39874094977391017    0.33455907511103944    0.17617874387432372    0.1157595048991433    
  0.06311728598428394    0.11575938787386285    0.2885911137843099    0.39689472344153814    0.3091050683377759    
  0.18844103718239488    0.11223010088618562    0.07212195961358875    0.05180916958293581    0.041508669839406105    
  0.036252009345331224    0.03380923703432649    0.033078889526836075    0.0338092586857712    0.03625196047639663    
  0.04150878147434538    0.051809027781832225    0.07212215162533861    0.11222981410738016    0.18844133853771183    
  0.30910466462574526    0.3968951053933751    0.288590867878506    0.11575947374571963    0.06311728598428394    
  0.11575944535792096    0.17617892038541394    0.3345586967140511    0.398741337596665    0.2995903508230832    
  0.1844842579313523    0.11213845414811746    0.07333059849700728    0.053225632361838485    0.042745919530459246    
  0.03723258380744577    0.03460457473343841    0.033809252177502955    0.03460455006917192    0.03723265461371435    
  0.042745822740187726    0.053225749511180136    0.07333038801901998    0.11213871028098384    0.18448389525490516    
  0.29959078062764966    0.3987410314563393    0.33455895047543155    0.17617883174498894    0.11575944535792096    
  0.17617890889044593    0.2439257076715578    0.3876151658976549    0.42083251172355973    0.31394311599893865    
  0.19944709857762077    0.12563253880398118    0.08412906901135173    0.061284107047576426    0.04838776359080789    
  0.04090536506951378    0.03669805353830172    0.034604610462656525    0.03428717455333696    0.035864220435703004    
  0.040187847160828    0.04902203982628052    0.06650753934740848    0.10075785086289084    0.16497775127652725    
  0.2694091197315562    0.37315700975194604    0.3531623097214795    0.23023982450984937    0.17617890889044593    
  0.334558731640068    0.38761516647760713    0.4504105527043835    0.4148398757513327    0.3077889387691473    
  0.20872183092830987    0.14141725423282997    0.09966576441016504    0.07404589985264198    0.05783878160820828    
  0.047400141145219524    0.04090538606668568    0.037232517728848516    0.03586428992867057    0.036676784399976424    
  0.040244743893320736    0.04788705142027667    0.06276233981480184    0.09105022790959817    0.14235995992767572    
  0.22610832725196078    0.3277126614012855    0.38052773324066413    0.3531624696647197    0.334558731640068    
  0.39874138649664675    0.42083256917331324    0.41483978371400393    0.35986303115551616    0.2820424135210525    
  0.21172823340216976    0.15817588720461848    0.11961520916566695    0.09202860770528615    0.0720273883699221    
  0.05783879429570265    0.048387687503319926    0.04274600171862357    0.04018773539756483    0.040244786239051325    
  0.04312036275036238    0.049579400600787644    0.06158148716042288    0.08304285824394711    0.11961551039885372    
  0.17721936333351565    0.25380040962682293    0.3277127464209782    0.3731568128401289    0.39874138649664675    
  0.29959042490281285    0.3139430442344116    0.30778893087766507    0.28204231407782887    0.2463379831213464    
  0.20872193331321595    0.17352143014915142    0.14236040640555722    0.11508277690671176    0.09202864071541919    
  0.07404581106643922    0.06128418266433095    0.0532255470793995    0.049022236085503317    0.04788692554238448    
  0.049579467618528744    0.054254072626073714    0.06276241286816445    0.07700831684228278    0.09966557721950894    
  0.13317351792683932    0.1772193765386336    0.2261081929614988    0.26940929376401557    0.29959042490281285    
  0.18448415646879704    0.19944723425432076    0.20872172776075115    0.21172832351057133    0.20872183746231443    
  0.19944694165999247    0.18448443669921452    0.16497732780552823    0.14236036107224978    0.11961518463492601    
  0.0996658627759425    0.08412891135804858    0.07333075981569505    0.0665072769313276    0.0627625267996256    
  0.061581360790472196    0.0627624749623248    0.06650738630939891    0.0733305714365111    0.08412914930628501    
  0.0996656162801906    0.11961549980909397    0.14236005257798143    0.16497764860460562    0.18448415646879704    
  0.11213856743341556    0.12563244057004908    0.14141744016513133    0.1581757998136387    0.17352159324265273    
  0.1844844604003018    0.18844081177681032    0.18448451486999282    0.17352142519494224    0.15817607000046546    
  0.14141716058108234    0.12563276570128887    0.11213824651612589    0.10075821400229555    0.09104994522293076    
  0.08304308010007196    0.07700821075646357    0.07333063661920608    0.07212197926097919    0.07333049567241093    
  0.07700839605262434    0.08304283229887419    0.09105020960318784    0.10075787889116321    0.11213856743341556    
  0.0733304663002039    0.08412919990564677    0.09966558850127763    0.11961540712678917    0.14236019223770877    
  0.16497739352017712    0.18448444779937095    0.19944688837568966    0.20872203473452886    0.2117280364851424    
  0.20872206738105642    0.19944677810195174    0.18448459153099936    0.1649772574576971    0.14236039239870585    
  0.11961522493693297    0.0996657737704468    0.084129053002475    0.07333055651521944    0.06650744128884957    
  0.06276235007086998    0.06158157270496254    0.06276228411884467    0.06650752168848542    0.0733304663002039    
  0.053225769507508854    0.061283959261485575    0.07404604781011016    0.0920284373936606    0.1150829298153012    
  0.14236023749509583    0.17352146410354935    0.20872199038304487    0.24633784011677912    0.28204262921511464    
  0.30778850261372526    0.31394351326999176    0.2995898908025425    0.2694099295184052    0.22610769814868678    
  0.17721977315028242    0.1331732110597185    0.0996657553914088    0.07700825959443462    0.06276237419349925    
  0.054254197916771225    0.049579294174246946    0.04788712318247785    0.049021975488387964    0.053225769507508854    
  0.04274578967946626    0.04838792413931613    0.057838639696883555    0.07202757315749676    0.09202843757956086    
  0.11961535197662818    0.158175886384527    0.21172818293119733    0.2820424812861118    0.3598626470272165    
  0.4148402627018868    0.42083205125328904    0.39874208155823504    0.3731561112819532    0.3277133197004516    
  0.25379991920526485    0.17721967660028196    0.11961535302225747    0.08304289980943118    0.061581518590379865    
  0.049579320710468645    0.04312049530348481    0.040244610449987624    0.04018794484690602    0.04274578967946626    
  0.03723271467160067    0.04090518532221028    0.04740032053848854    0.05783861073870175    0.07404600564801615    
  0.09966564815654418    0.1414173498720537    0.2087219132885702    0.30778870981545925    0.4148402220034011    
  0.4504101071637051    0.3876156636900632    0.334558120853081    0.353163153765675    0.380526989357825    
  0.3277131656286364    0.22610784758494815    0.1423602089347788    0.0910501308818063    0.06276230022512823    
  0.047887152005818175    0.04024459766269594    0.036676963842440645    0.03586412175609841    0.03723271467160067    
  0.0346044102782546    0.03669825104984894    0.04090519534937566    0.04838790370422488    0.061283991498722976    
  0.0841291200839422    0.12563254238090157    0.19944702801785727    0.31394335725006084    0.4208321700177379    
  0.38761563906285745    0.2439251280736956    0.1761794486277522    0.23023920117871974    0.3531629997848244    
  0.3731563294648954    0.2694096262453455    0.1649775607895333    0.10075789105403234    0.06650754555524134    
  0.049021976812828064    0.040188007892118245    0.03586407445390597    0.03428734847072224    0.0346044102782546    
  0.03380940261247249    0.03460442856197053    0.0372327072312639    0.042745812217710746    0.05322575380621982    
  0.07333053552570139    0.11213849081600027    0.18448431017178105    0.29959015961036145    0.39874184011227154    
  0.33455815105496733    0.17617942239383647    0.11575896491054419    0.17617941541592252    0.33455826582809756    
  0.39874166548400775    0.2995902324934257    0.1844842325357649    0.1121385811133215    0.07333041506724974    
  0.05322582486589814    0.04274571854480432    0.03723278183460446    0.03460437513537208    0.03380940261247249    
  0.03460438966410211    0.03428735798742877    0.03586409483684548    0.04018794899407701    0.049022003261937404    
  0.06650750553899627    0.10075797391528621    0.1649775205133739    0.26940963584373234    0.37315637219209713    
  0.35316292076145134    0.23023926225201935    0.17617934369266397    0.24392531807204518    0.3876154505318286    
  0.420832379445882    0.3139430702812878    0.19944721529282314    0.1256323467554076    0.0841293326104514    
  0.06128383237846077    0.04838807812572528    0.0409050967348167    0.03669830840223825    0.03460438966410211    
  0.03723283177777965    0.03586406023292132    0.036676988420890455    0.040244608997862974    0.04788713784925604    
  0.06276231259625296    0.09105015095788595    0.1423601446889441    0.22610796627745375    0.3277130090626035    
  0.3805272141130474    0.35316286355573834    0.3345583505449621    0.38761548461106915    0.45041039253150117    
  0.41483976894433616    0.30778909194041515    0.20872157530695376    0.14141760961386893    0.0996654019007757    
  0.07404625617068072    0.05783841752316863    0.04740046323155925    0.0409050583248945    0.03723283177777965    
  0.04274563238626483    0.04018808832874432    0.040244499672192235    0.04312053672226978    0.04957926614715005    
  0.061581568028292274    0.08304286035106137    0.11961544629040137    0.17721952536480856    0.25380017141226935    
  0.32771296394138305    0.37315645680127546    0.39874158174463264    0.42083241350827627    0.4148398053605554    
  0.35986316446895955    0.2820420781628158    0.21172862170173537    0.15817539602336467    0.1196157371376307    
  0.09202808363209132    0.07202789467712814    0.05783834368282068    0.04838809989504334    0.04274563238626483    
  0.0532259690297186    0.04902183160703436    0.04788725174630795    0.04957920769320235    0.05425426134385877    
  0.06276229644926583    0.07700839751336058    0.09966559714575385    0.13317342014443923    0.17721946342790337    
  0.22610805597639194    0.26940946005232735    0.2995903267796381    0.31394307107065456    0.3077890533518482    
  0.2820420567123271    0.24633842631880767    0.2087214603351539    0.1735220152926583    0.14235971346468446    
  0.11508339822401535    0.09202807684589796    0.07404638277061797    0.061283676620139144    0.0532259690297186    
  0.07333018718109346    0.06650776010768164    0.06276209696348899    0.06158168808005081    0.06276221773193266    
  0.06650756559087141    0.0733304363919978    0.08412923441824714    0.09966560411596677    0.11961544463471517    
  0.14236010504238444    0.16497755188870247    0.18448416806250598    0.19944727503555174    0.2087215231192618    
  0.2117286194669988    0.20872148789878295    0.19944754385586416    0.18448381849403342    0.16497803261593877    
  0.14235963274956112    0.11961590385835685    0.09966515073716073    0.0841295534160551    0.07333018718109346    
  0.11213896268746511    0.1007576019226537    0.09105043753365179    0.08304267416774273    0.07700852296279438    
  0.07333043754696458    0.0721221215734211    0.07333043657693719    0.07700840149924433    0.0830428660162346    
  0.09105018546041578    0.10075790800096997    0.11213860675523392    0.12563236095969924    0.14141762419158974    
  0.15817549659004917    0.17352200042123134    0.18448389213501487    0.18844148943771158    0.18448369861648706    
  0.1735222519477888    0.15817517283121926    0.14141800995807557    0.12563197454064962    0.11213896268746511    
  0.1844836647853066    0.1649780347213995    0.14235973489007814    0.11961571730493706    0.0996654535165549    
  0.08412929597613572    0.07333042068661672    0.06650752640962045    0.06276231754637382    0.06158153129220868    
  0.06276231353983269    0.06650750189623898    0.07333043392890182    0.08412927132705328    0.099665445796595    
  0.119615644777386    0.14235983486012774    0.1649779487907356    0.184483710745424    0.19944770788637523    
  0.20872114508166528    0.21172909738252502    0.20872107265570966    0.1994478354056496    0.1844836647853066    
  0.2995909780272544    0.2694088592665886    0.22610847265050626    0.17721917888055025    0.13317360556364055    
  0.09966548111391764    0.07700838912408872    0.06276232784080776    0.05425417572141698    0.049579323159753344    
  0.047887094728435976    0.049022043684396915    0.053225764040442505    0.061283938217897425    0.0740461452654798    
  0.09202823517474759    0.11508325793151584    0.1423597870314032    0.17352216129027967    0.20872114222488278    
  0.24633880827750534    0.2820415264323722    0.3077896723420252    0.31394236617140775    0.2995909780272544    
  0.3987408842777246    0.3731571212864881    0.3277124996306907    0.25380045392944023    0.17721930458763582    
  0.1196155656317904    0.08304281357251053    0.06158152659413812    0.04957936626093057    0.04312042014267853    
  0.04024465848303903    0.04018789302510261    0.04274581789385074    0.048387920577232874    0.05783853513805522    
  0.07202772976135144    0.09202819557969609    0.11961576791763566    0.1581752504562033    0.2117289245202917    
  0.2820416409873975    0.3598638619877743    0.4148390022049521    0.4208332425919914    0.3987408842777246    
  0.3345590087722241    0.3531621797094903    0.38052781447363826    0.32771261053307543    0.22610821077762427    
  0.14236005229529292    0.09105015965849146    0.06276238587343656    0.04788706792854625    0.04024468701976565    
  0.03667687212272513    0.03586418955490401    0.03723265614170784    0.04090523312256829    0.04740031739259606    
  0.05783853523549302    0.07404618254821198    0.09966537230923572    0.14141784406458452    0.20872118748182708    
  0.3077896189199832    0.41483908223909566    0.45041128082032267    0.38761467090754687    0.3345590087722241    
  0.17617875297353444    0.23023981565922153    0.3531623507916425    0.37315679277778163    0.2694093163105537    
  0.16497759612764132    0.10075793561872211    0.0665074694318453    0.04902211848043399    0.04018783812399109    
  0.035864229998612364    0.03428719607714733    0.0346045458126357    0.03669816909839568    0.04090521685597747    
  0.04838793497470513    0.06128390924791797    0.08412935201468844    0.12563218249174793    0.199447514224976    
  0.31394254435940533    0.42083315962608886    0.3876147181763536    0.2439259915121594    0.17617875297353444    
  0.11575944535792096    0.17617892038541394    0.3345586967140511    0.398741337596665    0.2995903508230832    
  0.1844842579313523    0.11213845414811746    0.07333059849700728    0.053225632361838485    0.042745919530459246    
  0.03723258380744577    0.03460457473343841    0.033809252177502955    0.03460455006917192    0.03723265461371435    