#     DFTpy    
  CRYSTAL 
    
  PRIMVEC    
  4.681034482758621    0.0    0.0    
  0.0    4.681034482758621    0.0    
  0.0    0.0    4.681034482758621    
  PRIMCOORD    
  8    1    
  Si    0.0    0.0    0.0    
  Si    1.1702586206896552    1.1702586206896552    1.1702586206896552    
  Si    0.0    2.3405172413793105    2.3405172413793105    
  Si    1.1702586206896552    3.5107758620689653    3.5107758620689653    
  Si    2.3405172413793105    0.0    2.3405172413793105    
  Si    3.5107758620689653    1.1702586206896552    3.5107758620689653    
  Si    2.3405172413793105    2.3405172413793105    0.0    
  Si    3.5107758620689653    3.5107758620689653    1.1702586206896552    
  BEGIN_BLOCK_DATAGRID_3D    
  3d_datagrid_density    
  BEGIN_DATAGRID_3D#0    
  21    21    21    
  0.0    0.0    0.0    
  4.681034482758621    0.0    0.0    
  0.0    4.681034482758621    0.0    
  0.0    0.0    4.681034482758621    
  0.051708436933353016    0.09859052426422633    0.2771713383378686    0.4590524407326671    0.4350120777058222    
  0.31394755421749987    0.2124246008140307    0.14851568728877604    0.1129558855701083    0.09557055740907361    
  0.09033013593971463    0.0955705415438872    0.11295585946515142    0.1485157663089617    0.21242452204844137    
  0.31394760229322427    0.4350120195426805    0.4590525402635818    0.27717135023918765    0.09859054303023425    
  0.051708436933353016    0.09859053822343293    0.15664918635630887    0.3367700149142874    0.48096624788551917    
  0.4359778698105856    0.3154488419732254    0.21673245864181256    0.15394781073946928    0.11845435804896577    
  0.10090573733736706    0.09557054348799526    0.10090572472159194    0.11845438106876541    0.15394779654641724    
  0.2167324121255965    0.3154488467301506    0.435977917763152    0.4809661687844844    0.33676999884221437    
  0.15664912771399458    0.09859053822343293    0.2771714364479936    0.3367700574331332    0.4630298483147123    
  0.5080339826204495    0.4299482319502081    0.318399466614744    0.22929115262960936    0.17066339351506515    
  0.1361615690407333    0.11845436795197621    0.11295594692223977    0.11845438723652083    0.13616158298573663    
  0.17066343639348588    0.22929115219213847    0.31839947894502146    0.4299482020213988    0.5080340681892123    
  0.46302981346616795    0.3367700741601005    0.2771714364479936    0.45905253810636215    0.48096623958465995    
  0.5080340065032243    0.4804203645731477    0.40346122966958764    0.31839988880866704    0.24911600062435998    
  0.2009185382821376    0.1706633459567993    0.153947867697758    0.14851569535240605    0.15394784899286676    
  0.17066333070103368    0.20091851275229425    0.2491159747967063    0.31839986991303887    0.4034612626258828    
  0.4804203474107659    0.5080341065374961    0.48096622766084046    0.45905253810636215    0.43501202050806254    
  0.43597789910668105    0.4299481755822544    0.4034611755957455    0.3605001934773156    0.31544842903356385    
  0.27728917637422096    0.24911594763536085    0.22929120291980817    0.21673231477550473    0.2124246875579787    
  0.21673233594856184    0.22929120932053    0.2491159557992072    0.27728911194509664    0.3154485168417633    
  0.3605001245828364    0.40346117418488875    0.42994818421516745    0.4359778954457599    0.43501202050806254    
  0.3139475863603816    0.31544882482994374    0.31839942750074424    0.31839982092645613    0.31544842379293553    
  0.313947988349768    0.3154483775738517    0.3183999337581745    0.31839932202424415    0.3154490064134904    
  0.3139474415308734    0.3154490022294364    0.3183993591096366    0.31839992866902755    0.31544839135302116    
  0.3139479724389719    0.31544847784572216    0.3183997772996031    0.31839947598509494    0.31544882123005874    
  0.3139475863603816    0.2124245462710998    0.21673246083388847    0.229291141477272    0.2491159657353935    
  0.2772891332787705    0.3154484026718945    0.3605002731405374    0.40346107373620554    0.42994837382294987    
  0.4359776639289135    0.43501220719847467    0.4359777255413819    0.4299483806889401    0.4034610500535264    
  0.3605002024886617    0.3154484732130648    0.2772890806699078    0.24911600940739986    0.22929110902663083    
  0.216732443254636    0.2124245462710998    0.1485157741454811    0.15394779131463177    0.17066338255982044    
  0.2009184806266497    0.2491159838925482    0.31839994995057325    0.4034610640051237    0.48042058313517755    
  0.5080337271128263    0.4809665100451545    0.4590522251588743    0.4809664916562732    0.5080338478273967    
  0.48042052535075197    0.4034611370627633    0.31839991655072264    0.24911603008732935    0.20091845304407133    
  0.17066341992891376    0.15394777750366495    0.1485157741454811    0.11295586030746091    0.11845443905394593    
  0.13616153762567595    0.17066337867355438    0.229291249611362    0.3183993593525858    0.4299483916350576    
  0.5080338513666075    0.46303013628609213    0.3367697518892337    0.27717175960335255    0.3367697984018998    
  0.46303008783804733    0.5080339202524439    0.42994831135710765    0.31839947866332463    0.2292912185329888    
  0.1706634400438416    0.13616154588791354    0.11845446851590849    0.11295586030746091    0.09557057883288897    
  0.10090569506791729    0.11845439359174474    0.15394780434327598    0.21673238666102418    0.31544898263489796    
  0.4359777774466643    0.4809664518280066    0.33676972401143557    0.15664938281651702    0.09859035138148511    
  0.15664936040407798    0.33676976299780903    0.48096641461255923    0.4359777728248316    0.31544890835391287    
  0.21673238331852743    0.15394776549393357    0.11845440666195489    0.10090567533962494    0.09557057883288897    
  0.09033012350644358    0.09557058471182495    0.11295586137338774    0.14851569316015306    0.2124246325522006    
  0.31394744118748913    0.43501221790191874    0.4590521863632788    0.27717166815905697    0.09859032699177649    
  0.05170860174354484    0.09859034729997651    0.27717163750227813    0.4590522504478125    0.4350121547399606    
  0.3139475201369204    0.21242456674925173    0.148515762159827    0.11295583575060623    0.09557058050336326    
  0.09033012350644358    0.09557061125145373    0.10090571186291335    0.11845442501462693    0.15394778887142274    
  0.21673237777325113    0.3154489845221979    0.43597776093640367    0.48096646373082813    0.3367697335998414    
  0.1566493827217983    0.0985903402845404    0.15664933923324864    0.3367697825563338    0.48096644989228293    
  0.4359777279497114    0.3154488957796667    0.21673238212588838    0.15394778260656136    0.1184544123887797    
  0.10090569287061898    0.09557061125145373    0.11295587530847302    0.1184544628790681    0.1361615325761721    
  0.17066338219209257    0.22929119012414778    0.31839947709043215    0.42994829484499314    0.5080338389687189    
  0.4630300700630959    0.3367697616173993    0.2771716883273211    0.3367697712594886    0.4630300834406516    
  0.508033929411083    0.4299483247901689    0.31839946643173295    0.22929117882854996    0.1706634217093583    
  0.13616152275795554    0.1184544615879389    0.11295587530847302    0.14851578707710306    0.1539477691214093    
  0.1706634028037296    0.20091848834520515    0.24911598640037597    0.3183999070071505    0.40346117493755507    
  0.4804205019801562    0.5080338077569915    0.4809664651886136    0.4590523005640081    0.4809664955603213    
  0.5080337688055453    0.48042045630954233    0.4034611507788151    0.3183999048996766    0.24911607428691682    
  0.20091842334034046    0.17066346506273697    0.1539477348479671    0.14851578707710306    0.21242449579859485    
  0.21673247471223137    0.2292910998242347    0.2491160193834638    0.27728910643390187    0.31544844161509766    
  0.36050025893335524    0.40346114837826963    0.42994824700923623    0.43597771027753246    0.4350122351291362    
  0.4359777717316362    0.4299482512229601    0.40346114358699964    0.36050019081317103    0.3154484812176942    
  0.27728905202984255    0.24911602108367392    0.22929107700129991    0.2167325141154527    0.21242449579859485    
  0.31394765593851726    0.31544877689622175    0.3183994385032491    0.31839981019183655    0.3154485165331588    
  0.31394796349718923    0.3154484195890269    0.31839989984405653    0.31839935335760594    0.3154489472662853    
  0.31394752235183987    0.3154489199483637    0.31839941901780483    0.3183998952537907    0.31544842307235793    
  0.3139479065961448    0.3154485227029425    0.31839976068333603    0.3183995555465884    0.3154487326955176    
  0.31394765593851726    0.4350119672402485    0.43597800923837055    0.4299480666085825    0.4034612148049948    
  0.3605001357339621    0.3154484751607404    0.27728916126753755    0.24911595317497298    0.22929118013553842    
  0.21673234251127058    0.21242460405933072    0.21673235845897834    0.22929118711271818    0.24911599842496196    
  0.27728908115223233    0.3154485421036783    0.36050003607079595    0.4034613130098488    0.42994804984857565    
  0.43597797679909545    0.4350119672402485    0.45905261308633155    0.4809662107899654    0.508034033310167    
  0.48042035125868643    0.4034612738996919    0.3183998728440508    0.24911599433277085    0.20091849466592887    
  0.17066338073549492    0.15394782101263735    0.14851571125143073    0.15394779819991153    0.17066338552548532    
  0.20091849015881436    0.2491160771578682    0.31839981750367724    0.40346131098144195    0.48042028001908016    
  0.5080341674344466    0.4809662287729754    0.45905261308633155    0.2771713930363742    0.3367700947961887    
  0.4630297428969855    0.5080341044573782    0.4299482423269414    0.3183994905221484    0.22929121035966812    
  0.17066336361978485    0.13616157634218443    0.11845439375948152    0.11295595466050391    0.11845443262420212    
  0.1361615553936058    0.17066342037350943    0.22929110079676435    0.3183995481499918    0.4299481929296719    
  0.5080341537110538    0.46302980598707577    0.3367701347031395    0.2771713930363742    0.0985905593029038    
  0.15664915560407855    0.33676999335121205    0.48096623465063304    0.4359779132172706    0.3154488435392894    
  0.21673244399503233    0.15394777507071375    0.11845437382650444    0.10090573667337314    0.09557057043104081    
  0.10090571918339165    0.11845439376651301    0.15394776648469324    0.21673245496430912    0.3154487880776516    
  0.43597794538499873    0.48096606285652577    0.3367700351234555    0.15664911036289844    0.0985905593029038    
  0.051708436933353016    0.09859052426422633    0.2771713383378686    0.4590524407326671    0.4350120777058222    
  0.31394755421749987    0.2124246008140307    0.14851568728877604    0.1129558855701083    0.09557055740907361    
  0.09033013593971463    0.0955705415438872    0.11295585946515142    0.1485157663089617    0.21242452204844137    
  0.31394760229322427    0.4350120195426805    0.4590525402635818    0.27717135023918765    0.09859054303023425    
  0.051708436933353016    0.09859055432815757    0.15664914268102756    0.33676999911668676    0.48096625549725625    
  0.43597792548097974    0.3154488439443364    0.2167324295714047    0.15394776903890967    0.11845435983615869    
  0.10090573387892578    0.09557056914700943    0.10090572888000482    0.11845440227573803    0.1539478004702911    
  0.21673243838273307    0.31544881261276114    0.4359779644135573    0.48096621942994655    0.33676999941837915    
  0.156649134655418    0.09859055432815757    0.15664913727101915    0.23523906266067274    0.4297791770225821    
  0.5568300907126907    0.4934131696430499    0.36049974049980443    0.25114093223760625    0.17892246375172444    
  0.1356157495693577    0.11176581299176383    0.10090575014683777    0.10103963589328595    0.11309982112832867    
  0.14139169523958728    0.1935751750593088    0.27728879939556544    0.3836200107629179    0.4418441425822993    
  0.35224855684565104    0.2061415096414355    0.15664913727101915    0.33677006146201227    0.4297792642081978    
  0.5775327218110557    0.625176344078899    0.5352724766821501    0.40346168257401555    0.29349733874116374    
  0.2164597876795717    0.166405626586966    0.13561578639437963    0.11845440069392707    0.11309984490413483    
  0.11973901043959123    0.14108646888561374    0.18238325866569105    0.24911633490503118    0.33807899122838364    
  0.4146887067883859    0.41482653086956545    0.35224861963886867    0.33677006146201227    0.4809662333392063    
  0.5568301735179151    0.625176344288192    0.617512053453795    0.5352729128300517    0.4299477958505665    
  0.3380793950306268    0.2681789737940991    0.21645979936797022    0.17892244870310836    0.1539478786612732    
  0.14139163314589417    0.1410864357360489    0.1538888532882552    0.18238352129633512    0.22929089166168917    
  0.2934977525322508    0.3632108636472255    0.4146887300393509    0.44184421094299936    0.4809662333392063    
  0.4359779513974587    0.4934131728052547    0.5352723941006386    0.5352728823540027    0.4934127676176349    
  0.4359783583530659    0.383619630923579    0.3380794154123214    0.2934972364197116    0.251140946669312    
  0.21673236909914265    0.19357528751195865    0.18238316761885456    0.18238359326837664    0.19357490586115483    
  0.2167327787961712    0.2511405532502052    0.2934976266792982    0.33807894736498206    0.38362004829755403    
  0.4359779513974587    0.3154488065754942    0.36049979114934494    0.403461562777243    0.42994781026240875    
  0.43597834152654    0.4350115494678416    0.4359783936358974    0.429947630199521    0.40346176130753253    
  0.3604996409230444    0.31544903091863774    0.2772886376199375    0.24911643320688892    0.2292907789502485    
  0.21673274637270473    0.21242424062084037    0.216732708229247    0.22929086278690358    0.24911632130190725    
  0.2772887480708375    0.3154488065754942    0.21673243300599265    0.2511408869366874    0.2934973819861699    
  0.3380792808512225    0.38361963600045224    0.43597838499951935    0.49341270467409803    0.5352730520021564    
  0.5352721883940036    0.4934134336082731    0.4359776413307149    0.38362029358271826    0.3380787780346698    
  0.29349779145297633    0.25114048267107747    0.21673275832344993    0.19357488493378236    0.18238354948254137    
  0.18238324571250977    0.19357517360786058    0.21673243300599265    0.1539477852115871    0.17892253662071508    
  0.21645968941763688    0.26817900602220074    0.3380793826116411    0.42994771396492515    0.5352730135776129    
  0.6175118439937783    0.6251766197794066    0.5568298600820167    0.4809665315333128    0.44184389337809743    
  0.4146889263135119    0.3632107145134624    0.293497825209275    0.22929079061148852    0.18238357042949804    
  0.15388888439338544    0.14108643191903983    0.14139172748721715    0.1539477852115871    0.11845444754542567    
  0.13561574991611158    0.1664056775610117    0.21645975021155192    0.29349733250882276    0.40346173428145193    
  0.5352722456675532    0.6251766708326224    0.5775324490421241    0.42977951974853745    0.3367698557136788    
  0.3522489047391149    0.41482627921186366    0.4146889607358822    0.33807882898094255    0.2491164367190042    
  0.18238327576833235    0.14108642654268    0.11973903886619325    0.11309981800090249    0.11845444754542567    
  0.10090569603852528    0.11176582539813065    0.13561571845802378    0.1789224908892324    0.2511409738693389    
  0.36049967284968176    0.49341346167158007    0.5568298286600667    0.4297794816884422    0.23523877355846143    
  0.15664938038766546    0.20614129468009987    0.35224882222212955    0.4418438917512085    0.3836202202697183    
  0.27728867448155015    0.19357519598612297    0.14139167657431592    0.11309977789435832    0.10103967984489036    
  0.10090569603852528    0.09557061516583913    0.10090570884527932    0.11845438538409024    0.15394777863938686    
  0.21673239392194102    0.3154489262890989    0.4359776992533581    0.4809664633496758    0.33676974214780075    
  0.15664936836446453    0.09859035571423529    0.15664934341845113    0.3367697657505286    0.48096645923281606    
  0.43597773231796544    0.3154489239255926    0.21673241237964858    0.15394778798500908    0.11845440748651682    
  0.10090567595877814    0.09557061516583913    0.10090569009990395    0.10103968042188494    0.1130998073087749    
  0.14139164528868034    0.19357526167788094    0.2772886638489945    0.38362031747125247    0.4418438577414808    
  0.352248789060724    0.2061413196960718    0.1566493805162289    0.2352387926770671    0.429779464387206    
  0.5568299321894199    0.49341331439327646    0.36049968503570085    0.25114087430569504    0.17892253049201923    
  0.13561568454808812    0.111765858644794    0.10090569009990395    0.1184544879543852    0.11309979691918136    
  0.11973900554653966    0.14108644191828584    0.1823832348582098    0.24911646160517137    0.33807878184379836    
  0.41468893775459836    0.4148262630330736    0.35224882873588703    0.33676983814197836    0.4297794569671031    
  0.5775325422029135    0.6251766946914609    0.5352723324435583    0.4034616359206164    0.29349740238426125    
  0.21645968908408655    0.1664057254296305    0.1356157019521765    0.1184544879543852    0.15394774087493526    
  0.14139176140379472    0.14108635808649947    0.15388888657393893    0.18238356809856626    0.22929079941214844    
  0.2934978702776524    0.363210611517761    0.41468891750345893    0.44184393210179274    0.4809665195761954    
  0.5568298878293414    0.6251765263153718    0.6175119241700019    0.5352729086626375    0.42994781864351983    
  0.33807933942662294    0.26817907587283757    0.2164596871877185    0.1789225538071416    0.15394774087493526    
  0.21673250607809644    0.1935751977995961    0.18238327980150976    0.1823835138983545    0.19357492609374907    
  0.21673277466593852    0.2511405042890061    0.2934978329745061    0.33807872337679357    0.38362023889256136    
  0.4359777768669549    0.4934133708487326    0.5352722915562357    0.5352728730777916    0.4934127627451275    
  0.4359782983484373    0.38361975183708796    0.33807918999369196    0.2934974617197433    0.251140775125785    
  0.21673250607809644    0.3154487807652943    0.2772888359809521    0.24911625900951495    0.22929084511927633    
  0.21673276683225526    0.21242420716509236    0.2167327872277703    0.22929076289002678    0.24911639426939242    
  0.2772886382579615    0.3154489877889905    0.36049968395333276    0.4034616378844104    0.4299477803905053    
  0.4359782618467663    0.43501170506500486    0.43597820617660143    0.4299479262989173    0.4034615155643079    
  0.3604998543656077    0.3154487807652943    0.43597794226634157    0.38362007553031824    0.3380789160662863    
  0.29349768988226854    0.2511405297265356    0.2167327416285162    0.19357489749619422    0.1823835928608524    
  0.18238316763236329    0.19357525365928657    0.2167323629751985    0.2511409057708494    0.29349731207455393    
  0.33807927990325504    0.38361969921197914    0.43597824397966317    0.4934127926057795    0.5352727803231044    
  0.5352724973620648    0.49341308634089537    0.43597794226634157    0.48096619490156656    0.4418442225060122    
  0.41468860164102117    0.3632108307762173    0.2934977540334523    0.22929082424315422    0.18238357658876375    
  0.153888858763324    0.14108644763388248    0.14139164660449793    0.15394782202389246    0.17892247316957785    
  0.21645974114226052    0.2681790436440609    0.33807929734729925    0.429947871488871    0.5352728305347387    
  0.6175120889494667    0.6251763385059863    0.5568302435178777    0.48096619490156656    0.33677006010287686    
  0.3522486081470306    0.4148264986650178    0.41468872838660353    0.33807899778311135    0.2491163632799202    
  0.18238331232234586    0.14108643957378714    0.1197389976418601    0.11309984003663474    0.11845443331924743    
  0.1356157632534124    0.16640567777473447    0.21645972859773005    0.293497384760919    0.40346159022062744    
  0.5352725830878018    0.6251763550264424    0.5775328267282053    0.4297792454815925    0.33677006010287686    
  0.15664913926278115    0.206141514671142    0.352248549020878    0.44184416187593856    0.38362008811832693    
  0.27728874141539034    0.19357526693888888    0.14139163436957802    0.11309982754865235    0.1010396271647228    
  0.10090574135350912    0.11176580911643079    0.13561571948718165    0.17892249748865913    0.2511408479657981    
  0.3604997739338704    0.4934131183289773    0.5568300917559702    0.4297791412653174    0.23523904629823492    
  0.15664913926278115    0.09859055432815757    0.15664914268102756    0.33676999911668676    0.48096625549725625    
  0.43597792548097974    0.3154488439443364    0.2167324295714047    0.15394776903890967    0.11845435983615869    
  0.10090573387892578    0.09557056914700943    0.10090572888000482    0.11845440227573803    0.1539478004702911    
  0.21673243838273307    0.31544881261276114    0.4359779644135573    0.48096621942994655    0.33676999941837915    
  0.156649134655418    0.09859055432815757    0.2771713971936545    0.33677006022031514    0.4630298261859411    
  0.5080340340929352    0.4299482228924235    0.3183994907073554    0.22929118641967636    0.17066337378900437    
  0.1361615671468938    0.11845438813366171    0.11295592019959436    0.11845438776756909    0.136161584282264    
  0.17066343227997882    0.22929108786016128    0.3183995031314796    0.42994821844678344    0.5080341438377425    
  0.46302981943601607    0.33677007104370915    0.2771713971936545    0.33677008094307287    0.42977921598041385    
  0.5775327148199065    0.6251763817653678    0.5352724482857982    0.4034616062238436    0.2934974219482884    
  0.21645977408102232    0.16640563531712838    0.13561579284581565    0.11845442665909607    0.11309983982270376    
  0.11973901529772116    0.1410864514040714    0.18238326627067333    0.24911635933375836    0.33807893358864105    
  0.41468867778374374    0.4148265484605308    0.3522485966646787    0.33677008094307287    0.463029883715756    
  0.5775327979443963    0.7001298590248419    0.7172670318044151    0.6175125786985296    0.48042002900065434    
  0.3632112587879205    0.27563230515100035    0.21175164352386006    0.16640566882791305    0.13616166299441387    
  0.11973897548233466    0.11637972682746103    0.12686951401545682    0.15388913864685766    0.20091821105930688    
  0.2681793656856841    0.34198646573982505    0.3924197524872495    0.4148265982725493    0.463029883715756    
  0.5080341445345211    0.6251764428816614    0.7172670588709575    0.7172675654726387    0.6251760153753303    
  0.5080344670864747    0.4146883951301201    0.34198681482347815    0.27563223289008687    0.21645982339425593    
  0.17066341296642984    0.1410864978690379    0.1268694437343776    0.12686979025350437    0.14108614316731308    
  0.1706637277748029    0.21645948734407244    0.2756326517329174    0.3419864944872477    0.4146887520076347    
  0.5080341445345211    0.4299481705304956    0.5352724917093841    0.6175124314783671    0.6251760518981798    
  0.556830635642284    0.48096578925156436    0.4418446427795985    0.4146883253612839    0.3632112526594836    
  0.2934972767569759    0.22929127176397562    0.18238318948136703    0.1538891871750958    0.14108614861337512    
  0.14139198081986867    0.1539475482515958    0.17892279719333792    0.21645942694913015    0.26817932527962146    
  0.3380789923668406    0.4299481705304956    0.31839953524908915    0.4034616211370308    0.48041999170745003    
  0.5080344418520882    0.4809658217418102    0.4590529313863773    0.4809657448249741    0.5080345723791688    
  0.48041985905593937    0.40346177674507244    0.3183993537304074    0.24911646537356721    0.20091809797280075    
  0.17066377160976812    0.15394745259395903    0.14851603823941423    0.1539475071840475    0.17066367519923817    
  0.2009182052075444    0.24911629089691886    0.31839953524908915    0.22929111634356206    0.29349747263928666    
  0.363211137353612    0.41468833956614537    0.44184455645241505    0.48096576612780306    0.5568307196148888    
  0.6251758486918512    0.6175126601215486    0.5352722065346482    0.4299483878163369    0.33807874414645234    
  0.26817946865336917    0.21645934784846124    0.17892286581445685    0.15394750599585671    0.14139194124490023    
  0.1410862036477836    0.15388911532126806    0.18238327295705256    0.22929111634356206    0.17066345607344496    
  0.21645972949999845    0.27563230424085977    0.3419867665327307    0.41468836407604026    0.5080346132900728    
  0.6251758734864701    0.7172677908046479    0.717266789334629    0.6251767626149244    0.5080338412311183    
  0.41468897395263526    0.3419862134333764    0.2756328071786594    0.21645937995251588    0.17066374003624868    
  0.14108619241480883    0.12686976244132703    0.12686952505477847    0.14108643565673107    0.17066345607344496    
  0.1361615396791309    0.16640575492059698    0.21175162650403806    0.27563227138401425    0.3632113049238646    
  0.4804198816883552    0.6175127793118205    0.7172668387372249    0.700130170645612    0.57753249063973    
  0.46303026973779876    0.41482633208924424    0.3924199819411134    0.3419862832783762    0.2681794771847773    
  0.20091816319141279    0.15388920022049501    0.1268695007161992    0.11637971165076431    0.1197390740248068    
  0.1361615396791309    0.11845445004695229    0.13561573757617132    0.166405689532335    0.21645978595041038    
  0.2934973517045549    0.40346175449465715    0.5352722694859603    0.6251766909850042    0.5775323721769988    
  0.429779507055346    0.33676976369062045    0.35224883450769306    0.4148262423055567    0.4146889159886662    
  0.3380788657536584    0.24911639599675436    0.18238322383541974    0.14108644839020085    0.11973902909325046    
  0.11309979983825337    0.11845445004695229    0.11295588087033678    0.11845443804008657    0.1361615478309066    
  0.1706633836810771    0.2292912251583314    0.318399333853716    0.42994841925225585    0.5080338083313709    
  0.46303013761769457    0.33676972808087513    0.27717169544812814    0.33676973766502116    0.46303011817785217    
  0.5080339096010805    0.42994831474376427    0.31839943125956394    0.22929115457978994    0.17066343869587636    
  0.13616151159695444    0.11845443998059023    0.11295588087033678    0.11845445861794235    0.11309983043400529    
  0.11973901754715789    0.14108645037505668    0.18238320883791248    0.24911645223601928    0.3380788586716023    
  0.4146889554567982    0.41482623402477903    0.3522489195788124    0.3367697463211092    0.4297794514193932    
  0.5775324827760425    0.6251765733287886    0.5352723517515897    0.40346163108052685    0.2934973762763092    
  0.21645974432498602    0.1664057097930852    0.13561570565966696    0.11845445861794235    0.13616156344804484    
  0.11973907114957176    0.11637968415297288    0.12686949952761853    0.1538891998108944    0.2009181531821188    
  0.26817946450440083    0.3419862791851143    0.3924200062436877    0.4148262901981232    0.4630301815026478    
  0.5775325381582946    0.7001301267478405    0.7172670219460346    0.6175126448988988    0.4804199544420509    
  0.36321125866867693    0.27563236681288683    0.21175160091183948    0.16640575604098573    0.13616156344804484    
  0.17066348220294894    0.14108643966112025    0.12686949551140847    0.12686976860456203    0.14108618230638997    
  0.17066377783269265    0.21645940246677198    0.27563274771436697    0.34198626173506613    0.41468898514038116    
  0.5080338916269143    0.625176700858354    0.7172668186849588    0.7172676542183116    0.6251759555033434    
  0.5080344894183546    0.41468847390680846    0.34198668912426655    0.2756323994291655    0.21645970487542984    
  0.17066348220294894    0.22929110568282196    0.1823833375927409    0.15388912844495864    0.1410861630862811    
  0.1413919798940807    0.15394749772948488    0.17892289867983677    0.2164593527044948    0.2681794312680039    
  0.33807878332534574    0.42994841146012314    0.5352723147213837    0.617512617762048    0.6251759435451286    
  0.5568305799802612    0.480965927603072    0.44184445439165737    0.4146883846933672    0.3632111298996473    
  0.29349744527751453    0.22929110568282196    0.31839958639744276    0.2491162954095527    0.20091821875484828    
  0.17066367815649752    0.15394752777565732    0.14851603702938623    0.1539475030217011    0.17066374370592768    
  0.20091808369997094    0.24911644178077139    0.3183994035357471    0.40346176508614406    0.48041993683914563    
  0.5080345202961587    0.48096586239151967    0.45905279200336313    0.4809659080760352    0.5080343862371792    
  0.4804201191341571    0.40346151303073285    0.31839958639744276    0.42994809912994975    0.3380790783144969    
  0.26817928704302657    0.21645946618350229    0.1789227936938235    0.15394751456257774    0.14139199852388376    
  0.14108617034924711    0.15388917964455345    0.1823831724434173    0.22929124010749224    0.29349732638247683    
  0.3632112375562972    0.4146883635039353    0.44184448844790075    0.48096596352295334    0.5568304410416308    
  0.6251761053996886    0.6175123584879011    0.5352724990418672    0.42994809912994975    0.5080342106138133    
  0.4146887084623343    0.34198640444245065    0.27563265051259367    0.21645947513545585    0.1706637065444476    
  0.1410861687673775    0.12686979074520854    0.12686945169103792    0.14108649347053964    0.17066337353745423    
  0.21645977816158726    0.275632289791497    0.3419868244495868    0.4146884530004024    0.5080344415525103    