#     DFTpy    
  CRYSTAL 
    
  PRIMVEC    
  1.5090712072074648    -2.61378800312263    0.0    
  1.5090712072074648    2.61378800312263    0.0    
  0.0    0.0    2.8405598836551715    
  PRIMCOORD    
  1    1    
  Si    0.0    0.0    0.0    
  BEGIN_BLOCK_DATAGRID_3D    
  3d_datagrid_density    
  BEGIN_DATAGRID_3D#0    
  13    13    13    
  0.0    0.0    0.0    
  1.5090712072074648    -2.61378800312263    0.0    
  1.5090712072074648    2.61378800312263    0.0    
  0.0    0.0    2.8405598836551715    
  0.06471943739917604    0.12255600597389761    0.3028061117454936    0.391266904325496    0.29507381639842833    
  0.2017845666143222    0.17076000795313426    0.20178454564970108    0.2950738202110138    0.39126687004215377    
  0.30280609909973427    0.12255601178582692    0.06471943739917604    0.12255602040509611    0.12234820135629823    
  0.24934773224383108    0.38712688496938474    0.3405859613631169    0.2305377352103835    0.17154089064031758    
  0.17148674336388448    0.2306085513682715    0.3405155729507963    0.3870609754015364    0.24932714704294962    
  0.12255602040509611    0.30280611548100134    0.24934770039716495    0.3032012120422743    0.3869883325334382    
  0.3550017706788258    0.24838835396524944    0.17292628244711322    0.1488114767632312    0.17291997616546861    
  0.2483731162436751    0.35513553684843646    0.3870609747612978    0.30280611548100134    0.3912668505639358    
  0.3871268776253887    0.38698834927029735    0.3910232275658643    0.3405131769667357    0.24851912978952387    
  0.17358201337305365    0.1371079073816424    0.13708156534232085    0.1736313652990316    0.24837309329094462    
  0.3405155855692165    0.3912668505639358    0.2950738318459199    0.3405859669889071    0.3550017743853796    
  0.34051321085247327    0.2953330916657109    0.23057238421646295    0.1728352664148625    0.1370932979294342    
  0.12530748617988238    0.13708156454138376    0.1729199841501884    0.23060853914497842    0.2950738318459199    
  0.20178458542305316    0.2305377196592665    0.24838836523860938    0.24851913520919383    0.23057236424786656    
  0.20157587905646554    0.17150868463396843    0.14889807776689745    0.13709328881296287    0.13710792244187447    
  0.1488115035217025    0.17148674911281722    0.20178458542305316    0.17075999597706776    0.17154086787762107    
  0.17292629890750172    0.17358201501490417    0.1728352529931582    0.17150866038068127    0.1709597045634193    
  0.17150867154993424    0.17283524557111024    0.17358201463537343    0.17292630064729628    0.17154088095334585    
  0.17075999597706776    0.20178457170326725    0.1714867429713559    0.1488115025483561    0.13710791046114493    
  0.13709329035801646    0.14889807763572674    0.17150868678200956    0.20157586914710227    0.23057236844312198    
  0.24851913282679525    0.24838834436643212    0.23053769784091402    0.20178457170326725    0.29507384359119626    
  0.2306085336589218    0.1729199835999443    0.13708157309795738    0.1253074696220804    0.1370932953016255    
  0.17283526071626523    0.23057235470109122    0.295333125065411    0.3405132294791477    0.35500181670695846    
  0.3405859568610834    0.29507384359119626    0.39126687373859426    0.34051560996171265    0.2483731298577173    
  0.17363138137297512    0.13708155195283508    0.13710791109056597    0.17358200765070284    0.24851913073455342    
  0.34051322004961015    0.3910232089986722    0.3869882892956269    0.38712687802279205    0.39126687373859426    
  0.30280611977830546    0.387060968791421    0.35513556864644175    0.2483730895592238    0.172919967415826    
  0.14881151053488242    0.172926290048852    0.248388355005622    0.3550017876305253    0.3869883139065964    
  0.30320117058953    0.24934769018317116    0.30280611977830546    0.12255602550426614    0.2493271513326928    
  0.38706100674527816    0.34051559523912417    0.23060854340000522    0.17148674207865064    0.1715408983503197    
  0.2305377184858607    0.34058595815932363    0.38712692627640777    0.24934772046927808    0.12234819810502758    
  0.12255602550426614    0.06471943739917604    0.12255600597389761    0.3028061117454936    0.391266904325496    
  0.29507381639842833    0.2017845666143222    0.17076000795313426    0.20178454564970108    0.2950738202110138    
  0.39126687004215377    0.30280609909973427    0.12255601178582692    0.06471943739917604    0.11565357358745804    
  0.18036734487628084    0.33950767998408315    0.38205554136574005    0.2780246209216275    0.18990075043445676    
  0.1610773393643031    0.1899007354133003    0.27802464144460437    0.3820555368934715    0.3395076759209997    
  0.1803673413279109    0.11565357358745804    0.18036736255123725    0.18013416634492113    0.29742021461439944    
  0.39094536517190737    0.3230678988146049    0.21690197021880117    0.16190959733005647    0.16186711308122725    
  0.21695915735158533    0.3230063884124276    0.3909174676222036    0.2973723268192817    0.18036736255123725    
  0.3395076799374666    0.29742018168211687    0.3398525697310974    0.3908387850907952    0.33822176649423435    
  0.23379977351172693    0.16338993115853997    0.14104887856719744    0.16338154086430662    0.23379551875899016    
  0.33830168713430275    0.3909174735359604    0.3395076799374666    0.3820555575827557    0.3909453491378736    
  0.3908388184207321    0.3818556185459349    0.3230212139540018    0.2338884960873915    0.16409613844611892    
  0.1302501577916233    0.13023665017992822    0.16412646044565363    0.2337954818583636    0.3230064109829842    
  0.3820555575827557    0.27802462767047625    0.3230679111074598    0.3382217502339303    0.3230212222175594    
  0.27822302917867464    0.21692479415684532    0.16332786660457532    0.13024391435409197    0.11928501172271672    
  0.13023664636804844    0.16338154471685692    0.21695915874496394    0.27802462767047625    0.1899007739545544    
  0.21690194334538263    0.2337997716897513    0.23388849152945557    0.21692478022356823    0.18974272934991915    
  0.16188767904630727    0.14110331385311242    0.1302439064929522    0.13025017695715757    0.14104890159442982    
  0.16186709870123958    0.1899007739545544    0.1610773150759855    0.1619095750589206    0.1633899423726581    
  0.16409612389892866    0.16332787184207057    0.16188765379210496    0.1612250719008767    0.16188765520716691    
  0.16332787481570202    0.16409611156053217    0.16338993903622065    0.1619095850615011    0.1610773150759855    
  0.18990075002997753    0.16186710760610834    0.141048885857255    0.1302501542517835    0.1302439054941738    
  0.14110331927718203    0.16188768016411456    0.1897427341864911    0.21692478998458475    0.23388852571943403    
  0.233799756112156    0.21690194235864024    0.18990075002997753    0.27802466074501203    0.21695913599654212    
  0.16338154899080254    0.13023666027421157    0.11928499403243482    0.130243912961893    0.16332788668340803    
  0.21692479541843745    0.27822302973507335    0.32302123243414455    0.33822175285320993    0.3230678902460931    
  0.27802466074501203    0.3820555721668327    0.32300638311533814    0.23379552409423368    0.1641264569592218    
  0.13023664017600775    0.13025015175514293    0.16409613541878584    0.23388849563549313    0.32302124365105134    
  0.381855608812552    0.39083876476965995    0.39094535985526285    0.3820555721668327    0.3395076513447862    
  0.39091746479626727    0.3383017108591944    0.23379549143044787    0.1633815336389107    0.14104889552342412    
  0.1633899180499164    0.23379979547004298    0.3382217782691764    0.39083878775935477    0.3398525351926232    
  0.2974201683225893    0.3395076513447862    0.18036735728001968    0.29737236027178543    0.390917467727588    
  0.3230063810921454    0.2169591331119282    0.16186709202608968    0.16190958489943627    0.21690194137090194    
  0.3230679049144981    0.3909454248191727    0.29742020560699817    0.1801341588553314    0.18036735728001968    
  0.11565357358745804    0.18036734487628084    0.33950767998408315    0.38205554136574005    0.2780246209216275    
  0.18990075043445676    0.1610773393643031    0.1899007354133003    0.27802464144460437    0.3820555368934715    
  0.3395076759209997    0.1803673413279109    0.11565357358745804    0.28520606953875294    0.33132528155347124    
  0.3908469060142121    0.34036802696149443    0.23289181707510395    0.1601285862448476    0.13708766002721642    
  0.16012859552023362    0.23289183512761477    0.3403680190482385    0.39084690921686904    0.3313252791470908    
  0.28520606953875294    0.3313253048181365    0.33118425362306747    0.3827555470909814    0.3709662883862206    
  0.27332635632684044    0.1821598958722601    0.13782589265343326    0.13781400016590697    0.1821791188972742    
  0.27330367600791045    0.37096593817330675    0.3827178946307173    0.3313253048181365    0.39084695588994406    
  0.3827555089759167    0.390994258124071    0.3709275054076016    0.28836739194649574    0.1961575376396861    
  0.13923100038161762    0.12135846537748358    0.13922466140873668    0.19615959138331623    0.28838378053119657    
  0.3709659413736646    0.39084695588994406    0.34036799410735247    0.37096626913100145    0.3709275469916313    
  0.3402942028938872    0.27331612062036537    0.1961826140979928    0.1399232169798325    0.1127672294807804    
  0.11276601977052039    0.13993179983244544    0.1961595612380416    0.27330365335120477    0.34036799410735247    
  0.23289182727441263    0.2733263687158059    0.28836739173655734    0.27331613797867377    0.23295821632014513    
  0.1821644846299676    0.1392130495565415    0.11276798800614626    0.10393016266657952    0.11276601934020632    
  0.1392246581030128    0.18217911624185681    0.23289182727441263    0.16012861832304043    0.18215988377642298    
  0.19615753185647283    0.19618264650156622    0.1821644752671404    0.16007629359539285    0.13782112969058072    
  0.12137080913565898    0.11276797382083766    0.11276724270884808    0.12135847903849463    0.13781398710899856    
  0.16012861832304043    0.13708765699212008    0.13782588425404446    0.13923102087110967    0.13992319935626146    
  0.1392130270030187    0.13782111594706828    0.13713554930647362    0.1378211083339836    0.1392130422213175    
  0.13992319375633472    0.13923101481683361    0.13782588471305487    0.13708765699212008    0.1601285991991303    
  0.13781400882877728    0.12135848297882698    0.112767232238951    0.11276798583830766    0.121370807153482    
  0.13782111864644495    0.16007627988936501    0.1821644764758512    0.1961826295113721    0.1961575358148169    
  0.18215988247706244    0.1601285991991303    0.2328918442816808    0.18217910009254856    0.1392246730165169    
  0.11276602271464435    0.10393014765444578    0.11276798823666725    0.1392130357538666    0.18216448486936385    
  0.23295824354443018    0.2733161624390712    0.28836739174600634    0.27332635120432086    0.2328918442816808    
  0.34036802077298556    0.2733036594797217    0.19615960587338555    0.13993180253635598    0.11276600631201462    
  0.11276723033269594    0.13992322840449778    0.1961826207353058    0.27331615037198514    0.3402941825686904    
  0.3709274985855297    0.3709662889483173    0.34036802077298556    0.3908469402729406    0.3709659227171461    
  0.2883838144998332    0.19615954899959756    0.13922464545901558    0.12135849028462238    0.13923099174066475    
  0.19615753316709542    0.28836739930568966    0.37092752850214683    0.3909941990452801    0.38275551867931046    
  0.3908469402729406    0.3313252985742175    0.38271792898796414    0.370965938697457    0.2733036660503214    
  0.18217910456341663    0.13781399006893705    0.13782590122187108    0.1821598736599108    0.2733263356241866    
  0.37096631026912963    0.3827555129997979    0.33118426852474997    0.3313252985742175    0.28520606953875294    
  0.33132528155347124    0.3908469060142121    0.34036802696149443    0.23289181707510395    0.1601285862448476    
  0.13708766002721642    0.16012859552023362    0.23289183512761477    0.3403680190482385    0.39084690921686904    
  0.3313252791470908    0.28520606953875294    0.41039591251119734    0.40387694738175045    0.35770426096332614    
  0.26555541626688145    0.17755610927041748    0.12515228408843038    0.1087558918347533    0.12515226401402468    
  0.1775561032586782    0.26555540140580425    0.35770427524927934    0.4038769192245963    0.41039591251119734    
  0.4038769523080836    0.4038602032648224    0.3758154635662508    0.30062125205118934    0.20817453104921713    
  0.1409409635191461    0.10929634578560789    0.10929536474581374    0.14094336722669687    0.2081719133766635    
  0.30062105314243004    0.3758097959089418    0.4038769523080836    0.357704271418449    0.37581542065744966    
  0.35772082591846666    0.3006182628704088    0.22025732952092897    0.151076117191274    0.11042197008958667    
  0.09760876726054334    0.1104209335969599    0.1510753173830277    0.22025974313987065    0.3006210626826716    
  0.357704271418449    0.26555539246960835    0.30062123219058084    0.3006182695572175    0.2655468912267238    
  0.20817486614988395    0.15107673190099555    0.11101450982782853    0.09157107598125211    0.0915713221614664    
  0.1110158607162162    0.15107531016126366    0.20817190649836012    0.26555539246960835    0.17755611870877844    
  0.2081745413234747    0.22025735360211662    0.20817488939687687    0.17756185487726137    0.1409418671410073    
  0.11042041869633838    0.09157180832992631    0.08524390218598205    0.09157131341340422    0.11042093184422061    
  0.14094336258812087    0.17755611870877844    0.12515229463450475    0.14094095666834458    0.15107613342051565    
  0.15107675088101968    0.14094185929241515    0.1251464591281277    0.10929625272716158    0.0976089214449163    
  0.09157180658431759    0.0915710875155267    0.09760878780433851    0.1092953563070223    0.12515229463450475    
  0.10875587244730969    0.10929634419207722    0.11042197666155139    0.11101450549014637    0.11042040597618602    
  0.10929623913113047    0.1087607138796216    0.10929623738144581    0.11042040967631679    0.11101450016149214    
  0.11042195688065413    0.10929634616364882    0.10875587244730969    0.12515227489912883    0.10929536264149606    
  0.09760877956247897    0.09157108256677757    0.09157180293443296    0.0976089259334557    0.1092962538938388    
  0.12514645694696258    0.1409418645790814    0.15107674654304007    0.15107610799948568    0.14094093342734948    
  0.12515227489912883    0.1775561313611135    0.14094335698523697    0.11042093885668873    0.09157132410522136    
  0.08524388551126146    0.09157180481298997    0.1104204165242033    0.14094185157919906    0.1775618654112173    
  0.2081749041237048    0.2202573687041095    0.20817453749944098    0.1775561313611135    0.2655554032974552    
  0.20817192440606208    0.15107533804627732    0.11101586566347764    0.09157130703730237    0.09157108235377781    
  0.11101451619693609    0.15107673825144816    0.20817489426092475    0.2655468625566658    0.30061823044037805    
  0.30062126145697665    0.2655554032974552    0.3577042768955954    0.30062105171976067    0.22025975294136815    
  0.15107529673950465    0.11042091483291464    0.09760879088090799    0.1104219526170176    0.15107610811593566    
  0.22025737189962952    0.300618254097195    0.3577208062511941    0.3758154323767161    0.3577042768955954    
  0.40387695438540877    0.3758098307154912    0.30062106237432107    0.20817191488240738    0.14094335837752375    
  0.10929535994383993    0.10929635583397569    0.14094095216986882    0.2081745130329281    0.30062127087990154    
  0.3758154671806017    0.4038601566800609    0.40387695438540877    0.41039591251119734    0.40387694738175045    
  0.35770426096332614    0.26555541626688145    0.17755610927041748    0.12515228408843038    0.1087558918347533    
  0.12515226401402468    0.1775561032586782    0.26555540140580425    0.35770427524927934    0.4038769192245963    
  0.41039591251119734    0.3530236285980685    0.32942199310774384    0.2668859952048428    0.19142146478764338    
  0.13099941480859875    0.09596924000850783    0.08485363647960192    0.0959692298223072    0.130999426815385    
  0.1914214697105818    0.26688599488235104    0.32942199371032316    0.3530236285980685    0.32942202650272534    
  0.3294227817736859    0.28627770128840463    0.21754538047601896    0.15153874418996463    0.10659150631736519    
  0.08524785177725763    0.08524913597007737    0.10659086419588623    0.1515388936721456    0.21754422724371575    
  0.2862795155800563    0.32942202650272534    0.2668860103899062    0.2862776485826163    0.2668878702808839    
  0.21754588119825768    0.1597095153675597    0.11335389903434628    0.08608809522575518    0.07733182589639497    
  0.08608749792195915    0.11335396501954394    0.15971034738351117    0.2175442415273365    0.2668860103899062    
  0.1914214703514224    0.21754537821094475    0.21754590622525083    0.19141921239816553    0.15153948776792142    
  0.11335398132622815    0.08653544148554736    0.07333734277235834    0.07333710825158792    0.08653579590783228    
  0.11335395285215207    0.15153889581462407    0.1914214703514224    0.13099942824087968    0.1515387405324521    
  0.15970952934031887    0.1515394817303026    0.1310000535153133    0.10659103942079903    0.08608815641533152    
  0.07333654964014119    0.06908296371046507    0.07333710843671204    0.08608750434989981    0.10659085446480772    
  0.13099942824087968    0.09596926306533626    0.10659149245377876    0.11335390958259488    0.11335397972801718    
  0.10659101394730443    0.09596927722127833    0.08524721914677717    0.07733324980884827    0.07333653900767906    
  0.07333735272038672    0.07733183805242864    0.08524912654059022    0.09596926306533626    0.08485361876093134    
  0.0852478310527666    0.08608810022199433    0.08653543002298113    0.08608815546541122    0.08524721107445084    
  0.08485584323760528    0.08524720802856287    0.08608816391724101    0.08653542495575064    0.08608809598807457    
  0.08524783458012217    0.08485361876093134    0.09596924346047714    0.08524912861470992    0.07733182939865522    
  0.07333734494268275    0.07333653687664841    0.07733325197194542    0.08524721524402173    0.09596927493095544    
  0.10659102748068851    0.11335400282431186    0.11335390143973553    0.10659148087827047    0.09596924346047714    
  0.13099943885368762    0.1065908606061979    0.08608750938980347    0.07333710990803236    0.06908295531018323    
  0.07333654737236779    0.0860881687836413    0.10659103094022043    0.13100006021811178    0.15153949465299252    
  0.15970951843751732    0.15153873789554406    0.13099943885368762    0.19142146992318168    0.15153889654476263    
  0.11335396429703569    0.0865358030238237    0.07333710014124567    0.07333734084993111    0.08653544071724373    
  0.11335399070832407    0.15153950106263314    0.19141919793211157    0.21754587946347229    0.217545403677608    
  0.19142146992318168    0.2668860046417241    0.21754424137156653    0.1597103712857105    0.11335395191804698    
  0.08608749039887459    0.07733183580688331    0.08608808014784106    0.11335392418678254    0.15970952108405542    
  0.21754589397146407    0.26688784209770733    0.2862776432095038    0.2668860046417241    0.3294219939486791    
  0.2862795582607828    0.21754423445555765    0.15153889539813742    0.10659085393247757    0.0852491244504164    
  0.08524783754365609    0.10659148423652516    0.15153873039380839    0.21754543307681054    0.2862776799674627    
  0.32942276251580416    0.3294219939486791    0.3530236285980685    0.32942199310774384    0.2668859952048428    
  0.19142146478764338    0.13099941480859875    0.09596924000850783    0.08485363647960192    0.0959692298223072    
  0.130999426815385    0.1914214697105818    0.26688599488235104    0.32942199371032316    0.3530236285980685    
  0.2637224802323747    0.2446721100580269    0.19767000717267677    0.14436365408813417    0.10235456884945736    
  0.07782936534424467    0.06999856117810384    0.07782936671297708    0.10235457497235505    0.14436366027325287    
  0.1976700189956302    0.24467211395015773    0.2637224802323747    0.2446721287829458    0.2446685248553105    
  0.21179614363810262    0.16249525465324066    0.1166133219562037    0.08530293109591634    0.07027891313451198    
  0.07027937485510159    0.08530321249034248    0.11661287795759605    0.16249449725264642    0.21179606805468504    
  0.2446721287829458    0.19767003323287802    0.21179610961125034    0.19767361738947173    0.16249337790182772    
  0.12219953759244231    0.08999228091014529    0.07082457530592708    0.06462234600750597    0.07082364450942241    
  0.08999262090912828    0.12219987407774037    0.16249448657185997    0.19767003323287802    0.14436365638011875    
  0.16249524853126318    0.1624934120365817    0.14436356043104842    0.11661305421425656    0.08999343613153044    
  0.07108934899772613    0.061751714387882205    0.06175182112215844    0.07109006589917546    0.08999260954778857    
  0.11661286869940606    0.14436365638011875    0.10235456822026555    0.11661332517321082    0.1221995297453707    
  0.11661306460070844    0.10235519525951721    0.08530281051705697    0.07082388212187972    0.06175192093197847    
  0.058763679215043135    0.061751820436393656    0.07082364061276115    0.08530320547537866    0.10235456822026555    
  0.07782938186174769    0.08530291837942226    0.08999228194332456    0.0899934585465419    0.08530279940258037    
  0.07782909844138232    0.0702791215769047    0.06462253260902767    0.06175191127746506    0.061751728283684734    
  0.06462236151968688    0.07027936881928194    0.07782938186174769    0.06999855149033218    0.07027891443954738    
  0.0708245851580206    0.07108933905187183    0.07082386686388494    0.07027911797944687    0.06999905280969558    
  0.07027911801967389    0.07082387482298687    0.07108934177380216    0.0708245919064017    0.07027891215955534    
  0.06999855149033218    0.07782936678728875    0.0702793790458929    0.06462236764979017    0.0617517221426899    
  0.061751918421330175    0.06462253285830578    0.07027911951168762    0.07782909844682266    0.08530279794864125    
  0.08999345791942923    0.08999227171308279    0.08530291033820682    0.07782936678728875    0.10235459004159772    
  0.08530319380339602    0.07082364954299565    0.061751823978137464    0.05876367270595526    0.061751917355563776    
  0.07082387684225144    0.08530281066578181    0.10235520838705885    0.11661307198356004    0.12219953712880635    
  0.11661331841460801    0.10235459004159772    0.14436365406345558    0.11661287168253832    0.08999263245341099    
  0.07109006387156083    0.06175181304663844    0.06175172069908834    0.0710893572428896    0.08999343220936892    
  0.11661307408797224    0.14436354158091655    0.16249337209710285    0.1624952781490903    0.14436365406345558    
  0.19767003051117918    0.16249447470619185    0.12219988354990233    0.08999259996861056    0.07082363330168508    
  0.06462236804391167    0.07082457756662093    0.0899922769756805    0.1221995433693686    0.16249342261210917    
  0.1976735647834413    0.21179613200110056    0.19767003051117918    0.24467211139422698    0.21179610410128433    
  0.1624944889782456    0.1166128802436238    0.08530319959696321    0.07027937920159993    0.07027893046519768    
  0.08530291277777494    0.11661331017179578    0.16249527915692372    0.21179613222229987    0.2446685131793362    
  0.24467211139422698    0.2637224802323747    0.2446721100580269    0.19767000717267677    0.14436365408813417    
  0.10235456884945736    0.07782936534424467    0.06999856117810384    0.07782936671297708    0.10235457497235505    
  0.14436366027325287    0.1976700189956302    0.24467211395015773    0.2637224802323747    0.23103638575730548    
  0.21472222097116672    0.1746777003606046    0.12915983160584105    0.09296259461159476    0.07179455710015639    
  0.06507812448687121    0.07179454146410268    0.09296259918238145    0.12915982497124087    0.1746776920951666    
  0.21472221986602194    0.23103638575730548    0.21472223691495987    0.21471814328748368    0.1866807170989109    
  0.14464845921973854    0.10527760852310605    0.07824360853695687    0.06531009105391175    0.06531084209312796    
  0.07824293041536211    0.1052786734653336    0.14464659099004973    0.1866809708077626    0.21472223691495987    
  0.17467770611430808    0.18668068869504587    0.17468201760255814    0.1446446642936809    0.110074415440958    
  0.08228059549592251    0.06571986498624305    0.06039083374415324    0.06571976053751367    0.08228016098529946    
  0.11007462972168014    0.1446465951771355    0.17467770611430808    0.1291598240867986    0.14464845577735458    
  0.1446446864001546    0.12916116951911208    0.10527734510662971    0.08228237882334508    0.06589696241924473    
  0.05784592450433218    0.057844136544798516    0.06589924498911133    0.0822801538658998    0.10527866904008895    
  0.1291598240867986    0.09296260675003723    0.10527760900423715    0.11007440912271242    0.10527736071493797    
  0.09296370002204621    0.07824248804581574    0.06571990982338104    0.057844258271508193    0.05526931011590204    
  0.05784413219822499    0.06571976141340971    0.07824292512789051    0.09296260675003723    0.07179456448058523    
  0.0782436002709983    0.08228060594567227    0.08228238276189877    0.07824247358002627    0.07179511245566104    
  0.06530937487999584    0.06039261133331426    0.057844247166189675    0.0578459330624763    0.060390848030033924    
  0.06531084301039912    0.07179456448058523    0.0650781190349368    0.06531008045816397    0.06571987481586353    
  0.06589695465626882    0.0657199087401266    0.06530936092004287    0.06507980827762135    0.06530937009406021    
  0.06571990248190997    0.06589696274823201    0.06571987834990356    0.06531008870465711    0.0650781190349368    
  0.07179455544152008    0.06531084363240612    0.060390846641220686    0.057845928472110494    0.057844250642829664    
  0.060392610451406654    0.06530937059775538    0.07179510666045504    0.07824247865495074    0.08228238982188094    
  0.08228059492012815    0.07824358608306442    0.07179455544152008    0.09296260958019763    0.07824291663154465    
  0.06571976463286426    0.05784413743534617    0.05526929933985971    0.05784425305888113    0.06571991369450006    
  0.0782424682054372    0.0929637203910119    0.10527736710669058    0.11007443418917646    0.10527760663947926    
  0.09296260958019763    0.12915982414240346    0.1052786870995764    0.08228017386372133    0.06589924611545575    
  0.05784412782238976    0.05784592840451873    0.06589695645359228    0.08228237962754528    0.10527736569142356    
  0.12916115888324803    0.14464464508386182    0.14464846373271653    0.12915982414240346    0.17467771558249817    
  0.14464659015676046    0.11007463867456191    0.08228014878999544    0.06571975102667035    0.06039085567475695    
  0.06571986468917175    0.08228060157335947    0.11007441544039115    0.14464465548848457    0.17468198466736853    
  0.18668069063865678    0.17467771558249817    0.2147222443466601    0.18668098209544998    0.14464660856317269    
  0.1052786869807787    0.07824292418219805    0.06531084132822328    0.0653100982891815    0.07824359345216783    
  0.1052775985048646    0.14464848141470513    0.18668070257411404    0.21471812783732105    0.2147222443466601    
  0.23103638575730548    0.21472222097116672    0.1746777003606046    0.12915983160584105    0.09296259461159476    
  0.07179455710015639    0.06507812448687121    0.07179454146410268    0.09296259918238145    0.12915982497124087    
  0.1746776920951666    0.21472221986602194    0.23103638575730548    0.2637224791397693    0.24467210985691173    
  0.1976700248521524    0.1443636368258888    0.10235457273293325    0.07782937304032607    0.06999856242663847    
  0.0778293596044813    0.10235458532174034    0.1443636447869029    0.19767003358462962    0.2446720921481812    
  0.2637224791397693    0.24467213611462907    0.24466852497510408    0.21179614176567185    0.16249525585431737    
  0.11661331606795819    0.08530292988257368    0.07027892141356702    0.0702793853650229    0.08530321184147958    
  0.11661287269276831    0.1624944851859884    0.21179607184573507    0.24467213611462907    0.19767002863584476    
  0.21179611043582303    0.19767360206397908    0.16249338841499925    0.12219954329002974    0.0899922782857178    
  0.070824580796444    0.06462234932205987    0.0708236378807248    0.08999261502871468    0.12219986976873608    
  0.1624944953737085    0.19767002863584476    0.14436365554398456    0.16249524716566938    0.16249342322547028    
  0.14436355602856504    0.11661305995612845    0.08999344124878549    0.07108935321788486    0.06175171840165404    
  0.0617518248475964    0.07109007882145517    0.08999259726766445    0.11661287812239061    0.14436365554398456    
  0.10235457772602613    0.11661332861727267    0.1221995256730915    0.11661305803503035    0.10235519819152794    
  0.08530280915625933    0.07082387075061707    0.06175192502151854    0.05876368230194659    0.06175181994174007    
  0.07082363795850946    0.08530321285667071    0.10235457772602613    0.07782938269042103    0.08530291315685955    
  0.08999227637522994    0.08999344066518254    0.08530279857535093    0.07782909481262004    0.0702791337657615    
  0.06462253315671956    0.06175191320131106    0.061751731653128895    0.06462236204260903    0.07027937256354404    