#     DFTpy    
  CRYSTAL 
    
  PRIMVEC    
  12.23379951015911    2.2758689434482762e-09    -7.389663558620689e-10    
  2.2758689434482762e-09    12.233799512914125    -2.131864728275862e-09    
  -7.389663558620689e-10    -2.131864728275862e-09    12.233799513681127    
  PRIMCOORD    
  63    1    
  Si    3.0584499351606054    2.6798767323969124e-08    3.058449815595474    
  Si    9.17534969024016    2.7936701795693256e-08    3.0584498152259902    
  Si    3.0584499362985396    6.116899783255829    3.058449814529541    
  Si    9.175349691378095    6.1168997843937625    3.0584498141600576    
  Si    3.0584499347911227    2.573283495983119e-08    9.175349572436035    
  Si    9.175349689870677    2.6870769431555325e-08    9.175349572066553    
  Si    3.0584499359290573    6.116899782189897    9.175349571370107    
  Si    9.175349691008613    6.116899783327831    9.175349571000622    
  Si    1.5292249380144305    1.5292248598437415    1.5292248799370987    
  Si    7.646124693093985    1.5292248609816759    1.5292248795676158    
  Si    1.5292249391523645    7.646124616300803    1.5292248788711664    
  Si    7.646124694231921    7.646124617438737    1.5292248785016833    
  Si    1.5292249376449474    1.5292248587778092    7.646124636777664    
  Si    7.646124692724502    1.5292248599157436    7.646124636408181    
  Si    1.5292249387828816    7.6461246152348705    7.646124635711731    
  Si    7.646124693862437    7.646124616372804    7.646124635342248    
  Si    3.058449951824135    3.0584498560717193    3.8689348454460925e-08    
  Si    9.175349706903688    3.058449857209654    3.831986527652989e-08    
  Si    3.0584499529620697    9.17534961252878    3.7623416090322993e-08    
  Si    9.175349708041622    9.175349613666716    3.725393291239196e-08    
  Si    3.0584499514546524    3.058449855005787    6.116899795529912    
  Si    9.175349706534206    3.0584498561437212    6.116899795160427    
  Si    3.0584499525925866    9.175349611462849    6.11689979446398    
  Si    9.175349707672138    9.175349612600785    6.116899794094497    
  Si    1.5292249421128112    4.587674873497185    4.587674880456319    
  Si    7.6461246971923655    4.587674874635121    4.587674880086836    
  Si    1.5292249432507459    10.704574629954246    4.587674879390387    
  Si    7.646124698330301    10.704574631092184    4.587674879020904    
  Si    1.5292249417433281    4.587674872431253    10.704574637296885    
  Si    7.646124696822882    4.587674873569188    10.7045746369274    
  Si    1.5292249428812628    10.704574628888313    10.704574636230952    
  Si    7.6461246979608175    10.704574630026249    10.704574635861468    
  Si    6.116899700652051    3.074728196794386e-08    5.8655963089913094e-08    
  Si    12.23379945686954    6.1168997883422795    5.722054754784413e-08    
  Si    6.116899701789985    6.116899787204344    5.759003072577517e-08    
  Si    12.233799455362123    3.081928407553007e-08    6.116899815127042    
  Si    6.116899700282568    2.9681349603805933e-08    6.116899815496526    
  Si    12.233799456500059    6.116899787276346    6.116899814061112    
  Si    6.116899701420502    6.116899786138412    6.116899814430595    
  Si    4.5876748199149455    1.5292249013451993    4.587674873412255    
  Si    10.7045745749945    1.5292249024831335    4.587674873042774    
  Si    4.58767482105288    7.646124657802261    4.587674872346323    
  Si    10.704574576132432    7.646124658940195    4.58767487197684    
  Si    4.5876748195454615    1.5292249002792668    10.704574630252822    
  Si    10.704574574625015    1.5292249014172012    10.704574629883338    
  Si    4.587674820683397    7.646124656736328    10.704574629186888    
  Si    10.704574575762948    7.646124657874263    10.704574628817404    
  Si    12.233799434886567    3.058449845667875    3.058449840767061    
  Si    6.116899679807014    3.0584498445299397    3.0584498411365435    
  Si    12.233799436024501    9.175349602124935    3.0584498397011286    
  Si    6.1168996809449485    9.175349600987003    3.0584498400706113    
  Si    12.233799434517083    3.058449844601942    9.175349597607626    
  Si    6.11689967943753    3.0584498434640075    9.175349597977105    
  Si    12.233799435655019    9.175349601059002    9.175349596541691    
  Si    6.116899680575465    9.17534959992107    9.175349596911175    
  Si    4.587674810217134    4.587674879029227    1.5292248775934776    
  Si    10.704574565296687    4.587674880167161    1.5292248772239943    
  Si    4.587674811355068    10.704574635486287    1.5292248765275451    
  Si    10.704574566434625    10.704574636624223    1.529224876158062    
  Si    4.587674809847651    4.587674877963294    7.646124634434042    
  Si    10.704574564927205    4.587674879101228    7.646124634064559    
  Si    4.587674810985585    10.704574634420355    7.646124633368108    
  Si    10.70457456606514    10.704574635558291    7.646124632998625    
  BEGIN_BLOCK_DATAGRID_3D    
  3d_datagrid_density    
  BEGIN_DATAGRID_3D#0    
  53    53    53    
  0.0    0.0    0.0    
  12.23379951015911    2.2758689434482762e-09    -7.389663558620689e-10    
  2.2758689434482762e-09    12.233799512914125    -2.131864728275862e-09    
  -7.389663558620689e-10    -2.131864728275862e-09    12.233799513681127    
  0.018303260667130058    0.018694614228566386    0.019834146391149235    0.021569454178635743    0.02354207276432439    
  0.025367347650399847    0.026698655617784648    0.02725017237465861    0.02699782360298619    0.02621525862010674    
  0.02522022513575448    0.024346615662951432    0.0238775322221274    0.023937558090516352    0.024628385422928008    
  0.02616899930088292    0.02907715746240312    0.03449181051637784    0.04488394032975423    0.0657879019300794    
  0.10799675124639582    0.18954562293197727    0.31908172925124345    0.409548194789164    0.2969935651430501    
  0.12417472278140358    0.07073991641952151    0.12417475496180362    0.29699362034997856    0.4095482225084702    
  0.31908165429452656    0.18954559278444574    0.10799673773693459    0.06578786440603587    0.044883930258984475    
  0.03449181864262767    0.02907716750102623    0.026169021583775265    0.024628384566145897    0.023937554309468353    
  0.023877531207685602    0.024346617638277872    0.02522023170247408    0.026215239583561034    0.026997819736341345    
  0.02725019056467773    0.026698641753661916    0.02536734213379538    0.02354207305723831    0.021569451738861177    
  0.019834142253938383    0.018694612791437488    0.018303260667130058    0.018694606324707326    0.01914483128405915    
  0.020433325188484393    0.022376703721446442    0.0246154022490305    0.026706192459655873    0.028186857185257094    
  0.028732500831024667    0.028326572155518464    0.02728798118302362    0.026028264292650538    0.024937031485894687    
  0.024311236254222508    0.024310027658889195    0.02504555713945412    0.026714327991274187    0.029781806150649934    
  0.03535208634492024    0.045761352264751205    0.06616853240842213    0.10653956821216623    0.18335944513412716    
  0.3065029913058013    0.40984943211793484    0.3428352981223843    0.18467186586059142    0.12426512070452991    
  0.18467194252302593    0.34283541380313276    0.40984936805671884    0.30650295440177633    0.1833594085681639    
  0.10653956998231275    0.06616851399445883    0.045761350514967214    0.035352092284458236    0.029781788477611017    
  0.02671434043408298    0.025045555352555683    0.02431002142388737    0.02431125467921762    0.024937040044223518    
  0.026028270591049237    0.02728797795339802    0.028326560914156616    0.02873251850193231    0.02818683080576887    
  0.026706193278600205    0.02461540732252178    0.02237671358629117    0.020433332346116318    0.01914483493796677    
  0.018694606324707326    0.01983414199799625    0.0204333229004773    0.022155066307716038    0.024766529539155934    
  0.027838984891431554    0.03071765379204836    0.03265830499171889    0.033219209962636186    0.03239508986653962    
  0.03061378814211852    0.02856185957901079    0.02681419852981314    0.025753126830923317    0.02558980119006971    
  0.026443164253963185    0.02846733626509517    0.03202477226217904    0.038064657670159804    0.04850284889996377    
  0.06744175546695173    0.10273295908839296    0.16681357816293432    0.26980361155072125    0.38403856269433817    
  0.41476383929712085    0.3432837877380226    0.29756796187138057    0.34328391166143457    0.41476387907229323    
  0.3840385217528199    0.2698035690831744    0.16681356378124518    0.10273297943089875    0.06744173015178748    
  0.048502824445822955    0.03806466813324753    0.032024761350843006    0.028467344053756942    0.026443166884860418    
  0.0255897976410393    0.025753114179730693    0.026814173757663727    0.028561875439754882    0.03061378728791967    
  0.03239509754537408    0.03321920280226805    0.032658293970511454    0.03071766542634139    0.02783896710593393    
  0.02476654178388824    0.022155064658747933    0.0204333172792242    0.01983414199799625    0.021569462725980742    
  0.02237670560752981    0.024766543339444506    0.028497014742825465    0.03295677074550665    0.03716158904935267    
  0.0399410111106244    0.0406099644441003    0.0391785315937438    0.0362992515100958    0.0330586177088143    
  0.03033307274439868    0.028668389578978742    0.02830289404640681    0.02930304180522031    0.03181268527884712    
  0.03608651843350522    0.0427643959360976    0.05310901522811265    0.06976109557987967    0.09785897650753096    
  0.14481342743580874    0.21727667920032298    0.3090015803705692    0.38453618838482195    0.4108741881426238    
  0.41078269860682337    0.41087415812568584    0.38453617491960057    0.3090014648543977    0.21727666754205988    
  0.1448133706828039    0.09785896224209796    0.0697610679345161    0.053109005092029093    0.04276438960953866    
  0.036086506538575064    0.03181267957238762    0.029303047126796825    0.028302876944411557    0.028668384601982084    
  0.030333070609622453    0.03305862173132549    0.03629925832416498    0.03917851085255092    0.04060996865040162    
  0.039941012906208495    0.03716159305337983    0.0329567578291684    0.02849702867552131    0.024766544922965615    
  0.02237670685747315    0.021569462725980742    0.02354206268322598    0.024615417066640298    0.027838980942519145    
  0.03295673895695478    0.03918415058614845    0.0451791558460414    0.04925757318681994    0.050319268434845695    
  0.048401445425384194    0.04449456578062575    0.04009651249070042    0.036403633290812025    0.0341426959428428    
  0.03358235047143377    0.03473384443673267    0.03770944309134116    0.04262455015397597    0.04970593144644674    
  0.059481601991132914    0.073107448549264    0.09309121929979662    0.12272280449208751    0.1646401224165742    
  0.21745882652718454    0.2703759402857402    0.3074997240234367    0.3202652092756862    0.30749968308075937    
  0.2703758737055323    0.21745877566048602    0.16464010192195785    0.12272276089486932    0.09309123112034663    
  0.07310741885466361    0.05948159881629274    0.04970592424541841    0.04262456881112093    0.03770944604460437    
  0.03473382684021215    0.033582341301399816    0.03414269889805856    0.03640364920765451    0.04009651247813353    
  0.044494554189015996    0.04840145154664282    0.050319278195263606    0.049257583735259215    0.045179136277434404    
  0.03918413106595414    0.03295676346595968    0.027838984276764213    0.024615400685385924    0.02354206268322598    
  0.02536734003783762    0.026706204669672884    0.030717669218457127    0.03716158370979855    0.04517915896529293    
  0.05312774252319808    0.05891096809157759    0.06106973617040562    0.059557357359951414    0.05556695064655333    
  0.05088142159773891    0.04692452689196188    0.0445043514096286    0.043908186222357516    0.045092089150456684    
  0.04811234842461048    0.052954731363508624    0.05947001033715112    0.06753888376842122    0.07713337827182681    
  0.08886514927702924    0.10382788948328202    0.122728043643271    0.14494527701308466    0.16718649792750542    
  0.18397966331106758    0.19027188850495752    0.18397964092383717    0.167186482345957    0.14494528359550385    
  0.12272802640576086    0.10382790014811291    0.08886515697582033    0.07713337680889908    0.06753888361651425    
  0.05947004032006324    0.05295473589205733    0.048112360655005536    0.04509207982314501    0.043908161210996485    
  0.044504372565325884    0.04692452755086505    0.05088141709784654    0.0555669412303602    0.05955737697604845    
  0.0610697480518355    0.05891095769701695    0.05312775836727436    0.04517915147942045    0.03716158289578677    
  0.030717669728497304    0.026706186859645004    0.02536734003783762    0.02669865027802723    0.028186846804271724    
  0.03265831025883284    0.03994100393383486    0.049257587667771656    0.05891095744232478    0.06674194036551657    
  0.07119180020195817    0.07204541594214585    0.07039899872106889    0.0679518473219661    0.06595818395587638    
  0.06490540194549087    0.06482894106122968    0.06555877388283118    0.06715039978304962    0.06972975609486827    
  0.07320361991581756    0.0772267414950798    0.08124917083167245    0.08500205516416762    0.08877304114793644    
  0.09298847126061263    0.09783069921197063    0.10283800242765824    0.10677209424850734    0.10828184154398947    
  0.10677206535875937    0.10283799556724403    0.0978306666373145    0.09298846787939398    0.08877305001436686    
  0.08500204459507817    0.08124915796682632    0.07722670813852645    0.07320360954907125    0.06972975662317454    
  0.0671504013569896    0.06555874616426625    0.06482892645519531    0.06490541593426426    0.06595817895999252    
  0.06795184431242894    0.07039900628215987    0.0720454382248141    0.07119180504205395    0.06674194648698938    
  0.05891097062298769    0.049257578313033255    0.03994101155238984    0.03265830855749982    0.028186840706735543    
  0.02669865027802723    0.027250170605330915    0.02873250554768209    0.03321919657548276    0.04060994762171807    
  0.05031926596273101    0.06106974320793112    0.07119180095652529    0.07950921092267056    0.08593962551365202    
  0.09126575605321252    0.0963548046169772    0.10131985143782904    0.10532694430860022    0.1071703860940117    
  0.10613389079685136    0.10270941478325676    0.09809273425631047    0.09339350633492846    0.0891096086680857    
  0.0851157494020511    0.08109332397204425    0.07690718517309743    0.07288689712423356    0.0696097574546758    
  0.06738754374721426    0.06619592970553688    0.06584660963652111    0.06619591541312397    0.06738755942123847    
  0.06960975697891669    0.07288688271032456    0.07690720377897863    0.08109332374072838    0.08511571200758695    
  0.08910961669608733    0.09339349982053835    0.09809272344937942    0.1027094441483321    0.10613388528384977    
  0.10717038875337037    0.10532695465137455    0.10131987258608978    0.09635480464354318    0.09126577999342192    
  0.08593963845748336    0.07950923087024982    0.07119179861866684    0.06106973482614176    0.05031926818741582    
  0.04060996115174718    0.033219191721622736    0.028732506293775755    0.027250170605330915    0.026997819061513884    
  0.028326551285058853    0.032395085387758066    0.03917851141107658    0.04840144674099861    0.0595573221051582    
  0.07204541094104498    0.08593961131886851    0.10207028004787973    0.1213147289922693    0.14339987457044334    
  0.1654273618567191    0.18230560182187713    0.18901723226465408    0.18336129792832892    0.16724062705193857    
  0.14539161774268833    0.12323079087520114    0.10416836150047605    0.0889315504183561    0.07695349154664985    
  0.06725139456019656    0.05923826323841312    0.05294734300997239    0.0484271969237014    0.04574901126049721    
  0.044894467598278656    0.045748993626127096    0.0484272065939979    0.052947345164645936    0.05923825354129261    
  0.0672513818118568    0.07695349575569072    0.0889315143244514    0.10416834813793038    0.12323075682623258    
  0.1453916029691426    0.167240612271223    0.18336129044289934    0.18901723666492568    0.182305608516396    
  0.1654273759183085    0.14339991905080543    0.12131473125592566    0.10207030102518633    0.08593962928482682    
  0.07204543409630408    0.059557355942303956    0.048401450971296785    0.0391785163744713    0.032395088326630385    
  0.028326543557445235    0.026997819061513884    0.02621523943805481    0.02728799595316574    0.030613774806419452    
  0.03629924593074134    0.04449457823610039    0.05556696378122699    0.07039900430760651    0.0912657386463485    
  0.12131468881961308    0.16318624457496975    0.21569102109976213    0.26838758404817303    0.30564413949005836    
  0.31892268130465135    0.30703720506573856    0.2707200345752937    0.21813597679897775    0.16524695887773624    
  0.12305553980449693    0.09311970235155397    0.07292557043677174    0.059239666002473    0.04955721540534959    
  0.04270952812911505    0.038092724583333994    0.03543517906323576    0.03459392437127351    0.035435168813467595    
  0.03809271218774516    0.04270954487961545    0.049557207375867045    0.05923964638175098    0.07292558409360944    
  0.09311966991895997    0.12305549766154072    0.16524690980768716    0.21813593377143786    0.27071996555707367    
  0.307037202673948    0.3189226035017943    0.30564417301634245    0.2683876646944465    0.215691032010775    
  0.16318628252345305    0.12131475795362721    0.09126577607459879    0.07039901435653337    0.05556694334544476    
  0.04449457329716117    0.03629924011734096    0.03061378058858157    0.02728798269687466    0.02621523943805481    
  0.02522022211742346    0.02602828213772544    0.028561843376457043    0.0330586287853992    0.0400965177330034    
  0.050881418465213414    0.06795182175447055    0.09635477614432027    0.14339987723148023    0.21569105623181362    
  0.3071873884922882    0.3826511427883057    0.4092048440338648    0.409747002682548    0.4107795267359658    
  0.3852005410188551    0.30991303814391263    0.2179634653114064    0.14512916350256852    0.09786722863827949    
  0.06959432634354494    0.05291923204878789    0.04269146559039455    0.036246666028031095    0.03225806267569186    
  0.03006148763658188    0.02937311381788271    0.03006146967375353    0.03225805355301343    0.036246633368248106    
  0.04269145572712263    0.05291921216152799    0.06959433510405602    0.09786715155733967    0.1451291484451313    
  0.21796337237201993    0.30991297070295565    0.38520053193320775    0.410779500946841    0.40974695159768953    
  0.4092049635263876    0.38265121393101886    0.3071874430235226    0.21569103785218893    0.14339990451684242    
  0.09635483437445642    0.06795185512901221    0.05088143341602805    0.04009653277546202    0.033058630086922364    
  0.02856186429737422    0.026028271592910303    0.02522022211742346    0.024346606969714468    0.024937049341068777    
  0.026814172435681297    0.03033305123475253    0.0364036562568939    0.04692450625545127    0.0659581546323901    
  0.10131982269726136    0.16542734710005708    0.2683875343830581    0.38265109969385885    0.4134997569790545    
  0.34241288920338275    0.2972064611373424    0.34346525752002616    0.4155288030160592    0.38503886090681005    
  0.2704854869117827    0.167109208436529    0.10273552790619632    0.06729910729550569    0.048363063437795374    
  0.03805414583784903    0.0322415263369427    0.028964701514831895    0.027256307660694378    0.02672634016203749    
  0.02725630402974943    0.02896468429929356    0.03224152000944117    0.03805412987735546    0.048363086700095356    
  0.06729911960994378    0.10273545731907635    0.1671091536412872    0.27048544303388555    0.385038907143795    
  0.4155289319362665    0.34346527688128475    0.2972064307149179    0.3424129064555275    0.4134998464000053    
  0.38265110150838244    0.2683876064989304    0.16542741432096814    0.10131983908045691    0.06595817715296765    
  0.046924503065534556    0.036403647719060496    0.030333052736273874    0.026814174491103397    0.0249370222396676    
  0.024346606969714468    0.023877542228267445    0.024311265821447908    0.02575312036200709    0.028668374084973063    
  0.03414270211395474    0.04450437268548751    0.06490540975230662    0.10532693348388883    0.18230558512585335    
  0.3056441444802332    0.409204848710744    0.34241300257038776    0.18449895081330386    0.12423288864511565    
  0.18481710611199395    0.34338520275277296    0.4106585309281919    0.3070805604299858    0.18363251401764943    
  0.10654248326060402    0.06605142802986243    0.04566214767572108    0.03538535034072386    0.03003561103555675    
  0.027245897204720735    0.02589651567462934    0.025496311623828684    0.025896533274220042    0.027245894915420187    
  0.030035602067484717    0.03538536715160041    0.04566215906599502    0.06605144523590112    0.10654242009573066    
  0.18363247021716297    0.30708041228252847    0.41065856572353365    0.3433852303890232    0.18481718347808546    
  0.12423283076651899    0.18449888453840127    0.34241288928462466    0.409204817027242    0.3056441407291246    
  0.18230562667827632    0.10532697077248059    0.06490541357579695    0.04450438238859755    0.03414271147949739    
  0.028668377469874745    0.025753107957458853    0.02431124896851198    0.023877542228267445    0.023937552024419707    
  0.024310046780302675    0.02558981004414545    0.028302882263552407    0.03358234578259508    0.04390817348146123    
  0.0648289493710851    0.10717035308662426    0.1890172108888747    0.318922639954434    0.4097469935528267    
  0.2972065873016866    0.12423291842630482    0.07074685062424907    0.12422195770277272    0.2972373504503343    
  0.41001838146467157    0.3195151850543776    0.1897845258878475    0.10800054156697551    0.06569224699934455    
  0.04481077536073482    0.03454820867350466    0.029347097016363895    0.02671161859678206    0.02548904954984526    
  0.025137889616018965    0.025489056266881405    0.026711635000776387    0.029347105021887844    0.03454817968736605    
  0.044810761307582075    0.06569223231073007    0.10800047151960278    0.18978449663208768    0.3195151079036096    
  0.41001847303567707    0.2972375638590964    0.12422205060270027    0.07074682292987569    0.12423286536402708    
  0.29720646860285377    0.40974694699599695    0.3189226882380328    0.18901728635652804    0.1071704212316142    
  0.0648289565030325    0.04390818874043301    0.03358236395462406    0.028302893383979413    0.025589792009626137    
  0.024310036268069858    0.023937552024419707    0.024628388825926016    0.025045557495057182    0.026443164362182442    
  0.02930303936652112    0.034733849017667816    0.045092072520038676    0.06555875313512695    0.10613382976141143    
  0.1833612675216754    0.30703711144502477    0.4107794798138409    0.34346534757187547    0.1848171688347301    
  0.1242219870574212    0.18455829191669654    0.3427594762222568    0.41002851560300685    0.3067994316484167    
  0.18355217295705145    0.10654660142951465    0.06608634055338163    0.04569818191785678    0.03541025801370377    
  0.03004612438939646    0.027242856473127987    0.025884309999484326    0.025480904390359518    0.02588430966425542    
  0.027242868722399276    0.030046115042765352    0.03541023910708686    0.045698170975711494    0.06608634567345495    
  0.1065465405042038    0.18355211241291758    0.3067992758232481    0.4100284335248678    0.34275953588712066    
  0.18455838872236632    0.1242219794869764    0.1848171175327025    0.34346530815829424    0.41077946745137656    
  0.30703713651101    0.18336129430903425    0.10613388711893251    0.06555873441477213    0.04509207847315541    
  0.03473384698881305    0.029303043284484066    0.02644314416147854    0.025045538623435077    0.024628388825926016    
  0.02616898184610727    0.026714328794733087    0.02846735625371907    0.03181269022756057    0.03770944483519418    
  0.048112344825097186    0.06715039154420949    0.10270939496829472    0.16724058020605126    0.2707199356064382    
  0.38520053555759065    0.4155288560298258    0.34338523740457666    0.2972374509650806    0.3427594595913684    
  0.41436566299378597    0.3840313656743401    0.2699864637374305    0.1669691703833858    0.10274691205901638    
  0.0673654128221288    0.048433257571885574    0.03810373101456358    0.03226244652061187    0.028959014650710067    
  0.027232190681393688    0.026695910820827243    0.027232197325725425    0.028959012957328164    0.032262427376615575    
  0.03810371758838313    0.04843324041502918    0.06736541018250287    0.10274686224758342    0.16696913034869398    
  0.26998645536572136    0.38403130364152627    0.4143656325118979    0.34275949391881416    0.29723745726605144    
  0.3433852054526529    0.4155289342376714    0.3852005207817247    0.27072001574745375    0.16724062756011074    
  0.10270945887307079    0.06715039402416147    0.048112352253323894    0.037709448160909265    0.031812691678609756    
  0.0284673318735297    0.02671431360927038    0.02616898184610727    0.029077152731984034    0.029781795994039816    
  0.03202477294335875    0.03608650888632482    0.04262456671257941    0.052954744406425294    0.06972973992834264    
  0.0980927008112369    0.14539160384081717    0.21813596763460338    0.30991293064586245    0.38503887485440863    
  0.4106585899318622    0.41001850158794984    0.4100285937069798    0.3840313789518784    0.30891765367450247    
  0.21740286352012902    0.14495267313444918    0.09788610867578151    0.06968477787405451    0.05301941034093106    
  0.04276465947978711    0.03627810637989137    0.032249529015902965    0.030025636695959847    0.029327419463002616    
  0.03002563836590065    0.03224952823307691    0.036278098260290784    0.04276466291713889    0.05301940736573195    
  0.06968479501778879    0.09788607754253105    0.1449526715483623    0.21740284388525977    0.308917578800352    
  0.38403133123484723    0.4100285402867597    0.4100184255885694    0.4106586365664738    0.3850389916990257    
  0.30991305346212267    0.21813601082182313    0.14539166444502408    0.09809271858923194    0.06972976211047709    
  0.052954749972838215    0.04262458312083469    0.0360865171657524    0.03202477891277975    0.029781785390672506    
  0.029077152731984034    0.034491797465921493    0.03535209632423748    0.03806465989149861    0.04276435684356761    
  0.04970593851079541    0.05947002620293615    0.07320359105535161    0.09339344668805084    0.12323078220643144    
  0.16524692520077558    0.21796335701825958    0.270485440674655    0.3070804423720078    0.3195151639012052    
  0.3067993681532296    0.26998646467374093    0.21740283809724367    0.16476097100850823    0.12286476815266348    
  0.09313624086119726    0.07303051592942703    0.0593630477090894    0.04965163461962732    0.0427509635811385    
  0.038080783985275764    0.035385538917828134    0.03453104231466478    0.035385549980897324    0.03808079553182146    
  0.04275096007604862    0.049651644676856586    0.05936306216139294    0.07303050320115169    0.09313617691993792    
  0.12286478608616631    0.16476091710756904    0.2174028148881198    0.26998642261700756    0.3067993522389452    
  0.3195151240600497    0.30708047345081224    0.27048553568819983    0.21796340711791679    0.1652469471422972    
  0.12323080904873449    0.09339349637932809    0.0732036284648983    0.059470019658065296    0.049705919020502844    
  0.04276437137511068    0.03806465193860962    0.035352069434368916    0.034491797465921493    0.04488392654232986    
  0.045761363758603034    0.04850285597511044    0.05310900426832859    0.05948159937690295    0.06753889828474356    
  0.07722671218979436    0.08910959567466752    0.10416834017044324    0.12305550608710843    0.14512914215313324    
  0.16710921124029796    0.18363244913645213    0.18978451532033128    0.18355215967781394    0.1669691526337607    
  0.14495271840887441    0.12286480846414484    0.10397941764803573    0.08893043121292891    0.07706086321403031    
  0.06738912112765072    0.059351052429764115    0.052998557891766974    0.04840977552622511    0.04568025191263628    
  0.044806871302257315    0.04568023879193597    0.04840978406251578    0.05299854136310684    0.0593510529650952    
  0.06738913210124912    0.07706088363634946    0.08893041998128257    0.1039794640137597    0.12286480541730233    
  0.14495268089473662    0.16696912673416056    0.18355217132388418    0.18978454012441118    0.18363244620979796    
  0.16710923389923893    0.145129152660613    0.12305553244078075    0.1041683816610084    0.08910960537638461    
  0.07722672681894155    0.06753886779340236    0.059481601493300375    0.053109023722450036    0.048502855420988825    
  0.04576134797170853    0.04488392654232986    0.06578786389530203    0.06616850765541742    0.06744171339767317    
  0.06976104700021235    0.07310743586650713    0.07713339621146388    0.08124915564828657    0.0851157214692336    
  0.08893151898332967    0.09311969675210872    0.09786718334386439    0.10273549432026184    0.10654244606183495    
  0.1080005098620653    0.10654657477206535    0.10274684584279527    0.09788609348496304    0.09313621767000048    
  0.08893042048938074    0.08508625259204125    0.08118993212352256    0.07705227311036407    0.0730167588840595    
  0.06967167986610301    0.06736006126227012    0.06609417183861604    0.06571663743279758    0.06609416976231543    
  0.06736006383249464    0.06967168365764279    0.0730167513044052    0.07705227851063834    0.08118993323971944    