#     DFTpy    
  CRYSTAL 
    
  PRIMVEC    
  4.198137931034482    0.0    0.0    
  0.0    4.198137931034482    0.0    
  0.0    0.0    4.198137931034482    
  PRIMCOORD    
  2    1    
  Si    0.0    0.0    0.0    
  Si    2.099068965517241    2.099068965517241    2.099068965517241    
  BEGIN_BLOCK_DATAGRID_3D    
  3d_datagrid_density    
  BEGIN_DATAGRID_3D#0    
  19    19    19    
  0.0    0.0    0.0    
  4.198137931034482    0.0    0.0    
  0.0    4.198137931034482    0.0    
  0.0    0.0    4.198137931034482    
  0.08608789020945867    0.14754447478760893    0.3402778594242539    0.45442664983638187    0.3385155064088826    
  0.18640425994055335    0.09536880210605529    0.05219823594840625    0.034223471183043815    0.029411173045942103    
  0.034223466636825184    0.05219825678931138    0.09536879129345528    0.18640425468598512    0.3385155279075858    
  0.45442658864414687    0.3402778159161369    0.1475444926522617    0.08608789020945867    0.1475445053371976    
  0.2154026888170139    0.3875177488195124    0.447714565055514    0.31769515133607035    0.17449917427914668    
  0.09036847231030876    0.050261174569998075    0.03342145210795354    0.028897067237962613    0.0334214446058976    
  0.05026119923664107    0.09036845882015924    0.1744991368463037    0.317695194837254    0.4477145402900375    
  0.38751775690711704    0.21540267303936633    0.1475445053371976    0.34027785905709523    0.3875177743976765    
  0.45385791941643144    0.4005761718617524    0.260647851014055    0.14409723114397482    0.07760043609430496    
  0.04527603878666609    0.03138198224796643    0.027594664564785064    0.03138196796792019    0.04527604878780542    
  0.0776004307613547    0.14409722124415253    0.26064786639597676    0.4005761690125713    0.4538579616990961    
  0.38751774290124874    0.34027785905709523    0.4544266565979537    0.44771452968816505    0.40057618941462175    
  0.2978640698700321    0.18666022995965276    0.10726018241500758    0.06199215827279718    0.039184199378448685    
  0.029011049694400517    0.026166255355823842    0.029011060141886143    0.039184201217978866    0.06199214104977735    
  0.10726018130934832    0.18666023415749783    0.29786406700218454    0.4005762072043363    0.44771451443060334    
  0.4544266565979537    0.33851554687906216    0.31769517357458743    0.26064785477003505    0.18666025286954996    
  0.12067166694497221    0.07496412116160647    0.0480300764555437    0.033813564469920745    0.02719714163017059    
  0.02528844524601497    0.027197134426123627    0.03381358774455927    0.04803006868014153    0.07496410867923768    
  0.12067166873293673    0.1866602470452288    0.26064786136629203    0.3176951490024693    0.33851554687906216    
  0.18640428111498583    0.17449916254313122    0.14409724280225134    0.10726018191798563    0.07496410748453718    
  0.05199421921159019    0.03786255564960016    0.0301100455926108    0.026387078746459715    0.02528886949506489    
  0.0263870702116121    0.030110055429758267    0.03786254806894192    0.05199420768219973    0.07496411998560365    
  0.10726019183691363    0.14409722071140638    0.1744991517572975    0.18640428111498583    0.09536881443038042    
  0.09036843975394396    0.07760043973024075    0.06199214781292202    0.048030069702857    0.037862550019492285    
  0.031554052945324734    0.028154857698768507    0.02660147323984513    0.026165826246262614    0.026601467695374553    
  0.028154861659760645    0.03155405443313666    0.03786255387633792    0.04803006515770603    0.06199213960467651    
  0.07760043387121308    0.09036845916445194    0.09536881443038042    0.05219824711412637    0.05026117620375105    
  0.04527603307553408    0.03918420305441807    0.033813571462653576    0.03011005046575262    0.028154856968785554    
  0.02750286782928907    0.027510199658275697    0.027595110999651888    0.027510192583828728    0.02750288224713695    
  0.028154861636365363    0.030110038325461476    0.03381357544253358    0.03918419972622394    0.045276032468029484    
  0.05026118462233771    0.05219824711412637    0.0342234811034027    0.03342143977290188    0.031381982302104296    
  0.029011059095528872    0.02719713009117798    0.02638708000220948    0.026601470515557155    0.02751019073015351    
  0.028485232525464553    0.0288966061382835    0.028485230919328468    0.027510191629978673    0.02660147648142187    
  0.026387069473260225    0.027197135678469046    0.02901106724843631    0.03138197054659137    0.03342143911412658    
  0.0342234811034027    0.029411175577252636    0.028897056726366617    0.027594674831410176    0.026166259722029607    
  0.025288440152899293    0.025288874490046246    0.026165815863579897    0.02759509982961084    0.028896613562680546    
  0.029411633642303984    0.028896605614010137    0.027595121672485647    0.02616581454176096    0.02528886470912638    
  0.02528844448765966    0.026166260151754783    0.027594673323315656    0.02889706557351837    0.029411175577252636    
  0.03422347590937605    0.03342144633129905    0.031381975480843524    0.029011064685960587    0.027197133134255216    
  0.026387078297805715    0.026601472761908693    0.027510189252050933    0.028485228209963732    0.02889662044572639    
  0.02848522232304944    0.027510192630839862    0.02660146670195581    0.02638705837967772    0.027197139386187456    
  0.02901106070097636    0.03138197653601998    0.03342143504360876    0.03422347590937605    0.05219825192316625    
  0.050261186977666246    0.0452760407634677    0.039184200864089296    0.033813571579154336    0.030110049303644516    
  0.02815486281000833    0.02750287705179164    0.02751020588926006    0.027595116479104523    0.02751019843751254    
  0.027502890815742774    0.028154859041088026    0.030110057423832715    0.03381358117854696    0.03918420116191226    
  0.04527603231533088    0.05026117807632306    0.05219825192316625    0.0953688114991177    0.09036845101895082    
  0.07760042855054511    0.061992148095344646    0.04803006134479584    0.03786254779756039    0.031554059704033466    
  0.028154854120925207    0.02660146737603121    0.026165826840806428    0.026601475690164633    0.02815487029778111    
  0.03155405882577278    0.037862552306871904    0.048030063343598    0.06199213454553071    0.07760043541274982    
  0.09036845106315476    0.0953688114991177    0.1864042770046942    0.1744991712453117    0.14409722717899015    
  0.10726019257755172    0.07496411076620092    0.0519942166467697    0.03786255294784227    0.030110038670206275    
  0.026387068366709683    0.02528887089959366    0.02638707091920685    0.030110048873660988    0.03786254880929983    
  0.05199420756091045    0.0749641034636744    0.10726019148404112    0.14409722252433785    0.1744991469888676    
  0.1864042770046942    0.33851554541157797    0.31769517543786274    0.2606478729121909    0.18666024330750278    
  0.12067165235871155    0.07496412067884367    0.048030072237593535    0.03381357482728105    0.027197142576425522    
  0.025288443954080607    0.027197138413198325    0.03381357550359642    0.048030067317714344    0.07496411638782635    
  0.12067167071118544    0.186660263926718    0.260647842906822    0.31769515636506906    0.33851554541157797    
  0.4544266660194655    0.44771445764745005    0.4005761846300721    0.2978640953647155    0.18666022344247288    
  0.10726017439450598    0.061992148849839154    0.03918420017944865    0.02901106240237533    0.02616626069712661    
  0.029011055751583064    0.03918419813142263    0.06199214618287815    0.1072601866272914    0.18666024395827857    
  0.2978640678852619    0.40057618101035947    0.44771448881842024    0.4544266660194655    0.34027780916671363    
  0.3875177359242133    0.4538579545467283    0.4005761676312085    0.26064784434660176    0.1440972351139274    
  0.07760044021039635    0.045276030360584654    0.03138198004160272    0.027594668641847182    0.03138197460532985    
  0.045276047299613965    0.07760044116428726    0.14409721989992788    0.26064786308326465    0.40057618253866867    
  0.4538579814026307    0.3875177506843851    0.34027780916671363    0.1475445218533928    0.21540270587996904    
  0.38751775468660876    0.44771448375358863    0.31769511938151784    0.17449915201580038    0.09036846600687337    
  0.05026117519942403    0.03342145027304612    0.02889706549591803    0.033421444402341564    0.050261184039177585    
  0.09036846314446588    0.1744991630781551    0.31769518939885577    0.44771451241827037    0.38751772322067285    
  0.21540266629374435    0.1475445218533928    0.08608789020945867    0.14754447478760893    0.3402778594242539    
  0.45442664983638187    0.3385155064088826    0.18640425994055335    0.09536880210605529    0.05219823594840625    
  0.034223471183043815    0.029411173045942103    0.034223466636825184    0.05219825678931138    0.09536879129345528    
  0.18640425468598512    0.3385155279075858    0.45442658864414687    0.3402778159161369    0.1475444926522617    
  0.08608789020945867    0.14754451293949006    0.21540266429850974    0.38751776044926334    0.44771452345416085    
  0.3176951513809433    0.1744991683333831    0.09036846349755122    0.05026117380653708    0.03342144420414789    
  0.028897064443603394    0.033421440102316693    0.05026120021980349    0.09036843617198025    0.17449915306531721    
  0.3176951837027854    0.44771449262412694    0.38751775496823543    0.21540268401817092    0.14754451293949006    
  0.21540269361176148    0.28170424950117967    0.4217727066001402    0.43544990698659247    0.297789684908348    
  0.16362605363192506    0.0858446191535379    0.04853693983202672    0.032749145354583314    0.028484780630650623    
  0.03274913764294955    0.04853696076679939    0.08584460822426632    0.16362601813408673    0.29778970220889844    
  0.4354499149775572    0.4217727203526784    0.2817042050069532    0.21540269361176148    0.38751777731987475    
  0.4217727561958688    0.4545470348626666    0.3803731234203981    0.24400962946700086    0.1358357856982921    
  0.07427988770331898    0.044151786621322256    0.031092081684045352    0.02751063584715957    0.031092069311445293    
  0.044151795767336306    0.07427988452627124    0.13583580275802495    0.24400965854764928    0.3803731093002058    
  0.4545470523103498    0.42177268492810766    0.38751777731987475    0.4477145346402743    0.43544988069704094    
  0.3803731299299224    0.2790709032299866    0.1753434515493767    0.1021246010622861    0.06018941407643003    
  0.038885182354960406    0.029300940130260147    0.026601036429429292    0.029300955429742988    0.03888518909494684    
  0.06018939096605309    0.10212460977414475    0.17534345876720128    0.279070904461719    0.38037313773903175    
  0.4354499121766889    0.4477145346402743    0.3176951546579931    0.2977897180870828    0.24400963898392097    
  0.17534346779437052    0.11463359424645767    0.07258443190182566    0.04764491706213341    0.034390945145287996    
  0.028186003737241932    0.026387502288330866    0.02818599618049208    0.03439096020175356    0.047644908008990586    
  0.0725844146315632    0.11463359337978765    0.1753434751751874    0.24400964210322323    0.29778966120670647    
  0.3176951546579931    0.17449916310660102    0.16362604000028966    0.1358358022046168    0.10212462348370789    
  0.0725844144505477    0.051574863978884555    0.03863611506704502    0.0315542630449501    0.028186463247924794    
  0.027196689067057474    0.028186447795799607    0.031554258549910105    0.03863611283113331    0.05157486275604502    
  0.07258442430053498    0.10212462749464087    0.13583578305314262    0.16362603761325545    0.17449916310660102    
  0.09036846588218203    0.08584459441074711    0.07427988397017521    0.06018940100133463    0.04764490930926092    
  0.038636107621351064    0.03320093836033715    0.030442181207021593    0.029300496346680856    0.029011516608008575    
  0.029300493160376168    0.030442177518771926    0.03320093106665019    0.03863612202390183    0.047644912398584566    
  0.06018939956664689    0.07427988362582008    0.08584460135508085    0.09036846588218203    0.050261186889909736    
  0.04853694198708649    0.044151777409177494    0.03888518880289299    0.034390948647014946    0.03155427482820231    
  0.03044218826992377    0.03053912485766771    0.03109255568776485    0.031381493268357236    0.031092551311874023    
  0.030539128201451743    0.03044218977077866    0.03155425893188447    0.034390949925901915    0.038885184594883604    
  0.044151777291922226    0.04853694364308694    0.050261186889909736    0.0334214537603142    0.032749134421619266    
  0.03109208002654452    0.02930094730548232    0.028185996632412173    0.02818646073443152    0.029300494759761504    
  0.031092546069169034    0.032748663143418656    0.033421936774688764    0.03274865949611529    0.031092539767667755    
  0.029300495999671956    0.028186452419575073    0.028186001340154268    0.02930096672509409    0.031092065978073024    
  0.03274913259965577    0.0334214537603142    0.028897066862824897    0.028484769716940733    0.027510636121268816    
  0.02660104126700544    0.026387497078401833    0.027196697120348258    0.0290115208880083    0.031381486434494454    
  0.033421933358207374    0.03422297912978101    0.03342193368339965    0.03138150613321037    0.029011506315072502    
  0.027196694576062472    0.0263875034150561    0.02660103232299354    0.027510638947776535    0.028484776449357208    
  0.028897066862824897    0.033421452976725226    0.03274914037359128    0.031092071218117454    0.02930095923814526    
  0.02818599730549522    0.02818645503493755    0.029300493801567632    0.031092549049840216    0.03274865747415438    
  0.033421937606409526    0.03274863886068428    0.031092545789405526    0.029300494706629075    0.028186442683873582    
  0.02818600289215116    0.029300955150101546    0.031092070998656466    0.032749131366225474    0.033421452976725226    
  0.050261191993145    0.048536945131711674    0.04415178200074881    0.038885182341578194    0.034390948201853136    
  0.03155426191262194    0.030442189064781584    0.03053912085088428    0.031092554623323502    0.031381502326840026    
  0.031092544365261123    0.030539135796701446    0.0304421826370748    0.03155426541312217    0.0343909562087392    
  0.03888518707741124    0.04415177867713852    0.04853694227950523    0.050261191993145    0.09036846778859452    
  0.08584460171224315    0.07427987535725036    0.060189401166490616    0.0476449021746511    0.038636111493228355    
  0.03320094340481756    0.030442188599281578    0.029300488297423592    0.029011519773654352    0.02930050146556251    
  0.03044218099318311    0.03320093961783761    0.03863611051200623    0.047644908039328956    0.06018939926866902    
  0.07427989716400502    0.08584461566235638    0.09036846778859452    0.17449915917616773    0.16362604652171922    
  0.1358357914784616    0.10212462409713674    0.072584415369307    0.051574857064444125    0.038636120541949294    
  0.031554254519023085    0.02818645169826539    0.027196700235410987    0.028186445602238843    0.03155426746824135    
  0.038636116155346636    0.05157485603269422    0.07258442467071279    0.10212463005864762    0.13583578382317194    
  0.16362601968672144    0.17449915917616773    0.31769519545723335    0.29778966854758    0.2440096691464651    
  0.17534347119020818    0.11463359514624792    0.07258442415088341    0.04764492157254052    0.03439095425650459    
  0.02818600687123253    0.026387506730168202    0.02818600468990309    0.03439095459497262    0.04764491063024577    
  0.07258441636096033    0.11463360929796107    0.17534349406949143    0.2440096435764538    0.29778967914835225    
  0.31769519545723335    0.4477145400013778    0.4354498686058449    0.38037311999554724    0.2790709463520512    
  0.1753434399547768    0.1021246066617357    0.060189402460923684    0.03888517868352184    0.029300949537256413    
  0.026601041306071955    0.029300950656167273    0.03888518594665694    0.0601894046526671    0.10212461051462149    
  0.17534347061699798    0.27907091292192227    0.3803731074121659    0.4354498869167287    0.4477145400013778    
  0.38751773698114333    0.4217727118114979    0.4545470614905509    0.3803731363496179    0.24400964873026207    
  0.13583580975513043    0.07427990174181955    0.04415177578757555    0.03109207491845252    0.027510638203694943    
  0.031092071308531935    0.0441517948478026    0.07427988301602527    0.1358357779226241    0.24400964446116724    
  0.38037312628505904    0.4545470841970489    0.42177273317076264    0.38751773698114333    0.21540272994463508    
  0.28170426059364806    0.42177276650557305    0.4354498997301177    0.29778966249940836    0.1636260376886938    
  0.08584461625063707    0.04853693754578011    0.032749143419568194    0.02848478327913144    0.0327491348638786    
  0.04853694303953393    0.0858446178315237    0.1636260231544679    0.2977897228659578    0.43544990954038443    
  0.4217727091958614    0.2817042119456953    0.21540272994463508    0.14754451293949006    0.21540266429850974    
  0.38751776044926334    0.44771452345416085    0.3176951513809433    0.1744991683333831    0.09036846349755122    
  0.05026117380653708    0.03342144420414789    0.028897064443603394    0.033421440102316693    0.05026120021980349    
  0.09036843617198025    0.17449915306531721    0.3176951837027854    0.44771449262412694    0.38751775496823543    
  0.21540268401817092    0.14754451293949006    0.3402778483505867    0.38751770061334667    0.45385798597254207    
  0.4005762257747946    0.2606478819705788    0.14409723432771745    0.07760043633048636    0.04527603192733463    
  0.03138198170579749    0.02759467337885314    0.03138197306442679    0.04527605512631629    0.07760041661505432    
  0.1440972211619256    0.26064788363777186    0.40057615250942974    0.4538579647648266    0.38751774335277206    
  0.3402778483505867    0.3875177704110202    0.4217727389118905    0.4545470421106149    0.38037313027608477    
  0.24400963424359173    0.13583580775018328    0.07427990187401584    0.044151775744543986    0.03109207839281967    
  0.027510641449746655    0.03109207213759287    0.04415179674554855    0.0742798834842806    0.13583578860192055    
  0.24400965433181135    0.38037314156880886    0.45454704956158076    0.4217727012847652    0.3875177704110202    
  0.4538580028152038    0.45454709148980565    0.4194490138500627    0.318214460967653    0.20043886184509557    
  0.11473540944044971    0.06587391773180298    0.04140355407280842    0.030539596187544073    0.02750243115286325    
  0.030539582540025284    0.041403560529769706    0.0658739194069013    0.1147354185461043    0.20043889716545657    
  0.31821449545763014    0.4194490243840978    0.454547060638867    0.4538580028152038    0.4005762000890688    
  0.3803731074736826    0.3182145255652894    0.22917135922910337    0.14653283988260324    0.08915724359702955    
  0.05576023073415469    0.03841670851201319    0.03044171377412704    0.028155306103408807    0.03044171793192556    
  0.03841670725454841    0.055760211336972273    0.0891572471728038    0.14653284463473126    0.22917137396719767    
  0.3182145124326709    0.38037312685429076    0.4005762000890688    0.2606478807686417    0.24400967159287662    
  0.20043886578497694    0.14653286391820242    0.09950472665819458    0.06676580708191795    0.04707748069992913    
  0.03651456257353252    0.03155474088338902    0.030109588092789703    0.03155473658824719    0.03651457787268987    
  0.04707746454788842    0.06676577945248036    0.09950471745897711    0.14653285704473343    0.2004388734473914    
  0.24400961894383066    0.2606478807686417    0.14409724572041496    0.13583578988003853    0.11473542086036516    
  0.0891572531750428    0.0667657878276784    0.05096406335212215    0.0414366527960427    0.036515073266515916    
  0.03439047326397924    0.03381406879628547    0.03439046832934103    0.03651507480267521    0.04143664486447936    
  0.050964055785065916    0.0667657892174431    0.08915725624656592    0.11473539674210838    0.13583579791948502    
  0.14409724572041496    0.07760044031896543    0.07427987340533279    0.06587392047085361    0.055760214832864356    
  0.04707747002815777    0.04143664030356446    0.03885584014968335    0.038416180667604174    0.03888570485050978    
  0.03918368193079744    0.038885706029452    0.038416185081022194    0.038855848187045294    0.041436655944051194    
  0.04707747676505253    0.05576022300327086    0.06587391717678125    0.07427988660678018    0.07760044031896543    
  0.045276045951248504    0.04415178291736097    0.04140354968299823    0.03841671035898653    0.03651456227231363    
  0.03651507958117378    0.03841618621854072    0.04140408686239802    0.04415124035701702    0.04527659960954134    
  0.04415123700467558    0.041404107520800475    0.03841618293498494    0.03651507116664998    0.03651456779296754    
  0.038416712882670644    0.041403549796384574    0.044151789900193895    0.045276045951248504    0.03138198608765446    
  0.03109206894072042    0.030539593499900628    0.03044171724045142    0.03155473660702235    0.034390467566655335    
  0.038885711956562256    0.044151234615286576    0.04853754163598577    0.05026059336839632    0.048537523974279934    
  0.044151224912938124    0.03888570440775638    0.03439045971725371    0.03155474344597854    0.030441730267491852    
  0.0305395833551239    0.03109206760461969    0.03138198608765446    0.02759467501656829    0.027510629833798535    
  0.027502440825130117    0.028155309661385502    0.030109580785376955    0.033814073799162875    0.03918367744984677    
  0.04527657374409235    0.05026059791309888    0.052198855133179595    0.05026059406156713    0.04527661068082328    
  0.03918365714579211    0.033814058728824196    0.03010959033087239    0.028155305506862006    0.027502436097678426    
  0.02751063366647807    0.02759467501656829    0.03138198162474907    0.031092075492349425    0.03053958655561199    
  0.030441721266437464    0.03155473362046824    0.03439047339997418    0.03888571687037512    0.044151236225018695    
  0.048537526434931644    0.05026060568863031    0.048537511353252766    0.04415123925726219    0.038885711313703775    
  0.03439045408933224    0.031554748847867915    0.03044171867720272    0.030539582789508007    0.031092068050954928    
  0.03138198162474907    0.04527604799564332    0.04415178599877908    0.04140355178332542    0.03841670557920932    
  0.03651456363539236    0.036515076342061525    0.038416181871362864    0.04140409164989791    0.04415123787317138    
  0.045276602758425794    0.044151231873764796    0.04140409719500914    0.0384161942495611    0.03651508238840614    
  0.03651457674925377    0.0384167075639906    0.04140354890429406    0.04415178475313275    0.04527604799564332    
  0.0776004507579925    0.07427987816004865    0.06587390861015549    0.055760211803364414    0.047077464786296194    
  0.04143664859943292    0.038855849914361563    0.038416176894180226    0.038885706825207894    0.03918367525651566    
  0.03888571989954644    0.03841618457472388    0.038855845750401484    0.041436644729923096    0.047077472490291324    
  0.055760220228978016    0.06587392266179387    0.07427989257894914    0.0776004507579925    0.1440972381925779    
  0.13583580236607842    0.11473540026118546    0.08915725687677517    0.06676577814830716    0.05096406262301868    
  0.04143665377894158    0.03651506310027005    0.03439046721023268    0.03381405878098747    0.03439045396318561    
  0.036515080198023964    0.041436650696797556    0.0509640622211163    0.06676578283391907    0.08915725858287672    
  0.1147353980478974    0.13583578075503666    0.1440972381925779    0.260647895100632    0.2440096574466554    
  0.2004388952398645    0.1465328457278365    0.09950471031479564    0.06676578429543317    0.047077482295412566    
  0.03651456597727273    0.031554746342172674    0.030109583153376418    0.03155474291318641    0.036514569777574495    
  0.0470774709779463    0.06676578131228665    0.09950474759103885    0.1465328602631724    0.20043884962533537    
  0.2440096586331455    0.260647895100632    0.4005762035293264    0.3803730945206583    0.3182145048334323    
  0.22917136486472175    0.14653281495557086    0.0891572455122255    0.05576022230996819    0.03841669999721256    
  0.030441715857271845    0.028155312331531963    0.030441720812155536    0.038416703989641164    0.055760222948285164    
  0.0891572494894889    0.14653283239952858    0.22917136382536568    0.3182144843990276    0.38037312491826997    
  0.4005762035293264    0.45385796123491645    0.4545470295549183    0.41944901121626227    0.31821449575739924    
  0.20043886681131007    0.11473542587359148    0.06587393481495517    0.041403541714144704    0.030539589520515137    
  0.027502438833739883    0.03053958761851823    0.041403559795378325    0.0658739161477896    0.11473539573938299    
  0.2004389091023098    0.3182144692701587    0.41944906782196156    0.4545470684727401    0.45385796123491645    
  0.3875177952388028    0.42177273228882195    0.45454710267105164    0.3803731360205497    0.2440096239605254    
  0.13583581235496342    0.07427989420692888    0.04415177646944932    0.03109208068730863    0.027510642051923856    
  0.0310920713624718    0.04415178320875279    0.07427988925028742    0.13583580167076362    0.24400965848423467    
  0.38037314752563256    0.45454706355368035    0.4217726904067769    0.3875177952388028    0.3402778483505867    
  0.38751770061334667    0.45385798597254207    0.4005762257747946    0.2606478819705788    0.14409723432771745    
  0.07760043633048636    0.04527603192733463    0.03138198170579749    0.02759467337885314    0.03138197306442679    
  0.04527605512631629    0.07760041661505432    0.1440972211619256    0.26064788363777186    0.40057615250942974    
  0.4538579647648266    0.38751774335277206    0.3402778483505867    0.45442667644467233    0.44771445770432544    
  0.40057621117225145    0.2978640999168153    0.18666023472509824    0.10726019205072426    0.061992138957968734    
  0.039184190359983245    0.02901106202370209    0.026166254564692466    0.029011051713408748    0.039184207753913895    
  0.06199213215414508    0.1072601849336452    0.1866602423135349    0.29786406324797693    0.40057618360511016    
  0.4477144922460045    0.45442667644467233    0.4477145171595986    0.4354499017510738    0.3803731299248248    
  0.2790709469982054    0.17534344243994954    0.10212462209048366    0.06018941383075634    0.038885177298144204    
  0.029300953137219986    0.02660104208701935    0.029300948009438357    0.03888519937211441    0.06018940213613187    
  0.10212459846158287    0.17534347793672345    0.2790708966454517    0.3803731318995026    0.43544983055755887    
  0.4477145171595986    0.40057623665446607    0.380373155783455    0.31821447377541345    0.22917136044264333    
  0.14653282524799494    0.0891572402214541    0.055760217653419084    0.038416704353187774    0.03044172871672615    
  0.028155303890736578    0.030441710794882504    0.038416712073626236    0.05576021226587832    0.08915724779788682    
  0.14653285299813745    0.22917137325220044    0.31821450374590704    0.3803731280292704    0.40057623665446607    
  0.297864082726081    0.27907089813856994    0.22917135874363442    0.16662093414450002    0.11174867443257407    
  0.07365027300807155    0.0509365764648277    0.038855314859178335    0.033201416781011336    0.03155358131480191    
  0.03320142728443307    0.03885531770834414    0.05093656966464147    0.07365026806109122    0.11174869058233841    
  0.16662093991239446    0.22917137979877805    0.27907089984570516    0.297864082726081    0.18666024418941599    
  0.1753434743221836    0.14653282888814845    0.1117486950365745    0.08153074304834723    0.06044023528769239    
  0.04788538491250589    0.04143717796903328    0.038635591936193155    0.03786306932195887    0.03863558383395252    
  0.041437202037737736    0.0478853801603371    0.06044022752636548    0.0815307444097944    0.11174870074846238    
  0.1465328296976542    0.1753434314321043    0.18666024418941599    0.10726018788062176    0.10212461821893665    
  0.08915725447424334    0.07365027778395539    0.060440235430401    0.051883976996095905    0.04788596033754009    
  0.047076903183794434    0.047645500991537755    0.048029493673855166    0.04764549396387503    0.047076895228354974    
  0.04788595718385774    0.05188397010998566    0.06044023774931332    0.07365027797140887    0.08915724276861191    
  0.10212460722989859    0.10726018788062176    0.06199214492703203    0.060189386067983464    0.05576021509807207    
  0.05093656792322001    0.047885376631883594    0.04788595975504475    0.05093596899446606    0.0557608292548897    
  0.060188754930022785    0.061992798921924455    0.06018875282135817    0.05576083201926326    0.05093597080197129    
  0.04788596383706623    0.04788537723564272    0.05093657266205095    0.055760214276985395    0.060189395606098    
  0.06199214492703203    0.03918419779014116    0.038885184790269776    0.03841669787632669    0.03885531939662374    
  0.04143718190554896    0.04707690579971037    0.055760827597276574    0.06587322952764559    0.07428059887185429    
  0.0775997016716735    0.07428060471478014    0.06587325758937135    0.055760838954351265    0.04707689549517942    
  0.041437186854487655    0.03885531655120288    0.03841669484284695    0.03888518394288763    0.03918419779014116    
  0.029011066333572713    0.02930094772206162    0.03044172382128966    0.03320142558072766    0.038635581652805076    
  0.0476454934728099    0.06018874341203067    0.0742805934539023    0.08584386731684494    0.09036924719427732    