#     DFTpy    
  CRYSTAL 
    
  PRIMVEC    
  2.5630192667003797    -4.439279590702983    0.0    
  2.5630192667003797    4.439279590702983    0.0    
  0.0    0.0    8.472611503651523    
  PRIMCOORD    
  4    1    
  Si    2.56301926670038    1.4797598635676608    0.5338550145393288    
  Si    2.56301926670038    -1.4797598635676616    4.770160766365089    
  Si    2.56301926670038    1.4797598635676614    3.7024507372864317    
  Si    2.56301926670038    -1.4797598635676614    7.938756489112192    
  BEGIN_BLOCK_DATAGRID_3D    
  3d_datagrid_density    
  BEGIN_DATAGRID_3D#0    
  23    23    37    
  0.0    0.0    0.0    
  2.5630192667003797    -4.439279590702983    0.0    
  2.5630192667003797    4.439279590702983    0.0    
  0.0    0.0    8.472611503651523    
  0.015139567472054227    0.015660605524772588    0.017322129162814566    0.0205015873636455    0.02587286246233953    
  0.034371533750753996    0.04716829443637561    0.06518713814054747    0.08796310350827194    0.11208857733411783    
  0.1311483159336566    0.13847324251759816    0.13114832659669368    0.11208859043950961    0.08796308600222327    
  0.06518712751805122    0.04716830084521289    0.034371534726907196    0.02587287361837264    0.020501585666893637    
  0.017322122358578163    0.015660598035789917    0.015139567472054227    0.015660597794816523    0.015660582186521523    
  0.016753969175997207    0.019198680483099688    0.02357365954042853    0.03078846630003644    0.042145139131407    
  0.05904831245124101    0.08198190836555637    0.1089559337582249    0.13425688391686114    0.149916986921414    
  0.1499197129812904    0.1342547327530278    0.10894713815343228    0.08198924719115165    0.05905085370473366    
  0.04214205670054223    0.030788651513384217    0.023573551800427604    0.01919882233708282    0.016753832918907776    
  0.015660597794816523    0.017322122028596953    0.016753972131922028    0.017322093200297133    0.01919875891317348    
  0.022913076586406674    0.02944005006097537    0.04037752701330687    0.05791030300868843    0.08386616774439067    
  0.11766951102452473    0.15411020100933182    0.18311874571430323    0.19425002054668628    0.1831196871822042    
  0.15412287275555556    0.11766797535498347    0.0838562513594653    0.05791265260975706    0.04037925293463723    
  0.02944003382261517    0.02291290309555645    0.01919882808528219    0.017322122028596953    0.020501585047181848    
  0.01919868062717831    0.01919876389667858    0.020501469819711314    0.02357373900324427    0.029439664895612568    
  0.040018029997537875    0.05828050582415372    0.08776958838398352    0.13041549491308513    0.18222922661815252    
  0.23050659815203758    0.25923340182238797    0.25922673180431405    0.23049241460827644    0.18223361966622456    
  0.13042137386684713    0.0877707994571053    0.05827991812865032    0.04001611484773193    0.029440040890206003    
  0.023573550340453654    0.020501585047181848    0.025872872217310564    0.023573669184863928    0.02291308057678107    
  0.02357374147417974    0.0258728743106887    0.03078886866171305    0.040377628042373805    0.05828012574284655    
  0.08963826631346206    0.13943545164273596    0.20634182504526608    0.2745126606283047    0.3203481106422828    
  0.334888835130625    0.320369501890103    0.27450514385444086    0.2063314350858108    0.1394413429417151    
  0.08963586515601399    0.05827990944179034    0.0403792455343963    0.03078864891172153    0.025872872217310564    
  0.034371521926478535    0.030788464603114817    0.02944005699791978    0.029439666996161497    0.030788857431950884    
  0.034370301572730765    0.04214568653672579    0.057909952449479156    0.08777083880677716    0.13943919586777573    
  0.21579876460209282    0.2988743653014801    0.3508402464375511    0.3627528164932351    0.36274222752123453    
  0.3508511092512087    0.2988988131673865    0.2157881424260317    0.1394413459592127    0.08777078541240724    
  0.05791263847531363    0.04214204465744787    0.034371521926478535    0.04716829929688395    0.042145148493478835    
  0.04037752082295453    0.04001802701509383    0.04037762640533669    0.04214569880325737    0.04716533060729892    
  0.05905166540015525    0.0838595717451392    0.13042130611916392    0.20632859540222578    0.29889701002658353    
  0.35646233294977914    0.3500291483030217    0.3339471389264878    0.35002378025369246    0.35646566024699256    
  0.2988988756119419    0.2063314472727842    0.13042138310245155    0.08385626940370768    0.05905085623406066    
  0.04716829929688395    0.06518713783137811    0.05904832020959451    0.057910301821086176    0.058280507777601485    
  0.05828011042522681    0.05790995409868165    0.059051675841552506    0.06518703877495212    0.08198462538947118    
  0.11767007790300255    0.18222887104932395    0.2745090451859746    0.3508527388611231    0.3500218818264372    
  0.3081183639998655    0.30812766587304036    0.3500237413224848    0.35085110785980556    0.2745051245088281    
  0.1822335785692495    0.11766799280162538    0.08198924214013752    0.06518713783137811    0.08796309579536421    
  0.0819819251776982    0.08386616496308658    0.08776958863589246    0.08963828523283841    0.0877708399978846    
  0.08385958197547441    0.0819846245676167    0.08796591335609213    0.10894752127482066    0.15412273047646674    
  0.23049422144786427    0.3203679874948393    0.36271740139924524    0.3339721412569969    0.30811834558558077    
  0.33394711427805646    0.3627422498356216    0.3203695034717092    0.23049240811929916    0.15412287120018967    
  0.10894713080253651    0.08796309579536421    0.11208856604194278    0.10895594270051022    0.11766948341822837    
  0.13041548912645354    0.13943541920164995    0.13943919507542496    0.1304213175110053    0.11767007441577514    
  0.10894752240055285    0.1120938361081292    0.1342526460079267    0.1831229411164026    0.25922732875777654    
  0.33490768096192974    0.36271732493075887    0.35002188908996434    0.35002913631113386    0.3627528427518054    
  0.3348888411697579    0.25922670744786025    0.18311970548501313    0.13425471803722794    0.11208856604194278    
  0.13114832966699286    0.1342568928177077    0.15411019866702144    0.18222918341199243    0.20634179074547643    
  0.21579874775876992    0.2063286080873107    0.1822288937228809    0.1541227412895832    0.1342526548019313    
  0.13114819785998946    0.14991819140053528    0.19425027007399867    0.2592273194217273    0.3203679365254458    
  0.3508526943768236    0.3564622209866996    0.35084023425032407    0.32034809709830886    0.2592334098250528    
  0.19425001623502533    0.14991968192516933    0.13114832966699286    0.13847322715644836    0.14991698459690647    
  0.18311873057061662    0.2305066138087801    0.2745125890024491    0.2988743562866245    0.2988969692365978    
  0.2745090110286982    0.2304941816359105    0.1831229529049276    0.14991817160992088    0.13847640555973006    
  0.14991817612073371    0.18312296917676937    0.2304941499675621    0.2745089587023979    0.298896940836559    
  0.29887441291713546    0.27451264783255414    0.23050661963043545    0.18311875262639896    0.14991697353730912    
  0.13847322715644836    0.13114832729059597    0.14991968749586837    0.19425001343233242    0.259233412022703    
  0.3203480668189851    0.35084023000826947    0.356462272700677    0.35085269742980785    0.32036795166881754    
  0.25922732835367057    0.19425022172779227    0.1499181558318698    0.13114822562641    0.13425267189638015    
  0.15412273146780184    0.18222888970189247    0.20632856896942106    0.21579875282504327    0.2063418292777959    
  0.18222921100835543    0.15411018910404245    0.1342568693318433    0.13114832729059597    0.11208855901127782    
  0.13425474018340228    0.1831196947506424    0.25922674416649844    0.3348888351574211    0.3627527844073304    
  0.3500292054056573    0.3500218612658851    0.3627173959397088    0.33490769496309936    0.25922730436839764    
  0.18312293213473302    0.13425267304685184    0.11209383667439218    0.10894749513916835    0.11767007353439021    
  0.13042127886528807    0.13943919987565517    0.13943545485605727    0.13041547864518166    0.1176695096244407    
  0.10895592372111874    0.11208855901127782    0.08796309190360771    0.10894714771292405    0.15412284970394732    
  0.23049241122983063    0.32036949331117415    0.3627422228807419    0.33394718064296414    0.3081183354624659    
  0.3339721202523576    0.3627173841620101    0.32036798831965174    0.23049416454732427    0.15412274284922703    
  0.10894749978857973    0.08796590304618682    0.08198461472086312    0.0838595672719793    0.08777084832402132    
  0.08963827944943821    0.08776959698439177    0.08386616163436904    0.08198191285373085    0.08796309190360771    
  0.06518713816668854    0.08198924563245706    0.11766796676210929    0.18223360398920674    0.274505122478785    
  0.3508511581505995    0.3500237881410036    0.3081276806955968    0.30811835013095534    0.3500218945675379    
  0.3508527234994873    0.27450901998786664    0.18222890142566614    0.11767007454849066    0.08198463020545649    
  0.0651870427167904    0.05905165926994831    0.057909954193956746    0.058280121900984576    0.05828051499037812    
  0.057910300412466864    0.059048308143970156    0.06518713816668854    0.04716829683197562    0.05905085956229109    
  0.08385626291309099    0.13042138887356533    0.20633144954567215    0.2988988236767287    0.3564656661409621    
  0.3500237700991979    0.33394713261335296    0.35002912401094305    0.3564622765814623    0.2988970145512888    
  0.2063286155202058    0.130421305780061    0.08385957217709732    0.05905167138179801    0.047165324676194026    
  0.04214570188218844    0.040377628157227986    0.040018022486173345    0.040377524783008344    0.042145142364334254    
  0.04716829683197562    0.03437152120636034    0.042142057059106154    0.05791263469561456    0.08777077990488483    
  0.13944133623450333    0.21578810045083696    0.2988988421594035    0.3508510809222812    0.3627422107314961    
  0.36275280323060133    0.3508402303275979    0.2988743708831819    0.21579878404275654    0.1394391932494479    
  0.0877708382696629    0.05790994323329518    0.04214569179248354    0.03437030850764451    0.03078887067017964    
  0.029439667897442238    0.029440059746035918    0.030788452709743924    0.03437152120636034    0.025872871216031365    
  0.030788655313335498    0.04037924912699755    0.05827992537083242    0.08963586140981868    0.1394413320633206    
  0.20633141748946218    0.2745051185746402    0.32036949319419217    0.33488879107058594    0.3203481003023911    
  0.2745126394627911    0.20634185554469728    0.13943541759597522    0.08963828345141106    0.05828011800296243    
  0.0403776268864982    0.030788873595005622    0.025872877875042853    0.02357374427060614    0.022913079500684913    
  0.023573662626170395    0.025872871216031365    0.020501586830896618    0.023573557711508732    0.02944003901160526    
  0.040016111084105105    0.05827992010032736    0.08777078628329442    0.13042137786584765    0.18223359351215362    
  0.23049240911900792    0.2592267456874157    0.259233377479985    0.23050667800135968    0.18222922088243937    
  0.1304154966575243    0.08776959342849235    0.05828050439817329    0.04001801427807849    0.029439666090662366    
  0.023573745842484332    0.02050147103070068    0.01919876276608857    0.0191986743809866    0.020501586830896618    
  0.017322121612166192    0.01919882735910105    0.022912901383892598    0.029440039573243156    0.04037925050048915    
  0.05791263778927167    0.08385626188531786    0.11766798480702685    0.15412286419946783    0.1831197101231903    
  0.19425001767511665    0.18311875783000728    0.15411022437242594    0.11766948931436022    0.08386615187338857    
  0.05791029399206009    0.04037751284491763    0.029440066578720753    0.02291308093855128    0.01919875790784878    
  0.017322092407486306    0.01675397313849512    0.017322121612166192    0.01566059778262432    0.016753838217635084    
  0.019198823799721626    0.023573551523113474    0.030788646123208467    0.04214205558250026    0.05905085496763946    
  0.08198923943854634    0.10894712914439914    0.13425473734739185    0.1499196833559878    0.14991698892213295    
  0.13425689257125828    0.10895592494438755    0.08198191309881271    0.059048304160544914    0.04214513461715131    
  0.030788464326527855    0.02357366440073058    0.01919867536233879    0.016753966932205582    0.015660574708280625    
  0.01566059778262432    0.015139567472054227    0.015660605524772588    0.017322129162814566    0.0205015873636455    
  0.02587286246233953    0.034371533750753996    0.04716829443637561    0.06518713814054747    0.08796310350827194    
  0.11208857733411783    0.1311483159336566    0.13847324251759816    0.13114832659669368    0.11208859043950961    
  0.08796308600222327    0.06518712751805122    0.04716830084521289    0.034371534726907196    0.02587287361837264    
  0.020501585666893637    0.017322122358578163    0.015660598035789917    0.015139567472054227    0.014926090116228157    
  0.015437643756186684    0.017073127754768776    0.020192654172152665    0.02543977629217261    0.0337210226621799    
  0.0461497145834007    0.06360466939232239    0.08559275653494769    0.10877714118088012    0.12705486306868932    
  0.13407521081276672    0.12706187541424765    0.10877837796187109    0.08557458404488272    0.06360839020578712    
  0.04615870991022326    0.033718849031718054    0.02543918404377658    0.020192658550716558    0.017073156166117737    
  0.015437686254883835    0.014926090116228157    0.015437685104220885    0.015438055702664991    0.01646539487015872    
  0.01873870221802647    0.022755184474965967    0.029265834020667823    0.0393069753973388    0.053918044027035546    
  0.07338490368125165    0.09599446995086797    0.11697664473225462    0.12988341313958499    0.1298838296964888    
  0.11697087620746197    0.09599199991379848    0.07340040178673576    0.05391644813277885    0.03929868261919229    
  0.029267493221300764    0.022755599999616367    0.018738621609360965    0.016465525284520048    0.015437685104220885    
  0.017073156593117738    0.016561887825264462    0.01707289452911415    0.01873891435972551    0.021985070272358295    
  0.027554818050089216    0.036572919144153365    0.05056973396168761    0.07067847498874709    0.09620833780221329    
  0.12329926839827465    0.14471678884887595    0.1529322292491871    0.14471638341253992    0.12330530531103633    
  0.09621074297105006    0.0706632823599272    0.050571089525908004    0.036580820872037796    0.02755317714240754    
  0.02198506040675493    0.018738627066152768    0.017073156593117738    0.020192658227978645    0.019092867582664756    
  0.019093047370551022    0.020192511476869627    0.022755365724043315    0.027552120340243638    0.03591259332754425    
  0.04979042121625763    0.07142684844101846    0.1018267366849207    0.1382231869801994    0.1724779464590591    
  0.19344538885159487    0.19344596837764788    0.17247706884751027    0.13822055819669377    0.10182441555391827    
  0.07144030545010877    0.049789456308990995    0.03590510860223484    0.02755318521307488    0.022755595735653087    
  0.020192658227978645    0.025439183562791234    0.02364220806510675    0.023125139565847    0.02364229525024148    
  0.025439595170963895    0.02926852501948791    0.03657292091913451    0.04978997543797401    0.07215579327761248    
  0.10659487152912207    0.15261922288847612    0.20208519177991022    0.240121389843823    0.2541576108533412    
  0.240122639286196    0.20208290911010265    0.15262129193271903    0.10659879634521773    0.07214352542421616    
  0.04978944365316002    0.03658079712401856    0.029267486867951373    0.025439183562791234    0.03371883987692274    
  0.031215257085589965    0.030323982831997706    0.030324188194667576    0.031214253358206698    0.033718081045866224    
  0.03930708517707932    0.05057020124497705    0.07142738819862927    0.10660332959087782    0.15857213194005465    
  0.2209087399092937    0.2753976010611148    0.30480500200162547    0.30480458346607203    0.2754037375498625    
  0.2209128225478234    0.1585695698969374    0.1065988067689177    0.07144029677897294    0.05057107381472521    
  0.039298672804943764    0.03371883987692274    0.046158715388506674    0.04329803838598447    0.04265359538018993    
  0.04264773327771005    0.042655001836104815    0.043298510535225744    0.04614940346966553    0.05391747206499253    
  0.07067715351691188    0.10181991805313745    0.15261835982359878    0.2209130705849016    0.2879427605277232    
  0.32903363670457475    0.34057713305125614    0.3290326265701319    0.28794633245608303    0.2209128297968042    
  0.1526213245770105    0.10182442901239405    0.07066328161408503    0.05391645372697729    0.046158715388506674    
  0.0636083924302226    0.06151593898860509    0.0628328015976948    0.06444790234233604    0.06444568046989828    
  0.06283204776637057    0.061527974191815604    0.06360667431892914    0.07338567531783094    0.09621578048162775    
  0.13822121630743056    0.2020839740129414    0.2754023627974136    0.3290334473528858    0.34886920340277094    
  0.3488642991595269    0.32903256726186775    0.27540373655663575    0.20208289462592754    0.1382205672402796    
  0.09621073549349457    0.07340040388533851    0.0636083924302226    0.08557459040044506    0.0864811568017698    
  0.09328750430816413    0.10047118167702516    0.10352291496673678    0.10047321788712443    0.0932698317363333    
  0.08648457674730745    0.08559069294712368    0.0959870730638655    0.12330308134643897    0.1724771483030166    
  0.24012218013889175    0.30479935718153606    0.3405751952873228    0.3488691990952571    0.34057709179857    
  0.30480463603571223    0.2401226596357844    0.1724770566691876    0.12330528025823763    0.09599199701350351    
  0.08557459040044506    0.10877837531813746    0.11603292603811678    0.13355497387251233    0.15342064653068563    
  0.16653812208499366    0.16654249030148072    0.15344437055553165    0.13355281219861054    0.1160113728401311    
  0.10878527262760278    0.11697499231099216    0.1447159578209422    0.19344656541388192    0.2541598550459241    
  0.30479930236543745    0.329033466383945    0.32903361969269795    0.304805066535414    0.25415764372056066    
  0.1934459608717133    0.14471637080216618    0.1169708799464888    0.10877837531813746    0.12706185468474618    
  0.14387539782858844    0.17723245775812527    0.21746386432430911    0.24931879768748685    0.26113013794911477    
  0.24927633070510882    0.2174644410244321    0.1772641030322608    0.14386833324418483    0.12705621030352865    
  0.1298841485423266    0.152932546523023    0.193446558160415    0.24012216006144554    0.2754023159987732    
  0.2879426620075609    0.2753976295415906    0.24012137401569575    0.1934453870658347    0.15293219546273548    
  0.12988381630700419    0.12706185468474618    0.13407521472193498    0.1611412644204344    0.21190837247783148    
  0.27484497487122966    0.3237785124153001    0.34400266363570564    0.34405839332487126    0.32378080129428155    
  0.2748054015258743    0.2119171782402119    0.1611494571681223    0.13407626269991843    0.12988415488627264    
  0.1447159943153193    0.17247708835643602    0.20208392517281906    0.2209130249041644    0.22090876264253373    
  0.20208521219389197    0.1724779399242984    0.1447167575539114    0.12988340042916716    0.13407521472193498    
  0.12705486734006266    0.16114963230212193    0.2251341750983467    0.30683298690107763    0.3594394581345501    
  0.3547605588979775    0.34031092829504767    0.3547811660301732    0.35948804935790707    0.3068255702833504    
  0.22512489381567227    0.16114945373530523    0.12705622240382194    0.11697500666262427    0.12330309549692973    
  0.13822122952752564    0.15261833819778242    0.1585721096476926    0.15261920840267848    0.13822315383061273    
  0.12329925683878723    0.11697661249328711    0.12705486734006266    0.10877712204677065    0.1438776807136701    
  0.21190667118739168    0.306821505326371    0.365495620863066    0.32123921813885875    0.24934805509959496    
  0.24932577994631955    0.3211677406598254    0.36553645132895435    0.30682554743671586    0.2119171700117696    
  0.14386831368758055    0.10878526510080251    0.09598705490822355    0.0962157701330493    0.1018199160298198    
  0.1066033185550652    0.10659486135960182    0.10182671680767912    0.0962083323062183    0.09599447409732002    
  0.10877712204677065    0.08559273736485565    0.11600755530580353    0.17726621599480075    0.2747976194269687    
  0.35950017940596307    0.32120826635702737    0.2026634087944949    0.15127014515952616    0.2027198121441738    
  0.3211677480387048    0.3594880838663346    0.27480545278322477    0.17726414913446817    0.11601134648599143    
  0.08559069449792936    0.07338566891979609    0.0706771380716544    0.0714273899396372    0.0721557897995105    
  0.07142685182334398    0.07067846857926928    0.07338491171090282    0.08559273736485565    0.0636046682273276    
  0.08648660523270119    0.1335498777456231    0.2174747452623106    0.3237693194845767    0.35476915653244095    
  0.2493451119842029    0.15129141773658966    0.15127014897164973    0.24932579264041627    0.3547811892525386    
  0.32378083052995665    0.2174644364988913    0.13355280037561085    0.08648459251938753    0.06360666830376485    
  0.05391746782733817    0.050570206274831504    0.04978996837119317    0.04979042565174337    0.050569735599368545    
  0.05391804094320798    0.0636046682273276    0.04614970977179708    0.06152777439214083    0.09327059864508068    
  0.15344287901344622    0.24928146021750971    0.34406960368464895    0.34029862982560494    0.24934510189921189    
  0.20266334510810968    0.24934801596079884    0.34031097251028564    0.34405845564444953    0.24927636615904136    
  0.15344437028896754    0.09326982107434799    0.06152797284037179    0.04614939888848863    0.03930708856179837    
  0.036572924153619124    0.03591258764288152    0.03657291965826617    0.03930697110909938    0.04614970977179708    
  0.033721020004031106    0.043295115201741105    0.0628370789405776    0.10046481751387075    0.16655086676801698    
  0.26110036516820123    0.34406957569925367    0.35476913850532016    0.3212082542374951    0.3212392451636735    
  0.3547605294511781    0.3440026792571358    0.26113016155721935    0.1665424770114749    0.10047320812782934    
  0.06283203431473428    0.043298503276295114    0.033718084082709134    0.029268523304491662    0.027552123228924228    
  0.027554826502762572    0.029265827695528435    0.033721020004031106    0.025439784743313917    0.031214182801862566    
  0.0426542325099264    0.0644462521880571    0.10352485974524468    0.1665508838010572    0.2492814470061181    
  0.3237692996029569    0.3595001794513651    0.36549558951417516    0.35943949252182117    0.3237785868909917    
  0.24931885505086135    0.1665381361724095    0.10352290548471485    0.06444567819890964    0.042654994435104836    
  0.03121426405868925    0.025439600626571482    0.022755367963267614    0.021985073789873008    0.022755185409064443    
  0.025439784743313917    0.020192652611076493    0.023642235791456752    0.030324178138351882    0.04264795061794166    
  0.06444625675747463    0.10046482660971683    0.1534428813438188    0.21747474613760298    0.27479763827446424    
  0.3068214826537237    0.30683298645952084    0.2748449837863623    0.21746388887451693    0.15342063640021839    
  0.10047117937604683    0.06444788712375947    0.04264773239118619    0.030324191310521498    0.023642294597946537    
  0.02019251195994344    0.01873891771615944    0.018738702091587536    0.020192652611076493    0.017073121015841478    
  0.019092777391034217    0.0231251702668409    0.030324180796221137    0.04265423148444592    0.06283708068238898    
  0.0932705957662569    0.1335498947311139    0.17726622976983408    0.21190668114227498    0.22513420343447904    
  0.21190838990396357    0.17723247246723114    0.13355495177067517    0.09328750305073567    0.06283279506107316    
  0.04265358581364434    0.030323987773102197    0.023125141487663974    0.019093042751365998    0.01707289375380206    
  0.016465399372143523    0.017073121015841478    0.015437637371906026    0.016562163548897772    0.019092774581095973    
  0.023642224359310026    0.031214175344905365    0.043295107559583185    0.061527768682849496    0.08648657981465913    
  0.11600752045852482    0.14387766962648824    0.1611496306805537    0.16114124087127452    0.14387541359474043    
  0.11603291396979074    0.08648115217680132    0.06151592716296157    0.04329801978037771    0.03121526020371653    
  0.02364220490747927    0.019092861464800267    0.016561881585339496    0.015438049953726768    0.015437637371906026    
  0.014926090116228157    0.015437643756186684    0.017073127754768776    0.020192654172152665    0.02543977629217261    
  0.0337210226621799    0.0461497145834007    0.06360466939232239    0.08559275653494769    0.10877714118088012    
  0.12705486306868932    0.13407521081276672    0.12706187541424765    0.10877837796187109    0.08557458404488272    
  0.06360839020578712    0.04615870991022326    0.033718849031718054    0.02543918404377658    0.020192658550716558    
  0.017073156166117737    0.015437686254883835    0.014926090116228157    0.014321033056014365    0.014808439263874902    
  0.016364641536330063    0.01931386674507033    0.02421149945501795    0.031865071291551424    0.043245818948809744    
  0.05909127228263872    0.07884935889244667    0.09948763071890074    0.1156663897216499    0.12186989395592925    
  0.11567803604355398    0.09949117667642039    0.07882590228259966    0.05909398120496441    0.0432592845393117    
  0.03186201424385895    0.024210437918387485    0.019313750509143846    0.01636481254324662    0.014808410730518062    
  0.014321033056014365    0.014808413066663093    0.014808035097338594    0.015745058630349595    0.017793188008790473    
  0.021337336451669974    0.026948945962711444    0.035392361798743804    0.04732250997824935    0.06281556816869228    
  0.08046173976063345    0.09659997294762908    0.10645192418187788    0.10645246895352224    0.09659081126485712    
  0.08045927783047922    0.06283424384820803    0.047321585809189146    0.035380288697886265    0.026951662686009348    
  0.021337871891282424    0.01779364267592389    0.015744500067215613    0.014808413066663093    0.016364813534578554    
  0.015920236184363914    0.016364666598588585    0.017793641216550624    0.020510752836126196    0.025028163438324594    
  0.03206044616862811    0.042538797119042154    0.057008829782021965    0.07477812342188749    0.09317543259438615    
  0.1074925563447031    0.11294564138988236    0.10749172888726073    0.09318310479110255    0.07478130522571827    
  0.05699090856544957    0.04253976674693777    0.032071249503264315    0.02502632294502658    0.020509871769276766    
  0.01779364709997273    0.016364813534578554    0.019313749244436823    0.018423974510743905    0.01842444586903579    
  0.019313431143367674    0.021337305554085903    0.025024485646476365    0.031195869712734105    0.04095174151868059    
  0.05549838719396062    0.07515672689091929    0.09797629481869165    0.1190607198500785    0.13190708343994664    
  0.13190713803674728    0.11906190105087629    0.09796941290841812    0.07515448419309459    0.05551450061740791    
  0.040951672249642516    0.031184837822698777    0.0250263304314716    0.021337866320596005    0.019313749244436823    
  0.02421043759856807    0.022917533832079704    0.022540071822696055    0.022917297239477448    0.024211797073458576    
  0.026952767573896995    0.03206042805865066    0.040952005346915975    0.055375974621364704    0.076683767287326    
  0.10429651692138768    0.13378481676741336    0.15697920508136595    0.16581227605962454    0.15698023960512744    
  0.1337828336761568    0.10430235283533394    0.07668674214623833    0.05536038168730059    0.04095167343800513    
  0.03207123705681044    0.0269516620967315    0.02421043759856807    0.031862002112322985    0.03039523141674767    
  0.02993780900044635    0.029938080719630812    0.03039357010542212    0.03186071052589338    0.03539227313058327    
  0.04253867008223886    0.05549894901592727    0.07669008679832592    0.10712931716315989    0.14387010678359483    
  0.17835870243402313    0.1993700774202214    0.19937046140550727    0.17835876099603248    0.1438736391735065    
  0.10712353043742327    0.07668673759370365    0.05551450093262036    0.04253975289452032    0.03538029004388821    
  0.031862002112322985    0.04325929082372431    0.042350188360480844    0.042710745112400764    0.04301420485718069    
  0.04271314758388568    0.042351277831581643    0.04324572785416836    0.04732285980776349    0.057007540931406385    
  0.07515078015956482    0.10429658160344901    0.14387477200383206    0.18677841473039986    0.22007115104805688    
  0.2324552469666999    0.2200708913260547    0.18677969616753318    0.14387367374224144    0.10430237420654145    
  0.0751544940113886    0.05699092081404002    0.047321587698466505    0.04325929082372431    0.05909399050288131    
  0.06043256464051732    0.06377820215949537    0.06638680937471642    0.06638282384018383    0.06377630264296645    
  0.06045029047408793    0.059091834181635695    0.06281668736723943    0.07478449627739465    0.09797517030561437    
  0.13378164105232465    0.17835983598217406    0.22006956567502203    0.24464808313808994    0.24464717373321598    