#     DFTpy    
  CRYSTAL 
    
  PRIMVEC    
  3.780724137931034    0.0    0.0    
  0.0    3.780724137931034    0.0    
  0.0    0.0    3.780724137931034    
  PRIMCOORD    
  4    1    
  Si    0.0    0.0    0.0    
  Si    0.0    1.890362068965517    1.890362068965517    
  Si    1.890362068965517    0.0    1.890362068965517    
  Si    1.890362068965517    1.890362068965517    0.0    
  BEGIN_BLOCK_DATAGRID_3D    
  3d_datagrid_density    
  BEGIN_DATAGRID_3D#0    
  17    17    17    
  0.0    0.0    0.0    
  3.780724137931034    0.0    0.0    
  0.0    3.780724137931034    0.0    
  0.0    0.0    3.780724137931034    
  0.05590692626875582    0.10189504060151941    0.2617806032022069    0.3940185091301156    0.34980171464749443    
  0.2539089010186512    0.18908006003677105    0.15698033207697215    0.14750250997233175    0.15698032914240412    
  0.18908005155076632    0.25390893919813284    0.34980171188730097    0.3940184436208255    0.2617806064634624    
  0.1018950424787435    0.05590692626875582    0.10189502610292817    0.15556271679782702    0.3070106912789237    
  0.40070536980772214    0.3440254909784607    0.254154476046189    0.19494447123974545    0.16566729647612688    
  0.1569803174338818    0.16566729008278616    0.19494443384281035    0.25415452029982405    0.34402548694513696    
  0.4007053008124467    0.3070107513186283    0.1555627162964579    0.10189502610292817    0.2617806188643685    
  0.3070107707521689    0.39053646993848123    0.3980664740875972    0.328589356847125    0.2583451660254476    
  0.21535545464494216    0.19494445434630575    0.1890800895593247    0.19494448616223153    0.2153554381652886    
  0.25834515883004794    0.3285893678439429    0.3980664711131101    0.3905364912502482    0.3070107194244198    
  0.2617806188643685    0.3940184801329933    0.40070537981813625    0.3980664582906831    0.3610838238104122    
  0.3104248025905258    0.27459152591102126    0.25834517315327893    0.2541544920714224    0.25390893371175094    
  0.25415452147193696    0.258345137594123    0.2745915712663018    0.3104248085652789    0.3610837693573794    
  0.3980664874635052    0.4007053289727525    0.3940184801329933    0.3498017544936361    0.34402554449938616    
  0.328589368333732    0.31042481497576063    0.3019681739658124    0.31042479223612585    0.32858936849566545    
  0.344025541310455    0.34980174206450837    0.3440255310209917    0.32858936761526136    0.3104248205732937    
  0.30196816840143587    0.31042478921309546    0.3285893685500378    0.34402554756228704    0.3498017544936361    
  0.2539089284214757    0.25415452379246617    0.2583451298197963    0.27459158514379717    0.31042481885367484    
  0.3610838270340005    0.3980664945659228    0.4007053816387315    0.39401847597314565    0.4007053685945426    
  0.3980664503465951    0.36108384666256205    0.310424813522515    0.27459155998814244    0.2583451699803162    
  0.25415453262149335    0.2539089284214757    0.18908006913984085    0.19494444667792607    0.21535549379811927    
  0.25834515477034564    0.3285893465871319    0.398066470662731    0.39053656293860983    0.30701074218052316    
  0.2617806111322224    0.3070107080732382    0.39053653608800704    0.39806647876516205    0.32858935451272003    
  0.2583451619860762    0.21535550172136805    0.19494447468232703    0.18908006913984085    0.15698029708573985    
  0.16566728970653408    0.19494444095473631    0.2541545500042917    0.34402552763781596    0.40070534455709167    
  0.3070106987516172    0.15556271479806422    0.10189501382637442    0.1555627080997638    0.3070107054491452    
  0.4007053949855284    0.34402552971112454    0.2541545014505678    0.19494443387457666    0.1656672920236091    
  0.15698029708573985    0.14750250997233175    0.15698032914240412    0.18908005155076632    0.25390893919813284    
  0.34980171188730097    0.3940184436208255    0.2617806064634624    0.1018950424787435    0.05590692626875582    
  0.10189504060151941    0.2617806032022069    0.3940185091301156    0.34980171464749443    0.2539089010186512    
  0.18908006003677105    0.15698033207697215    0.14750250997233175    0.1569803174338818    0.16566729008278616    
  0.19494443384281035    0.25415452029982405    0.34402548694513696    0.4007053008124467    0.3070107513186283    
  0.1555627162964579    0.10189502610292817    0.15556271679782702    0.3070106912789237    0.40070536980772214    
  0.3440254909784607    0.254154476046189    0.19494447123974545    0.16566729647612688    0.1569803174338818    
  0.1890800895593247    0.19494448616223153    0.2153554381652886    0.25834515883004794    0.3285893678439429    
  0.3980664711131101    0.3905364912502482    0.3070107194244198    0.2617806188643685    0.3070107707521689    
  0.39053646993848123    0.3980664740875972    0.328589356847125    0.2583451660254476    0.21535545464494216    
  0.19494445434630575    0.1890800895593247    0.25390893371175094    0.25415452147193696    0.258345137594123    
  0.2745915712663018    0.3104248085652789    0.3610837693573794    0.3980664874635052    0.4007053289727525    
  0.3940184801329933    0.40070537981813625    0.3980664582906831    0.3610838238104122    0.3104248025905258    
  0.27459152591102126    0.25834517315327893    0.2541544920714224    0.25390893371175094    0.34980174206450837    
  0.3440255310209917    0.32858936761526136    0.3104248205732937    0.30196816840143587    0.31042478921309546    
  0.3285893685500378    0.34402554756228704    0.3498017544936361    0.34402554449938616    0.328589368333732    
  0.31042481497576063    0.3019681739658124    0.31042479223612585    0.32858936849566545    0.344025541310455    
  0.34980174206450837    0.39401847597314565    0.4007053685945426    0.3980664503465951    0.36108384666256205    
  0.310424813522515    0.27459155998814244    0.2583451699803162    0.25415453262149335    0.2539089284214757    
  0.25415452379246617    0.2583451298197963    0.27459158514379717    0.31042481885367484    0.3610838270340005    
  0.3980664945659228    0.4007053816387315    0.39401847597314565    0.2617806111322224    0.3070107080732382    
  0.39053653608800704    0.39806647876516205    0.32858935451272003    0.2583451619860762    0.21535550172136805    
  0.19494447468232703    0.18908006913984085    0.19494444667792607    0.21535549379811927    0.25834515477034564    
  0.3285893465871319    0.398066470662731    0.39053656293860983    0.30701074218052316    0.2617806111322224    
  0.10189501382637442    0.1555627080997638    0.3070107054491452    0.4007053949855284    0.34402552971112454    
  0.2541545014505678    0.19494443387457666    0.1656672920236091    0.15698029708573985    0.16566728970653408    
  0.19494444095473631    0.2541545500042917    0.34402552763781596    0.40070534455709167    0.3070106987516172    
  0.15556271479806422    0.10189501382637442    0.05590692626875582    0.10189504060151941    0.2617806032022069    
  0.3940185091301156    0.34980171464749443    0.2539089010186512    0.18908006003677105    0.15698033207697215    
  0.14750250997233175    0.15698032914240412    0.18908005155076632    0.25390893919813284    0.34980171188730097    
  0.3940184436208255    0.2617806064634624    0.1018950424787435    0.05590692626875582    0.10189503932417997    
  0.15556272486739692    0.3070107126654691    0.4007053523666032    0.34402554436028826    0.25415449835825366    
  0.19494446664096945    0.1656673168450673    0.1569803382382057    0.16566730560030074    0.19494445085172632    
  0.25415450961362107    0.34402554691073    0.4007053438295521    0.30701073199651485    0.15556274111385432    
  0.10189503932417997    0.1555627284883026    0.2109979466982829    0.3437061184402443    0.40219338622218564    
  0.33720534966058335    0.25355410309293935    0.19982798526824402    0.1734643540671909    0.16566731641379676    
  0.17346433721902987    0.19982797039461658    0.2535541936210041    0.3372053475884023    0.40219327155402995    
  0.3437061465344357    0.21099796154089015    0.1555627284883026    0.3070107238437743    0.34370617414231114    
  0.40196987215227614    0.3897633870144731    0.3198426301049861    0.2555575135750426    0.21737620507794242    
  0.19982799698079184    0.1949444669189886    0.19982800357460018    0.21737614670938982    0.25555753131523673    
  0.3198426315032182    0.38976333389064677    0.4019699211679893    0.3437061555429473    0.3070107238437743    
  0.40070533851006135    0.402193336912838    0.38976336526817623    0.34887544912233015    0.3008024367306901    
  0.268757113940734    0.25555750970028407    0.2535541605615872    0.2541545051114392    0.2535541505981969    
  0.2555575072745414    0.26875719850159857    0.30080245026316177    0.34887535546668696    0.3897633514857406    
  0.4021933346512827    0.40070533851006135    0.3440255626264264    0.33720533914615725    0.3198426153908396    
  0.3008024470997897    0.29233921778981536    0.30080249037545526    0.31984263630773746    0.3372053532664065    
  0.3440255646041163    0.33720533033944644    0.3198426144314623    0.3008024465620939    0.29233922051255246    
  0.30080249036362605    0.31984263693674975    0.3372053594526003    0.3440255626264264    0.2541544919704433    
  0.2535541624251174    0.2555574842723291    0.26875717425685614    0.30080245458606625    0.34887540565421676    
  0.3897633221155547    0.40219331027265154    0.40070532055135305    0.40219336127141003    0.38976332759176224    
  0.34887543332555637    0.3008024487575709    0.2687571621306276    0.25555748179491533    0.253554122451208    
  0.2541544919704433    0.19494443650176654    0.19982801261380637    0.2173761654871901    0.255557529216189    
  0.3198425983198411    0.3897633518555353    0.40196995590753315    0.34370617549344795    0.30701070242769507    
  0.3437061492826482    0.4019698938040367    0.3897633924770787    0.31984259174740043    0.25555751460192333    
  0.21737621009135952    0.19982801444840184    0.19494443650176654    0.16566728703834216    0.17346434196981306    
  0.19982800698777972    0.25355416092958016    0.3372053279333747    0.40219330111842566    0.34370615965832413    
  0.21099792403795015    0.15556272170333707    0.21099794363073798    0.3437061556654735    0.402193338123598    
  0.3372053209968213    0.25355411547539064    0.19982800865053532    0.17346432410583304    0.16566728703834216    
  0.1569803382382057    0.16566730560030074    0.19494445085172632    0.25415450961362107    0.34402554691073    
  0.4007053438295521    0.30701073199651485    0.15556274111385432    0.10189503932417997    0.15556272486739692    
  0.3070107126654691    0.4007053523666032    0.34402554436028826    0.25415449835825366    0.19494446664096945    
  0.1656673168450673    0.1569803382382057    0.16566731641379676    0.17346433721902987    0.19982797039461658    
  0.2535541936210041    0.3372053475884023    0.40219327155402995    0.3437061465344357    0.21099796154089015    
  0.1555627284883026    0.2109979466982829    0.3437061184402443    0.40219338622218564    0.33720534966058335    
  0.25355410309293935    0.19982798526824402    0.1734643540671909    0.16566731641379676    0.1949444669189886    
  0.19982800357460018    0.21737614670938982    0.25555753131523673    0.3198426315032182    0.38976333389064677    
  0.4019699211679893    0.3437061555429473    0.3070107238437743    0.34370617414231114    0.40196987215227614    
  0.3897633870144731    0.3198426301049861    0.2555575135750426    0.21737620507794242    0.19982799698079184    
  0.1949444669189886    0.2541545051114392    0.2535541505981969    0.2555575072745414    0.26875719850159857    
  0.30080245026316177    0.34887535546668696    0.3897633514857406    0.4021933346512827    0.40070533851006135    
  0.402193336912838    0.38976336526817623    0.34887544912233015    0.3008024367306901    0.268757113940734    
  0.25555750970028407    0.2535541605615872    0.2541545051114392    0.3440255646041163    0.33720533033944644    
  0.3198426144314623    0.3008024465620939    0.29233922051255246    0.30080249036362605    0.31984263693674975    
  0.3372053594526003    0.3440255626264264    0.33720533914615725    0.3198426153908396    0.3008024470997897    
  0.29233921778981536    0.30080249037545526    0.31984263630773746    0.3372053532664065    0.3440255646041163    
  0.40070532055135305    0.40219336127141003    0.38976332759176224    0.34887543332555637    0.3008024487575709    
  0.2687571621306276    0.25555748179491533    0.253554122451208    0.2541544919704433    0.2535541624251174    
  0.2555574842723291    0.26875717425685614    0.30080245458606625    0.34887540565421676    0.3897633221155547    
  0.40219331027265154    0.40070532055135305    0.30701070242769507    0.3437061492826482    0.4019698938040367    
  0.3897633924770787    0.31984259174740043    0.25555751460192333    0.21737621009135952    0.19982801444840184    
  0.19494443650176654    0.19982801261380637    0.2173761654871901    0.255557529216189    0.3198425983198411    
  0.3897633518555353    0.40196995590753315    0.34370617549344795    0.30701070242769507    0.15556272170333707    
  0.21099794363073798    0.3437061556654735    0.402193338123598    0.3372053209968213    0.25355411547539064    
  0.19982800865053532    0.17346432410583304    0.16566728703834216    0.17346434196981306    0.19982800698777972    
  0.25355416092958016    0.3372053279333747    0.40219330111842566    0.34370615965832413    0.21099792403795015    
  0.15556272170333707    0.10189503932417997    0.15556272486739692    0.3070107126654691    0.4007053523666032    
  0.34402554436028826    0.25415449835825366    0.19494446664096945    0.1656673168450673    0.1569803382382057    
  0.16566730560030074    0.19494445085172632    0.25415450961362107    0.34402554691073    0.4007053438295521    
  0.30701073199651485    0.15556274111385432    0.10189503932417997    0.2617806299411667    0.30701072793118855    
  0.3905364964714773    0.3980665014719586    0.328589358739449    0.2583451371568859    0.21535547110337797    
  0.19494447324468053    0.1890800860099563    0.1949444531392293    0.21535545785135202    0.2583451830214305    
  0.328589357161206    0.3980664357588913    0.3905365283354128    0.3070107485766199    0.2617806299411667    
  0.3070106959760135    0.343706144002903    0.4019698525752215    0.3897633901714737    0.31984260032329564    
  0.25555744493333366    0.21737619079484025    0.19982800366039924    0.1949444398445565    0.19982798565372148    
  0.21737612787631172    0.2555575343315184    0.31984259620472755    0.38976326985152576    0.40196994363798844    
  0.34370617289342725    0.3070106959760135    0.3905364954255915    0.401969961540266    0.4040083747902602    
  0.3610864045530078    0.2988425084921446    0.2516491040244866    0.2267342512534844    0.2173761796049581    
  0.2153554760392711    0.21737619825426402    0.2267342349372546    0.2516490927862711    0.29884250410826213    
  0.36108642360484056    0.40400839854538245    0.4019699078636218    0.3905364954255915    0.3980664555346625    
  0.3897633364548064    0.36108640567727424    0.3172471800547136    0.27808892183969824    0.25643321141864717    
  0.2516491156569922    0.25555750174725833    0.25834515137959885    0.2555574842968405    0.25164907887127025    
  0.2564333104039139    0.27808890641715783    0.3172470686038081    0.3610864414602183    0.3897633392165269    
  0.3980664555346625    0.3285893750043904    0.3198425870661369    0.2988425074956039    0.27808896085972096    
  0.26959415423363065    0.27808894794771843    0.29884250190531364    0.3198426605087319    0.3285893677480809    
  0.3198425932752287    0.29884250396475176    0.27808896786827847    0.2695941578548447    0.2780889415877834    
  0.2988424895458247    0.31984265787244365    0.3285893750043904    0.2583451621107617    0.25555754297320094    
  0.251649071873665    0.2564332888649173    0.27808892455859147    0.3172471193352522    0.3610864202621169    
  0.38976334882964064    0.39806649698730096    0.3897633972686859    0.361086394457793    0.3172471754683583    
  0.27808893095488385    0.2564332670987836    0.2516491070780533    0.2555575076743175    0.2583451621107617    
  0.21535549756562786    0.21737617577376217    0.22673428717078892    0.2516491102942436    0.2988424772259766    
  0.3610864228094462    0.40400841868851045    0.40196987501274023    0.39053654733649984    0.4019698922430053    
  0.4040084175077217    0.361086433608686    0.2988424793240698    0.25164910074178565    0.2267342719449802    
  0.21737614711016015    0.21535549756562786    0.19494442674262794    0.19982798807228702    0.21737616611402705    
  0.2555575371083986    0.31984261640092626    0.38976329676308397    0.4019698991908128    0.34370612182200405    
  0.3070106869456774    0.3437061300424515    0.40196988120683436    0.38976337274965694    0.3198426065076581    
  0.25555746647666533    0.21737617129003298    0.19982797507923217    0.19494442674262794    0.1890800860099563    
  0.1949444531392293    0.21535545785135202    0.2583451830214305    0.328589357161206    0.3980664357588913    
  0.3905365283354128    0.3070107485766199    0.2617806299411667    0.30701072793118855    0.3905364964714773    
  0.3980665014719586    0.328589358739449    0.2583451371568859    0.21535547110337797    0.19494447324468053    
  0.1890800860099563    0.1949444398445565    0.19982798565372148    0.21737612787631172    0.2555575343315184    
  0.31984259620472755    0.38976326985152576    0.40196994363798844    0.34370617289342725    0.3070106959760135    
  0.343706144002903    0.4019698525752215    0.3897633901714737    0.31984260032329564    0.25555744493333366    
  0.21737619079484025    0.19982800366039924    0.1949444398445565    0.2153554760392711    0.21737619825426402    
  0.2267342349372546    0.2516490927862711    0.29884250410826213    0.36108642360484056    0.40400839854538245    
  0.4019699078636218    0.3905364954255915    0.401969961540266    0.4040083747902602    0.3610864045530078    
  0.2988425084921446    0.2516491040244866    0.2267342512534844    0.2173761796049581    0.2153554760392711    
  0.25834515137959885    0.2555574842968405    0.25164907887127025    0.2564333104039139    0.27808890641715783    
  0.3172470686038081    0.3610864414602183    0.3897633392165269    0.3980664555346625    0.3897633364548064    
  0.36108640567727424    0.3172471800547136    0.27808892183969824    0.25643321141864717    0.2516491156569922    
  0.25555750174725833    0.25834515137959885    0.3285893677480809    0.3198425932752287    0.29884250396475176    
  0.27808896786827847    0.2695941578548447    0.2780889415877834    0.2988424895458247    0.31984265787244365    
  0.3285893750043904    0.3198425870661369    0.2988425074956039    0.27808896085972096    0.26959415423363065    
  0.27808894794771843    0.29884250190531364    0.3198426605087319    0.3285893677480809    0.39806649698730096    
  0.3897633972686859    0.361086394457793    0.3172471754683583    0.27808893095488385    0.2564332670987836    
  0.2516491070780533    0.2555575076743175    0.2583451621107617    0.25555754297320094    0.251649071873665    
  0.2564332888649173    0.27808892455859147    0.3172471193352522    0.3610864202621169    0.38976334882964064    
  0.39806649698730096    0.39053654733649984    0.4019698922430053    0.4040084175077217    0.361086433608686    
  0.2988424793240698    0.25164910074178565    0.2267342719449802    0.21737614711016015    0.21535549756562786    
  0.21737617577376217    0.22673428717078892    0.2516491102942436    0.2988424772259766    0.3610864228094462    
  0.40400841868851045    0.40196987501274023    0.39053654733649984    0.3070106869456774    0.3437061300424515    
  0.40196988120683436    0.38976337274965694    0.3198426065076581    0.25555746647666533    0.21737617129003298    
  0.19982797507923217    0.19494442674262794    0.19982798807228702    0.21737616611402705    0.2555575371083986    
  0.31984261640092626    0.38976329676308397    0.4019698991908128    0.34370612182200405    0.3070106869456774    
  0.2617806299411667    0.30701072793118855    0.3905364964714773    0.3980665014719586    0.328589358739449    
  0.2583451371568859    0.21535547110337797    0.19494447324468053    0.1890800860099563    0.1949444531392293    
  0.21535545785135202    0.2583451830214305    0.328589357161206    0.3980664357588913    0.3905365283354128    
  0.3070107485766199    0.2617806299411667    0.3940184789707708    0.4007053716953742    0.3980664921328245    
  0.3610838351064774    0.3104247968528416    0.2745915148965789    0.2583451822709636    0.2541545406894798    
  0.2539089235432458    0.25415452545423967    0.2583451649349663    0.2745915673319891    0.3104247953287611    
  0.3610837646659273    0.3980665089478702    0.40070539585993836    0.3940184789707708    0.4007053325634898    
  0.40219336232602454    0.38976332855999907    0.34887547306586847    0.3008024688573305    0.2687571346020978    
  0.25555751140271005    0.25355414849499974    0.25415450446732296    0.2535541699501058    0.2555574782564939    
  0.2687572164633556    0.3008024632027185    0.3488753943329022    0.3897633672698372    0.40219334437543286    
  0.4007053325634898    0.39806646243413246    0.3897634087665757    0.3610863694177514    0.3172471378499451    
  0.2780889470846552    0.25643326132534033    0.25164912206521367    0.25555747641639365    0.25834515602649566    
  0.2555575287692334    0.2516490461018169    0.2564332890073524    0.2780889450868081    0.3172471199345286    
  0.3610864332327519    0.38976330831696465    0.39806646243413246    0.36108379721704126    0.34887541835131064    
  0.3172471353207743    0.28128017762916946    0.25664702814255386    0.2492698121883333    0.2564332614405899    
  0.2687571526022572    0.2745915488199413    0.2687571628148592    0.25643327225744833    0.2492698763138885    
  0.25664702553880003    0.28128010889322536    0.31724711936152045    0.34887541955697454    0.36108379721704126    
  0.3104248350606566    0.30080243392889744    0.27808891849339973    0.25664704420990303    0.2482728019012237    
  0.2566470697840536    0.27808897262074256    0.3008024898324367    0.31042484079984706    0.3008024409807163    
  0.2780889197635826    0.2566470521462185    0.24827279807109726    0.2566470692214187    0.27808896066398786    
  0.30080247542775274    0.3104248350606566    0.274591584487502    0.2687571649233205    0.2564332571540789    
  0.24926987287645508    0.2566470695055144    0.28128009677952864    0.31724712518967146    0.34887542721806253    
  0.36108385012705735    0.34887543389591474    0.31724710496711717    0.2812801766904373    0.25664707331115033    
  0.2492698185939334    0.2564332544201037    0.2687571655752528    0.274591584487502    0.2583451356362393    
  0.25555752647549024    0.2516490771664662    0.2564332737567432    0.2780889305340261    0.31724715452638985    
  0.36108644428015735    0.38976336635863107    0.39806645836338655    0.38976336904197095    0.3610864024748885    
  0.31724713534302346    0.278088938505608    0.2564333001064992    0.25164912331769246    0.25555752024829753    
  0.2583451356362393    0.25415453587609704    0.25355414521620345    0.25555749567516645    0.2687571564471894    
  0.30080243568702725    0.34887537210027014    0.38976332157794014    0.40219328239120394    0.40070537383254995    
  0.40219332084566056    0.3897633382239701    0.3488754052529998    0.30080243739173007    0.2687571374342627    
  0.25555748357053076    0.25355410459785255    0.25415453587609704    0.2539089235432458    0.25415452545423967    
  0.2583451649349663    0.2745915673319891    0.3104247953287611    0.3610837646659273    0.3980665089478702    
  0.40070539585993836    0.3940184789707708    0.4007053716953742    0.3980664921328245    0.3610838351064774    
  0.3104247968528416    0.2745915148965789    0.2583451822709636    0.2541545406894798    0.2539089235432458    
  0.25415450446732296    0.2535541699501058    0.2555574782564939    0.2687572164633556    0.3008024632027185    
  0.3488753943329022    0.3897633672698372    0.40219334437543286    0.4007053325634898    0.40219336232602454    
  0.38976332855999907    0.34887547306586847    0.3008024688573305    0.2687571346020978    0.25555751140271005    
  0.25355414849499974    0.25415450446732296    0.25834515602649566    0.2555575287692334    0.2516490461018169    
  0.2564332890073524    0.2780889450868081    0.3172471199345286    0.3610864332327519    0.38976330831696465    
  0.39806646243413246    0.3897634087665757    0.3610863694177514    0.3172471378499451    0.2780889470846552    
  0.25643326132534033    0.25164912206521367    0.25555747641639365    0.25834515602649566    0.2745915488199413    
  0.2687571628148592    0.25643327225744833    0.2492698763138885    0.25664702553880003    0.28128010889322536    
  0.31724711936152045    0.34887541955697454    0.36108379721704126    0.34887541835131064    0.3172471353207743    
  0.28128017762916946    0.25664702814255386    0.2492698121883333    0.2564332614405899    0.2687571526022572    
  0.2745915488199413    0.31042484079984706    0.3008024409807163    0.2780889197635826    0.2566470521462185    
  0.24827279807109726    0.2566470692214187    0.27808896066398786    0.30080247542775274    0.3104248350606566    
  0.30080243392889744    0.27808891849339973    0.25664704420990303    0.2482728019012237    0.2566470697840536    
  0.27808897262074256    0.3008024898324367    0.31042484079984706    0.36108385012705735    0.34887543389591474    
  0.31724710496711717    0.2812801766904373    0.25664707331115033    0.2492698185939334    0.2564332544201037    
  0.2687571655752528    0.274591584487502    0.2687571649233205    0.2564332571540789    0.24926987287645508    
  0.2566470695055144    0.28128009677952864    0.31724712518967146    0.34887542721806253    0.36108385012705735    
  0.39806645836338655    0.38976336904197095    0.3610864024748885    0.31724713534302346    0.278088938505608    
  0.2564333001064992    0.25164912331769246    0.25555752024829753    0.2583451356362393    0.25555752647549024    
  0.2516490771664662    0.2564332737567432    0.2780889305340261    0.31724715452638985    0.36108644428015735    
  0.38976336635863107    0.39806645836338655    0.40070537383254995    0.40219332084566056    0.3897633382239701    
  0.3488754052529998    0.30080243739173007    0.2687571374342627    0.25555748357053076    0.25355410459785255    
  0.25415453587609704    0.25355414521620345    0.25555749567516645    0.2687571564471894    0.30080243568702725    
  0.34887537210027014    0.38976332157794014    0.40219328239120394    0.40070537383254995    0.3940184789707708    
  0.4007053716953742    0.3980664921328245    0.3610838351064774    0.3104247968528416    0.2745915148965789    
  0.2583451822709636    0.2541545406894798    0.2539089235432458    0.25415452545423967    0.2583451649349663    
  0.2745915673319891    0.3104247953287611    0.3610837646659273    0.3980665089478702    0.40070539585993836    
  0.3940184789707708    0.3498017693023801    0.3440255357802372    0.3285893523366406    0.31042482710904584    
  0.30196817708057605    0.3104247850192956    0.3285893710985256    0.3440255577161177    0.34980177031945786    
  0.3440255430977506    0.32858935052031857    0.3104248272845048    0.30196816641959506    0.31042479575893617    
  0.3285893716478835    0.34402555162755033    0.3498017693023801    0.3440255103744685    0.3372053413581942    
  0.3198425918154181    0.30080248691334593    0.292339247176501    0.300802416563167    0.31984266087216195    
  0.3372053286943298    0.3440255223936728    0.33720534645818073    0.3198425844040871    0.30080248514837804    
  0.29233924296717617    0.3008024262772783    0.31984265924562844    0.3372053442567536    0.3440255103744685    
  0.32858940412983756    0.31984268396039084    0.29884245414863775    0.2780889461620807    0.26959420894691194    
  0.27808895028250846    0.2988425057213926    0.3198426282805235    0.3285894011832523    0.3198426743178443    
  0.2988424457926241    0.2780889468644266    0.26959420635965353    0.27808894521980154    0.29884250186684075    
  0.31984263887735315    0.32858940412983756    0.31042482164715945    0.30080246770021507    0.2780889446848712    
  0.25664709157092574    0.24827284283327525    0.25664702242714077    0.2780889547260325    0.30080244564754594    
  0.3104248349075338    0.3008024664311755    0.27808894435980075    0.2566470817840512    0.2482728300288304    
  0.25664702651152    0.27808895342061224    0.30080245155809754    0.31042482164715945    0.3019682015325989    
  0.29233923197713985    0.2695941647125332    0.2482728263081118    0.24003944785603917    0.2482728165859429    
  0.2695941653748218    0.29233928016659644    0.3019682149324346    0.2923392488770656    0.26959416647550455    
  0.248272830812517    0.2400394502407388    0.24827281751695432    0.26959416133389424    0.29233928175162016    
  0.3019682015325989    0.31042479800780326    0.3008024951527797    0.27808890835757727    0.25664708877853365    
  0.24827280648267594    0.2566470565934141    0.27808897975605085    0.30080245039348497    0.31042480837131003    
  0.30080248908136475    0.27808889028705636    0.2566470875002979    0.2482728087717174    0.2566470538239111    
  0.2780889806974178    0.30080245475107453    0.31042479800780326    0.3285893558150573    0.3198426253874217    
  0.2988425535693859    0.27808896207940037    0.26959416116896073    0.2780889721351133    0.2988425207520711    
  0.31984263630651577    0.3285893674675546    0.31984262255558626    0.29884254970586366    0.2780889637313926    