#     DFTpy    
  CRYSTAL 
    
  PRIMVEC    
  9.324542309572493    1.7346562068965519e-09    -5.632365517241379e-10    
  1.7346562068965519e-09    9.324542311672351    -1.6248968965517242e-09    
  -5.632365517241379e-10    -1.6248968965517242e-09    9.324542312256957    
  PRIMCOORD    
  63    1    
  Si    2.331135621311437    2.0425889728635e-08    2.331135530179477    
  Si    6.993406776097684    2.1293217832083276e-08    2.331135529897858    
  Si    2.331135622178765    4.662271176262065    2.331135529367028    
  Si    6.993406776965012    4.662271177129392    2.3311355290854094    
  Si    2.3311356210298193    1.9613441280359137e-08    6.993406686307954    
  Si    6.993406775816065    2.0480769383807413e-08    6.9934066860263355    
  Si    2.3311356218971473    4.662271175449616    6.993406685495507    
  Si    6.9934067766833925    4.662271176316945    6.9934066852138885    
  Si    1.165567788120755    1.1655677285394372    1.1655677438544958    
  Si    5.827838942907001    1.1655677294067652    1.1655677435728775    
  Si    1.1655677889880829    5.827838884375613    1.1655677430420475    
  Si    5.82783894377433    5.82783888524294    1.1655677427604292    
  Si    1.1655677878391366    1.1655677277269887    5.827838899982974    
  Si    5.827838942625383    1.1655677285943167    5.827838899701356    
  Si    1.1655677887064648    5.827838883563164    5.827838899170525    
  Si    5.827838943492711    5.827838884430491    5.827838898888907    
  Si    2.331135634012298    2.331135561030274    2.9488832663461068e-08    
  Si    6.993406788798544    2.3311355618976024    2.9207214387598998e-08    
  Si    2.331135634879626    6.993406716866449    2.8676384215185205e-08    
  Si    6.993406789665871    6.993406717733778    2.8394765939323134e-08    
  Si    2.33113563373068    2.331135560217825    4.6622711856173105    
  Si    6.993406788516924    2.331135561085153    4.662271185335691    
  Si    2.3311356345980077    6.993406716054    4.662271184804862    
  Si    6.993406789384252    6.99340671692133    4.662271184523243    
  Si    1.1655677912445206    3.4967034096777327    3.4967034149819503    
  Si    5.827838946030767    3.496703410545061    3.496703414700332    
  Si    1.165567792111849    8.158974565513907    3.496703414169502    
  Si    5.827838946898095    8.158974566381238    3.496703413887884    
  Si    1.1655677909629025    3.4967034088652844    8.158974571110427    
  Si    5.827838945749148    3.4967034097326133    8.15897457082881    
  Si    1.1655677918302307    8.158974564701458    8.15897457029798    
  Si    5.827838946616477    8.158974565568787    8.158974570016362    
  Si    4.662271113301869    2.3435428329225506e-08    4.4707288940482536e-08    
  Si    9.324542268955444    4.662271180138933    4.361322221634461e-08    
  Si    4.662271114169196    4.662271179271603    4.389484049220668e-08    
  Si    9.324542267806496    2.3490307984397924e-08    4.662271200554148    
  Si    4.6622711130202505    2.2622979880949645e-08    4.662271200835767    
  Si    9.324542268673826    4.662271179326484    4.662271199741701    
  Si    4.662271113887579    4.662271178459155    4.662271200023318    
  Si    3.4967033688376112    1.1655677601716457    3.496703409612999    
  Si    8.158974523623856    1.1655677610389736    3.496703409331382    
  Si    3.4967033697049392    5.827838916007821    3.496703408800551    
  Si    8.158974524491182    5.827838916875149    3.4967034085189326    
  Si    3.4967033685559925    1.1655677593591973    8.158974565741477    
  Si    8.158974523342238    1.1655677602265253    8.15897456545986    
  Si    3.496703369423321    5.827838915195373    8.158974564929029    
  Si    8.158974524209565    5.8278389160627    8.158974564647412    
  Si    9.324542252200128    2.3311355531005145    2.331135549365137    
  Si    4.662271097413882    2.331135552233186    2.331135549646755    
  Si    9.324542253067456    6.993406708936689    2.331135548552689    
  Si    4.66227109828121    6.993406708069362    2.331135548834307    
  Si    9.324542251918508    2.3311355522880657    6.993406705493616    
  Si    4.662271097132264    2.3311355514207373    6.993406705775232    
  Si    9.324542252785838    6.99340670812424    6.993406704681167    
  Si    4.662271097999593    6.993406707256912    6.993406704962784    
  Si    3.496703361445986    3.4967034138942283    1.165567742068199    
  Si    8.158974516232231    3.496703414761556    1.1655677417865808    
  Si    3.4967033623133146    8.158974569730402    1.1655677412557506    
  Si    8.158974517099562    8.15897457059773    1.1655677409741323    
  Si    3.4967033611643674    3.496703413081779    5.827838898196677    
  Si    8.158974515950613    3.4967034139491067    5.8278388979150595    
  Si    3.496703362031696    8.158974568917953    5.827838897384227    
  Si    8.158974516817942    8.158974569785283    5.827838897102611    
  BEGIN_BLOCK_DATAGRID_3D    
  3d_datagrid_density    
  BEGIN_DATAGRID_3D#0    
  41    41    41    
  0.0    0.0    0.0    
  9.324542309572493    1.7346562068965519e-09    -5.632365517241379e-10    
  1.7346562068965519e-09    9.324542311672351    -1.6248968965517242e-09    
  -5.632365517241379e-10    -1.6248968965517242e-09    9.324542312256957    
  0.08459259564893294    0.0876859239797529    0.09645471583412546    0.10859405908748176    0.11971683262723241    
  0.1250793989371588    0.12239429151441228    0.11316152218260267    0.10172744179494014    0.09248818325367462    
  0.08910653051887067    0.09457898312646824    0.11265492284616109    0.15004292286766255    0.21676407682432847    
  0.32102129585981115    0.44219309992339606    0.46201182394578316    0.276576836608324    0.09829580642656709    
  0.05171024304623369    0.09829582180649009    0.2765768445707655    0.46201191892739685    0.44219300873489653    
  0.32102130303460863    0.21676407776347184    0.15004297469159858    0.11265489519569724    0.09457902675337915    
  0.08910652561146898    0.09248820698256129    0.10172744073592475    0.11316151493802444    0.12239427417287088    
  0.12507943977049227    0.11971686962918968    0.10859402575550069    0.09645471278599012    0.08768595910973985    
  0.08459259564893294    0.08768595112521095    0.09106793125164334    0.100471896260557    0.11343274350658782    
  0.12537942199909805    0.13147600849879792    0.12916387314375727    0.11985449196074711    0.10792398531744284    
  0.09820119468053902    0.09453916910518388    0.10004391247216533    0.11828871254603683    0.15563448233618582    
  0.22119617951036066    0.32256278426896456    0.4432858180144534    0.48447511684896216    0.3363356485689138    
  0.15600573481272295    0.09828816221327163    0.1560057756308145    0.3363357993810997    0.4844751799646569    
  0.4432858212318691    0.3225627359185873    0.2211962816463452    0.15563444333959814    0.11828866503729378    
  0.10004393842795216    0.09453920816525088    0.09820114516714168    0.10792401576312997    0.11985442010536768    
  0.12916389609299467    0.1314760205090417    0.12537944868474535    0.11343268413637156    0.10047193316656064    
  0.09106799467432519    0.08768595112521095    0.09645476901294976    0.10047195681434848    0.11162407576179528    
  0.12701847059160884    0.14184238997617815    0.15053389821787758    0.149782955211294    0.14065967466081158    
  0.12784239959980148    0.11694262841107907    0.11257564960099595    0.11802610515363152    0.1364277750074824    
  0.17278787583166208    0.23405615987409786    0.32548841600116707    0.4374022968735765    0.5129854853870635    
  0.4640570591880437    0.3360528375814058    0.2763234823188437    0.3360528208101139    0.46405704272257653    
  0.5129854564187027    0.4374022302503332    0.32548843779845976    0.2340560611269616    0.17278791420771142    
  0.13642771431574233    0.11802618175730503    0.11257560760924107    0.1169426814118806    0.12784244051424834    
  0.1406596794779207    0.14978288005323617    0.15053389771499864    0.1418424089166091    0.1270184330801363    
  0.11162406231639235    0.1004719813254384    0.09645476901294976    0.10859402834456894    0.11343276540273735    
  0.12701845011289944    0.1462875957868082    0.1661576330618529    0.18047161249774718    0.18453817515114315    
  0.17839082619907387    0.16621000350402082    0.15449042734237997    0.14923614158217263    0.15430069003887842    
  0.17174268523244082    0.20384720510362245    0.25435697360898024    0.3253282299804404    0.41068192788390734    
  0.4866066561400747    0.5121506268652055    0.4833798237420091    0.4609547211091744    0.4833797164431754    
  0.51215067979214    0.48660663772546736    0.4106819070831808    0.325328062361625    0.25435698027114095    
  0.20384720566834394    0.1717426492388397    0.1543007166418245    0.1492361621465297    0.1544903422511438    
  0.166210017077585    0.17839084440920228    0.18453813260411472    0.18047156525291602    0.16615773539535036    
  0.1462875305445811    0.12701841891702473    0.11343280724369516    0.10859402834456894    0.11971684879157453    
  0.12537936535807873    0.14184230518549998    0.16615765195806032    0.19350602933177985    0.21811682265725224    
  0.23371422844407289    0.2371037054499439    0.23011933966878528    0.21992708129964958    0.2145158738297225    
  0.21815267766853927    0.23162773192366728    0.25329513983525365    0.2832554552563014    0.3221316822692512    
  0.36702302183374796    0.40958794147346583    0.43564101333929517    0.4413927857339971    0.4403296858071362    
  0.44139276556247414    0.43564105620722765    0.40958794941003174    0.36702306097926646    0.32213162029680686    
  0.28325540531268817    0.2532951005082762    0.23162768746861698    0.2181527790374414    0.21451589115342443    
  0.21992701770439077    0.23011935848833043    0.2371037246618468    0.23371421479232932    0.218116845449274    
  0.19350599855495076    0.16615760190672219    0.141842383624152    0.12537943117576258    0.11971684879157453    
  0.12507941079828633    0.1314759582665391    0.15053379906544298    0.18047157184415621    0.21811679433380987    
  0.25893262370548664    0.2948131501163162    0.31784586878272697    0.32458425414660386    0.3208988554142161    
  0.31697987016622964    0.31791888790565587    0.32229482637520956    0.32421738218153756    0.3223050620513417    
  0.3204418406323016    0.32113917588521773    0.32358368202999105    0.3235280309126421    0.3207589082813024    
  0.31930330539767093    0.3207588096304266    0.3235280364032092    0.3235836719467543    0.3211391383953357    
  0.32044176572912936    0.32230506618052707    0.3242173767241929    0.32229469705946723    0.31791897438272576    
  0.31697992682546633    0.32089890013340394    0.3245842966490781    0.3178459422981946    0.2948132242781635    
  0.2589326938035655    0.2181168304084514    0.18047155835434234    0.15053385339243902    0.13147602411850723    
  0.12507941079828633    0.12239429510910416    0.12916383989479915    0.14978288846957794    0.18453814972036373    
  0.23371421562203604    0.29481318363397924    0.35874675940004835    0.4115528389680244    0.4388304132149526    
  0.441029090917298    0.4370729338436937    0.438452632734527    0.4350977450779145    0.4110363716624028    
  0.36839681790752865    0.32194377290697973    0.2823169319017524    0.2531943539069094    0.23310949871857742    
  0.22061165320957807    0.216308894497083    0.22061160719917136    0.23310942208416985    0.2531943494599887    
  0.2823168918345672    0.32194371061326027    0.36839674643653697    0.4110363567608893    0.43509762203887087    
  0.43845271117938117    0.4370730223661936    0.4410291102569213    0.4388305070072371    0.4115529303775864    
  0.3587467837805896    0.2948132831030285    0.23371422172484602    0.1845380930836392    0.14978293539082513    
  0.12916383478540658    0.12239429510910416    0.11316156802898451    0.11985450611603894    0.1406596722726453    
  0.17839079076245684    0.2371036940783846    0.3178459315259687    0.41155289835617115    0.49072353822884374    
  0.5140394514367133    0.4814896403583686    0.4575604929970324    0.4813097228895212    0.5128129248265652    
  0.488901040807187    0.4120082766114406    0.32486146707140473    0.2535372511252347    0.2040320335304657    
  0.1732742210650324    0.15645151819552763    0.1509781096120218    0.15645150171314212    0.1732741688479724    
  0.20403200134295718    0.2535373127579355    0.32486142381231925    0.4120082671963402    0.4889009086278855    
  0.512812919261547    0.4813097696265408    0.45756046621116575    0.48148962955020397    0.5140395302944167    
  0.4907236717638347    0.411552984073839    0.3178459414205499    0.23710370216629956    0.1783907905479769    
  0.14065963016752317    0.11985448499547784    0.11316156802898451    0.10172748349325261    0.10792400795455495    
  0.1278424184004941    0.1662100090595045    0.23011927546365077    0.3245843216587578    0.4388303899212503    
  0.5140394574448668    0.46288746022115845    0.333866993064934    0.27452951204493786    0.33555535688754007    
  0.4657243706647592    0.5155091045180988    0.4382288410275497    0.3246135600567592    0.23322952257315854    
  0.17312554399475216    0.13795727549764883    0.12002388184142905    0.11447101685780992    0.12002391763644414    
  0.13795727944020786    0.17312558387964988    0.23322945743100995    0.32461352022195694    0.4382287159890677    
  0.5155090860775791    0.46572436988608934    0.33555542896126556    0.2745294527645548    0.3338669132124435    
  0.4628873608384559    0.5140395572795482    0.4388304351795793    0.324584400817365    0.2301193712792943    
  0.16621003774717327    0.12784242845174773    0.10792401078815421    0.10172748349325261    0.09248818424540015    
  0.09820116705717483    0.11694259044716174    0.15449037999461035    0.21992699721191422    0.3208987537795157    
  0.4410289967170262    0.48148955922557674    0.33386701616950293    0.15486971975481742    0.09787331662758733    
  0.15628828129160555    0.3379630502785378    0.48629455510621866    0.4432381718959381    0.3211796150426895    
  0.2202944526798357    0.15606384618876873    0.11983587270617045    0.10199672495422112    0.0966097475914556    
  0.10199672720609787    0.11983581893826531    0.15606387969533664    0.2202944493046269    0.32117942242244923    
  0.443238174025944    0.4862946237543384    0.3379630167539423    0.15628836961953954    0.09787335917843548    
  0.15486965064250152    0.333866911275498    0.4814895181752143    0.44102919012234776    0.32089894909320493    
  0.2199270359185354    0.15449034477621998    0.11694264264524439    0.09820117725567082    0.09248818424540015    
  0.08910654125775051    0.09453913960164292    0.11257559587234384    0.14923609592821718    0.21451581613271128    
  0.31697987858175775    0.43707285895748216    0.45756032772449623    0.2745294880033749    0.09787334097121259    
  0.05173052385045896    0.09872078074119955    0.27773159917629203    0.46277187514125007    0.4411897700939018    
  0.31914388826703344    0.2157840264074312    0.1505496997166998    0.11424655414191477    0.09655517838024269    
  0.09125616446658452    0.09655517004669185    0.11424649094393122    0.15054970977593657    0.21578401300638433    
  0.31914386331171696    0.4411898091897203    0.46277196941385906    0.27773165402029903    0.0987208398622162    
  0.051730524310091855    0.0978732902981238    0.2745293677449588    0.4575604776325097    0.43707283228341226    
  0.3169798888732872    0.2145158399606983    0.14923607828150381    0.11257560692075208    0.09453917659064345    
  0.08910654125775051    0.09457901610964971    0.1000438958409761    0.11802607296340735    0.15430064110216685    
  0.21815272575452496    0.3179189104970278    0.4384526550852127    0.48130962599054034    0.33555537508182265    
  0.156288385827161    0.09872084944195467    0.15669589955287458    0.3371663874829783    0.48431977255972875    
  0.4415464612638336    0.3203821369068623    0.2202084484191351    0.15621636529855593    0.1199732850267266    
  0.10207276270496257    0.09665015174045777    0.10207276064941646    0.11997324847509762    0.1562163614869198    
  0.22020841036311067    0.3203821736217364    0.4415465390800937    0.48431961138664686    0.3371664602673068    
  0.1566960064000179    0.0987208456284405    0.15628831550911446    0.33555528497824655    0.48130973452322195    
  0.4384527064920412    0.31791895992419034    0.21815279497395434    0.1543006057507554    0.1180261707923317    
  0.10004390902044333    0.09457901610964971    0.11265496845024972    0.11828871525518432    0.13642773642051426    
  0.1717426915638459    0.23162767655424374    0.3222948446938868    0.43509768026357476    0.5128129271948448    
  0.4657243376482524    0.3379630855109747    0.2777316876846087    0.33716644744900937    0.46456415497322434    
  0.5122172441435666    0.43541481980930563    0.3233725598283958    0.23314891974922952    0.17346634684408024    
  0.13824389550788643    0.12014604729500464    0.11451413590812848    0.12014605571546402    0.13824382188739218    
  0.17346633820098498    0.23314890418486445    0.3233725541868075    0.4354146330433187    0.512217190734834    
  0.46456423071328845    0.33716647983990694    0.27773173130522855    0.33796308134639286    0.465724370883646    
  0.5128130010508117    0.435097756326684    0.32229484986112106    0.23162773937246128    0.17174268571772805    
  0.13642767442423162    0.11828873906054112    0.11265496845024972    0.15004302018407376    0.15563445429822367    
  0.17278783069299503    0.20384720553708838    0.2532950648954053    0.3242174132043877    0.4110363826573525    
  0.4889009675104339    0.5155090138903048    0.4862947185275301    0.46277218740424353    0.48431976403522525    
  0.5122173256320784    0.4857133763565257    0.40909891681030136    0.32363724980945313    0.2536183519687512    
  0.20462249481813005    0.17372179990377137    0.1565642059272279    0.15095594119493083    0.1565642250566781    
  0.1737218630470827    0.20462240141937948    0.25361828743986936    0.32363723951035583    0.40909882182886137    
  0.4857134080101124    0.5122172683905097    0.48431979699318706    0.46277215635744917    0.48629460811887015    
  0.5155090429353166    0.48890099208744786    0.41103643656499933    0.3242174158401411    0.2532951946294475    
  0.2038472078423709    0.17278783121503713    0.1556344695650548    0.15004302018407376    0.2167641235062193    
  0.2211961541390299    0.23405605214444686    0.2543569843749758    0.28325536194453793    0.32230512009218576    
  0.3683967793619125    0.41200826881942026    0.4382287364805014    0.443238086833775    0.4411898357004192    
  0.44154647513150486    0.4354148185879223    0.40909884275425057    0.36621499479245606    0.3210553212119702    
  0.282693347134386    0.25408102724376214    0.23370784670769634    0.22066398220267416    0.21614274552894966    
  0.22066401356498636    0.2337077776366384    0.25408107766753957    0.28269337266657407    0.3210552362571182    
  0.36621498202647773    0.40909879890878925    0.4354146568786982    0.441546525185715    0.44118990419590864    
  0.44323812692775594    0.4382287377286274    0.41200822798965947    0.3683967989747992    0.3223050980638431    
  0.28325542218053273    0.25435689810772566    0.23405615939958269    0.22119625735743945    0.2167641235062193    
  0.3210213090784005    0.3225626254619075    0.32548820716936877    0.32532806924694    0.3221316015802602    
  0.32044178609360074    0.3219437243772974    0.3248613431453698    0.32461341164515894    0.3211794560140926    
  0.3191437981988927    0.32038200835117975    0.32337251443182735    0.32363715148849825    0.32105515713862476    
  0.31993799953440855    0.3217804658218547    0.32469306018031807    0.32425805818791886    0.3207666071518933    
  0.3189991016878593    0.32076652422235835    0.32425806048348027    0.3246930614904099    0.3217804170925176    
  0.31993794162521777    0.3210551508509055    0.32363712039081993    0.32337247810135017    0.32038210659239263    
  0.3191438851291858    0.3211794118867288    0.3246134212617465    0.3248614828591565    0.3219437075719973    
  0.320441829450561    0.3221314869085959    0.32532806855685137    0.32548830627398023    0.3225627009518953    
  0.3210213090784005    0.44219308937952695    0.4432856812128658    0.4374021884002506    0.41068187814243984    
  0.3670230335802796    0.321139165416615    0.28231688710893377    0.25353724781679865    0.2332294704835289    
  0.2202944451866273    0.2157840245921926    0.22020843961856248    0.23314895976058647    0.2536183265618272    
  0.28269336634486386    0.32178059209233273    0.36759438702992064    0.41067878999824997    0.4364708602826834    
  0.44152465344234004    0.4401048302048921    0.44152451937781    0.43647077443465654    0.41067885077095445    
  0.36759435151700914    0.3217805091533423    0.2826933980574085    0.25361830871283975    0.23314893235268652    
  0.22020846796444415    0.2157840838244692    0.22029436237679764    0.23322952238507788    0.2535372660362291    
  0.2823169363693025    0.32113918131358077    0.36702309708056646    0.4106817894382556    0.4374022820618573    
  0.4432857954507789    0.44219308937952695    0.46201204475121244    0.48447524418757393    0.5129855144438802    
  0.4866066266039326    0.40958789143540836    0.323583726214799    0.25319436525065575    0.20403203743041634    
  0.17312560370139235    0.15606382881869735    0.15054982077266374    0.15621638315855854    0.17346641704737908    
  0.20462243897519589    0.25408110194809463    0.32469315567568896    0.41067872490901935    0.48729921958527334    
  0.512973413553771    0.4838271828031549    0.4611335715437903    0.4838272642911677    0.5129734946414996    
  0.48729910009701116    0.41067882083922436    0.3246931145786958    0.2540810339994442    0.20462248186710605    
  0.17346638172414988    0.15621639215971314    0.15054970613695365    0.156063899715573    0.17312557217745358    
  0.2040320798531515    0.25319434029606186    0.3235837361144926    0.40958794057081566    0.48660670691663144    
  0.5129854849614439    0.4844751938372279    0.46201204475121244    0.2765768942635102    0.33633587810848825    
  0.46405702319511727    0.5121506434416809    0.43564100006591133    0.3235281011056539    0.23310952564765433    
  0.1732742426030859    0.13795728814689334    0.11983594507873666    0.11424658430889287    0.11997332653184814    
  0.1382439044401752    0.1737218906094054    0.23370787232702042    0.32425823769108775    0.4364709585753702    
  0.5129734991063593    0.4646421045507683    0.33660885327582496    0.27672800261891156    0.33660891653599356    
  0.4646421663478902    0.5129735425180987    0.43647082081835753    0.32425809943530737    0.2337078804912944    
  0.17372185104203636    0.13824383651688998    0.11997330741108528    0.11424660809436385    0.11983587673187396    
  0.13795728311077166    0.1732742399977441    0.23310946948762412    0.3235280762292474    0.4356411423273766    
  0.5121506705312489    0.4640570509630329    0.33633594455728716    0.2765768942635102    0.09829581648736219    
  0.15600574111676832    0.33605271834013245    0.4833798375370481    0.4413927456046758    0.32075882570882813    
  0.22061161591317807    0.15645152345602079    0.12002385338668992    0.10199668861314891    0.096555161325539    
  0.10207273486165178    0.120146096686728    0.15656417170914838    0.22066400992166377    0.32076665311461344    
  0.44152471636073654    0.4838272074633981    0.3366088072123247    0.15635428895206022    0.0985391491814058    
  0.15635429464288803    0.33660880963892537    0.48382725242953445    0.44152466439627513    0.32076656970221423    
  0.22066402712715397    0.1565641969232826    0.12014602835138956    0.10207282174539477    0.09655517598923465    
  0.10199672111620578    0.12002386970505653    0.15645151098479806    0.22061165882374834    0.3207589062421911    
  0.44139281776973427    0.4833796159535408    0.3360527761106204    0.15600578277672683    0.09829581648736219    
  0.051710247598146214    0.09828817505620005    0.2763234428545028    0.4609547276217067    0.4403297191937507    
  0.31930327516875284    0.21630886697956578    0.15097809016633382    0.11447097827308682    0.09660974560379207    
  0.09125614272057715    0.09665019058171363    0.11451408906092324    0.15095589643519977    0.21614271046859312    
  0.3189991912023673    0.44010490027376303    0.4611334103953138    0.2767279719809062    0.0985391527809328    
  0.05187202596891174    0.09853913075599809    0.27672797002808464    0.4611336560160168    0.440104837624297    
  0.31899917613802115    0.2161427434756348    0.15095589019906464    0.1145141103333151    0.09665018209759267    
  0.09125618262872068    0.09660970667247022    0.11447104436032252    0.15097805441869064    0.2163088719942802    
  0.31930335041085767    0.4403297986763883    0.46095469550895335    0.27632340649714526    0.09828817096495651    
  0.051710247598146214    0.09829582111492471    0.15600573773539214    0.33605278941547845    0.4833797075160407    
  0.4413927365936098    0.32075890369374704    0.22061164129412644    0.1564514812250035    0.12002384880218314    
  0.101996725089893    0.09655516258023362    0.10207272886090264    0.12014608606507482    0.15656423197736488    
  0.22066401585863235    0.3207666243390878    0.44152469406604206    0.4838270880388358    0.33660873713187567    
  0.15635425238983974    0.09853910804356505    0.15635429472968587    0.33660877478815665    0.48382724479260386    
  0.44152458915006565    0.32076663876564254    0.22066401828387716    0.15656420187229858    0.12014598712568474    
  0.10207279319985706    0.09655515203068357    0.10199671014917627    0.12002385143849209    0.15645148542009432    
  0.22061164947602432    0.32075895775563856    0.4413927752032423    0.4833795998144392    0.336052768491669    
  0.15600573525173134    0.09829582111492471    0.2765768641624402    0.3363358674464261    0.46405705186817015    
  0.5121506268367692    0.4356410651319926    0.3235281240420693    0.23310949747435927    0.17327420016761766    
  0.13795725357323171    0.11983590634011267    0.11424656011609748    0.11997329455085147    0.138243900259105    
  0.17372184787200984    0.23370789546221066    0.3242582129870402    0.43647086468782115    0.5129733901144833    
  0.4646421852726477    0.33660885065390994    0.27672802501599103    0.3366088652829566    0.46464225101257695    
  0.5129734786999999    0.43647083586697283    0.32425815319433254    0.23370781257144688    0.17372187986792423    
  0.1382438609517257    0.11997335711075482    0.11424656085721498    0.11983587853339772    0.13795730701207648    
  0.17327418735104191    0.233109502530876    0.32352808997353694    0.435641156523608    0.5121506110337206    
  0.4640569844795954    0.3363358896416189    0.2765768641624402    0.4620118443217713    0.484475204297131    
  0.5129855800799853    0.4866066695006349    0.4095878645731737    0.3235837188231276    0.25319440948445154    
  0.20403206862853332    0.173125603846024    0.15606394128213522    0.15054975718655914    0.15621637247538203    
  0.17346641701000426    0.20462248220148066    0.25408111274436534    0.32469323755510565    0.41067886272214127    
  0.48729914697065024    0.5129734296270215    0.4838273162032804    0.46113352772077737    0.48382727376730605    
  0.5129735166553676    0.48729912691166144    0.41067885120851894    0.3246931641422479    0.2540811081861933    
  0.2046225246865688    0.17346640306968586    0.15621640117431784    0.1505497574091602    0.15606387952363532    
  0.17312559286760892    0.20403215129791002    0.2531943339657394    0.3235837520731721    0.4095879741255598    
  0.48660675020478245    0.5129854812339241    0.48447525696794863    0.4620118443217713    0.44219314751396355    
  0.44328567626485954    0.4374021380716139    0.4106818172851168    0.36702303707717354    0.321139157379442    
  0.2823169001296427    0.25353730349358294    0.23322951806156347    0.2202944275922847    0.21578402987736137    
  0.22020840748893097    0.2331489732451549    0.25361832218069735    0.28269340952270644    0.32178063794272793    
  0.3675944287096044    0.4106787471617116    0.436470919941822    0.4415246371023531    0.4401048715342775    
  0.44152465127024065    0.43647080880611794    0.41067880568023235    0.36759446077211844    0.3217805200070539    
  0.2826933644374891    0.2536183552279653    0.2331488905331786    0.2202085015527925    0.2157840760104525    
  0.22029442890243772    0.2332295180441164    0.2535372766030504    0.2823169668195801    0.3211392252956357    
  0.3670231357844287    0.4106817707273157    0.43740222879653173    0.44328588915281947    0.44219314751396355    
  0.3210213350427412    0.32256262783119005    0.3254883361844252    0.32532808856739964    0.3221315963948126    
  0.32044174818012194    0.3219437435458302    0.3248614057598375    0.32461339487041785    0.3211794136100165    
  0.31914387636637276    0.3203820909689041    0.32337253847657116    0.32363713067359434    0.32105524490358034    
  0.3199379461272504    0.32178051531605434    0.3246930537677769    0.32425813594456726    0.32076660761948345    
  0.318999148103997    0.32076654863824905    0.32425804747845216    0.32469308365699    0.32178043124337735    
  0.3199379915140391    0.3210551122730535    0.3236371682566009    0.32337241256841737    0.32038215818908383    
  0.31914385059966033    0.3211795111954282    0.32461344047126073    0.32486146780389075    0.3219437177056795    
  0.3204418709609403    0.3221315742085358    0.32532808486755876    0.3254883321602469    0.32256274939413415    