#     DFTpy    
  CRYSTAL 
    
  PRIMVEC    
  3.9905745959860033    1.6695085326835863e-05    -4.1857655172413793e-13    
  -1.99527283962415    3.4559474233002003    -8.189655172413792e-12    
  -6.882979310344827e-13    -1.594647724137931e-11    6.561124683966625    
  PRIMCOORD    
  4    1    
  Si    9.934074362510875e-06    2.3039703506667086    3.689804818702879    
  Si    1.995291822282815    1.1519937676905496    0.40924242827069124    
  Si    9.934075861744419e-06    2.303970350665758    6.151882207243845    
  Si    1.9952918222892908    1.1519937677161447    2.8713199136986187    
  BEGIN_BLOCK_DATAGRID_3D    
  3d_datagrid_density    
  BEGIN_DATAGRID_3D#0    
  17    17    29    
  0.0    0.0    0.0    
  3.9905745959860033    1.6695085326835863e-05    -4.1857655172413793e-13    
  -1.99527283962415    3.4559474233002003    -8.189655172413792e-12    
  -6.882979310344827e-13    -1.594647724137931e-11    6.561124683966625    
  0.041940593044461724    0.045344897283785546    0.05703707251582275    0.08227123095609402    0.12984498251580845    
  0.20788772334768255    0.3123429184871889    0.41090577423334984    0.45240324595182696    0.41090580607265637    
  0.3123429285652453    0.20788764850836752    0.12984493533842997    0.0822712412323037    0.05703707247586883    
  0.04534489747929316    0.041940593044461724    0.045344912173061684    0.04534450260450905    0.052920940387118816    
  0.07156391721222789    0.10882160253833835    0.1744016948813833    0.2719028628263442    0.3820724372608104    
  0.4578464789004775    0.4577992920973035    0.38201133057526937    0.2719974257573758    0.17442655100588478    
  0.10878161322038844    0.07157162663414375    0.05292068221786454    0.045344912173061684    0.057037080389114744    
  0.0529209192305422    0.057037886438847746    0.07157324901844522    0.10275760422053454    0.16076219768721697    
  0.25319640723936887    0.3649177963123491    0.4521849280752023    0.48270364256647075    0.4522856883047175    
  0.36488007771869124    0.25308850722615706    0.16079895692552396    0.10278226238523283    0.07157164771402959    
  0.057037080389114744    0.08227126934107272    0.07156393435611265    0.0715732585939571    0.08225768540517903    
  0.1088241390067785    0.16078180592348765    0.2476766757259534    0.3531350959306978    0.4183506619409482    
  0.42463418378799295    0.42456707815910444    0.4183845851660078    0.35321843986744395    0.24768927150845346    
  0.1607989208091248    0.10878159478301314    0.08227126934107272    0.12984495652336914    0.10882159105449497    
  0.10275759281453721    0.10882412723970646    0.1298052609853151    0.1744368598438975    0.25313416045043313    
  0.35320696259691825    0.39623084691832716    0.34249913793223535    0.30120170868972257    0.34249106527798945    
  0.39626437007776016    0.35321842568217604    0.25308848051385147    0.17442652509370593    0.12984495652336914    
  0.20788774404668955    0.1744016711531909    0.16076217575028517    0.160781762627586    0.17443680453856827    
  0.20790054651871298    0.2719145141912483    0.36490966298528177    0.4184233424727455    0.34248696763250636    
  0.23900780818836576    0.2390619912131531    0.34249110709450603    0.41838464921704316    0.3648801424717184    
  0.27199741712462583    0.20788774404668955    0.31234297273040296    0.2719029102049479    0.2531964124616655    
  0.24767664476194495    0.2531342009743529    0.2719145223759398    0.31244035461710007    0.38198530648785173    
  0.45230013712075073    0.4244561718113123    0.3013081407785569    0.23900790036583353    0.3012017151786843    
  0.42456728075723177    0.4522858333376026    0.3820113417747699    0.31234297273040296    0.4109058423197633    
  0.38207241093411737    0.3649178354505109    0.3531349868286005    0.3532069110193354    0.36490965479658105    
  0.3819852450571445    0.4109772656543564    0.45783103911463735    0.48284133919766714    0.42445609127829426    
  0.3424869368972601    0.3424991498347047    0.4246341183303077    0.48270361364657444    0.45779926192432757    
  0.4109058423197633    0.45240327194749586    0.457846440720146    0.45218479694046215    0.41835054085791784    
  0.3962308660444617    0.4184234207675437    0.45230002157235255    0.45783095243099353    0.4523688231629567    
  0.45783099273513916    0.4523000247044439    0.41842335468060116    0.39623083743613696    0.41835066134107785    
  0.45218487904687443    0.4578464886230528    0.45240327194749586    0.41090588324265837    0.45779930995615825    
  0.48270369277559405    0.4246341408866909    0.3424991869718101    0.3424869624381665    0.4244561018776547    
  0.4828413773061826    0.4578309296396404    0.41097727519445393    0.38198529750323207    0.3649096942648968    
  0.3532069231115891    0.3531350185437699    0.3649178008428229    0.3820724144685049    0.41090588324265837    
  0.31234301243754287    0.38201137215901104    0.45228583980505543    0.4245671513077378    0.3012017482302448    
  0.23900795364682895    0.30130816670718946    0.4244561944823931    0.45230006313381116    0.3819853276309801    
  0.3124403992802774    0.27191452660425774    0.25313415897895236    0.2476767033127888    0.2531964682024704    
  0.271902883961742    0.31234301243754287    0.20788772748200138    0.2719974585998036    0.3648801935426916    
  0.418384550784609    0.34249113228599115    0.2390620608312747    0.23900789171823308    0.3424869933599976    
  0.418423378530569    0.36490967546179304    0.27191446240748357    0.2079005288221924    0.17443681317082682    
  0.16078180946691426    0.1607621703222952    0.17440164645348807    0.20788772748200138    0.12984496282932942    
  0.17442649251744688    0.2530884651494712    0.3532183547102805    0.39626434359006196    0.34249118869007583    
  0.30120173847212134    0.34249912248807235    0.39623085851212736    0.3532069655682748    0.2531341699365131    
  0.174436801006563    0.1298052183008356    0.10882414403855253    0.10275756423301582    0.10882157561615834    
  0.12984496282932942    0.08227124926884521    0.10878162726562503    0.1607989168737014    0.24768919589675514    
  0.3532183854146103    0.41838467721468586    0.42456713935112783    0.42463419551669984    0.4183505629665447    
  0.35313505292890884    0.24767668717083613    0.16078178831808143    0.10882415179073707    0.08225771692381073    
  0.0715732410030243    0.07156393017583873    0.08227124926884521    0.05703707528605142    0.07157164997913945    
  0.10278225863282238    0.16079892587506445    0.2530885052074383    0.3648801200229762    0.4522857856545863    
  0.48270360362298387    0.45218493809900956    0.3649177801150207    0.2531963911435557    0.16076220330790386    
  0.10275759055405832    0.07157325549167293    0.057037881298867284    0.052920918604238566    0.05703707528605142    
  0.0453449075284286    0.052920690068161864    0.07157166302702518    0.10878161258341018    0.1744265171862063    
  0.2719974294774293    0.38201128017102465    0.4577992412857666    0.4578464530140137    0.38207241632466576    
  0.2719029167292823    0.17440169704297445    0.10882158851752213    0.07156395469212114    0.05292092812019992    
  0.04534449044751278    0.0453449075284286    0.041940593044461724    0.045344897283785546    0.05703707251582275    
  0.08227123095609402    0.12984498251580845    0.20788772334768255    0.3123429184871889    0.41090577423334984    
  0.45240324595182696    0.41090580607265637    0.3123429285652453    0.20788764850836752    0.12984493533842997    
  0.0822712412323037    0.05703707247586883    0.04534489747929316    0.041940593044461724    0.04148576046981712    
  0.04475972317701032    0.05593202880298542    0.07982327379072733    0.12456462308433179    0.1974666124104911    
  0.2941505390955433    0.38470617458272677    0.4226631172436737    0.384698592664025    0.2942916434986052    
  0.19744604062324486    0.12450561014230467    0.0798382374713068    0.05593277107642288    0.04476020840190054    
  0.04148576046981712    0.04476022858880353    0.044758791745201844    0.05257959363139365    0.07185008387840155    
  0.11018700599979916    0.1775108487383978    0.27664248793728136    0.3856307388931224    0.4581348381226688    
  0.45809060828800346    0.3854772244646527    0.27669704862991185    0.1775931259912332    0.11015584326497818    
  0.07185372969773601    0.05257836820654305    0.04476022858880353    0.05593277473414965    0.05144445282883184    
  0.055934375022117996    0.07184985713425876    0.10622556239349959    0.17013188837639512    0.2700620530469531    
  0.38193874830017943    0.4544197780691322    0.473985388370381    0.45461229459449054    0.3818848510105982    
  0.26993102442091665    0.1701878707715066    0.10622807098345012    0.07185373679226596    0.05593277473414965    
  0.07983825244714343    0.06765547152724459    0.0676754700765474    0.07981413183602824    0.11019195712212222    
  0.17014643934426235    0.26836004301562993    0.3709191419090498    0.3939270454824192    0.3534191866678894    
  0.35330543376790025    0.39395378620735466    0.3711277003213867    0.2682690590397834    0.1701878473006995    
  0.11015581636730996    0.07983825244714343    0.1245056180956654    0.09976031845518009    0.09256163613196247    
  0.09976265197883022    0.12449194339456436    0.17760408183554918    0.269923446401854    0.37110438310471394    
  0.35617775833837534    0.2295810373173605    0.16918175884773384    0.22958092620141254    0.3561500316822926    
  0.3711277161485921    0.26993096834858255    0.17759307602385904    0.1245056180956654    0.19744609973270405    
  0.15558260306872373    0.13839844838091403    0.1384193624761269    0.15557459290096592    0.1974681356865038    
  0.2766498377908857    0.38191430751024164    0.3940132890280413    0.22952911552789407    0.10391550031091797    
  0.10398470436075644    0.2295809533227249    0.3939538180500371    0.38188487705493473    0.27669704958227154    
  0.19744609973270405    0.2942916644910151    0.2380074143248967    0.2115017648961238    0.20359999827628578    
  0.2114906485275867    0.2380212448711629    0.294321281585033    0.3854809151586323    0.4546188328981566    
  0.3531534717797751    0.1693458660035814    0.10391553870841576    0.16918173733888364    0.35330552909922897    
  0.4546123300821572    0.3854771868046104    0.2942916644910151    0.3846986858128142    0.33169793234314904    
  0.3038505431181285    0.29165745323635345    0.29163410422638647    0.30387861889412915    0.33164916968730523    
  0.38476710816137344    0.4581023770709912    0.47420245169022385    0.3531534005699058    0.22952909410846173    
  0.2295810609696824    0.3534191728734685    0.4739853392565303    0.4580904995287439    0.3846986858128142    
  0.42266317051384833    0.3970144626674453    0.3845514813229166    0.37282383510556366    0.36622908871665816    
  0.3728687922847832    0.38458009443723895    0.3970314474993903    0.42262037041361705    0.45810235046460906    
  0.45461876058710937    0.39401321591130056    0.3561777079750922    0.3939269867782119    0.45441971001721115    
  0.45813478357984766    0.42266317051384833    0.3847061992390246    0.396970846024788    0.41649843381062196    
  0.41494818154283336    0.39563993354639254    0.3956521618913238    0.41489717573145773    0.4165407107128348    
  0.3970314642413109    0.38476707254259146    0.38548088575214207    0.38191430845187047    0.3711044287237579    
  0.3709190571855833    0.38193874096195557    0.3856307605084619    0.3847061992390246    0.29415063196380753    
  0.3316934390928116    0.3845857713159582    0.41493652462025354    0.3958077276736587    0.3755118540954026    
  0.39581540685511657    0.41489715040448943    0.38458012374341516    0.33164920217910837    0.29432129735758716    
  0.276649849931757    0.26992341733747244    0.26836007949346985    0.27006203498654086    0.2766424819098468    
  0.29415063196380753    0.19746663413510143    0.2381447102528124    0.30384719750220435    0.3728301701282625    
  0.39563689679577324    0.3755044940065485    0.3755116548153291    0.39565215070032034    0.3728687212278392    
  0.30387860841085784    0.23802120099166593    0.19746812158227162    0.17760408769190175    0.17014644303100673    
  0.17013184376566334    0.1775107859778835    0.19746663413510143    0.12456461570536081    0.15556978210519648    
  0.21138412890101974    0.29165290751007383    0.3662896717083409    0.39563699800972607    0.3958076960840976    
  0.3956398827316378    0.3662290743322959    0.29163416349971344    0.21149063211109256    0.15557455477546767    
  0.12449191323268331    0.11019196341300762    0.10622553096061198    0.11018698369691289    0.12456461570536081    
  0.07982330156565755    0.09969988116141294    0.13841942550628195    0.20370107491091624    0.29165296240907157    
  0.37283021861400817    0.4149364409136493    0.41494819947795225    0.37282387324347926    0.29165752371033177    
  0.20360000881871648    0.1384193914873357    0.09976267114897144    0.07981416303866454    0.07184983407079487    
  0.07185008361716193    0.07982330156565755    0.05593203208543717    0.06766816489507324    0.09261605824584691    
  0.1384194076951896    0.21138411325854808    0.3038471479816788    0.3845857307906541    0.41649835246420885    
  0.3845515127028381    0.3038504810942205    0.21150174166666386    0.1383984579162597    0.09256164362188876    
  0.06767547375730444    0.05593437539607615    0.05257958168208717    0.05593203208543717    0.04475973559204918    
  0.051445156406206914    0.06766818566363024    0.09969984566587892    0.1555697850613477    0.23814472345362617    
  0.3316934061759919    0.39697081408866475    0.39701444406441894    0.3316979109066433    0.23800733732578574    
  0.15558260626224057    0.09976033977968957    0.06765548370683717    0.051444466762841826    0.04475879040997396    
  0.04475973559204918    0.04148576046981712    0.04475972317701032    0.05593202880298542    0.07982327379072733    
  0.12456462308433179    0.1974666124104911    0.2941505390955433    0.38470617458272677    0.4226631172436737    
  0.384698592664025    0.2942916434986052    0.19744604062324486    0.12450561014230467    0.0798382374713068    
  0.05593277107642288    0.04476020840190054    0.04148576046981712    0.04030526623032938    0.04316786798326847    
  0.052875078701130514    0.0733165753472532    0.11082375716317946    0.17068120855031726    0.2483490812305275    
  0.3197532584776159    0.3493999925272251    0.319750740298927    0.24850968064814477    0.1706565454874677    
  0.11075563980369696    0.0733350120650788    0.052875710893768156    0.04316862202785572    0.04030526623032938    
  0.04316864081276752    0.043166888343971734    0.0504488063875512    0.06833899636549265    0.10352478592009264    
  0.1643512818677519    0.25213101804599736    0.3461411438967856    0.4070626672426983    0.40702091650356104    
  0.3459694316136375    0.25216965668606006    0.16444735346098757    0.10349640318971515    0.06834182873600547    
  0.05044718549115785    0.04316864081276752    0.052875722743527497    0.048515833429037696    0.05287739501809454    
  0.0683365555439124    0.10172993040581171    0.16346345044512947    0.2584192442248783    0.3606645838735312    
  0.42094064871322795    0.43456597589016116    0.42114214153617774    0.36061952991996504    0.25828920734673    
  0.16352057359056346    0.10172712464089297    0.06834183644591356    0.052875722743527497    0.07333501321198474    
  0.06125579762924322    0.06127734409179878    0.07330883875385194    0.10352994298238022    0.1634721719747942    
  0.2609858700151051    0.3580446515662504    0.3681348395440097    0.31777189157160474    0.31765863405144845    
  0.3681613278149865    0.358274048989587    0.2608685229443225    0.16352054884326095    0.1034963674138256    
  0.07333501321198474    0.11075566418336423    0.08600763501186617    0.07883594739169084    0.08601062581902291    
  0.11074879400856244    0.16445683075046735    0.25826691311687544    0.358243497197359    0.33168866578089334    
  0.197079491359869    0.1377006274067336    0.19708199637771076    0.3316425751630485    0.3582740444485338    
  0.2582891949848804    0.16444730405895708    0.11075566418336423    0.17065658314560125    0.12801869932532275    
  0.11064068163178323    0.11065785122791062    0.12800189897264466    0.17067892651459068    0.25213680117345716    
  0.3606425811108944    0.3682213391487229    0.19701843539891659    0.0785035963931005    0.07856543814240344    
  0.19708199084762423    0.36816131029139754    0.3606195247591854    0.2521696710385655    0.17065658314560125    
  0.24850974287196623    0.18868018328984387    0.16047591314421714    0.15209782724740403    0.16047426529688003    
  0.18869213531210466    0.24851541477243055    0.345983398449949    0.4211497288274245    0.3175059178106974    
  0.13786159023412148    0.07850366323636211    0.13770060688409014    0.3176587270157713    0.4211421291688445    
  0.3459694517177715    0.24850974287196623    0.31975083879578947    0.2564385394658566    0.22332388647273516    
  0.20999356134378241    0.20995755396663848    0.22336224737962435    0.25640153345720623    0.3198062185686249    
  0.4070238663988139    0.4347818374836756    0.3175058064375135    0.19701842542260314    0.1970794970830988    
  0.3177718953934458    0.4345659420151675    0.40702080504836446    0.31975083879578947    0.3494000012852891    
  0.30322639549194397    0.2796951674722759    0.2701930124486934    0.26767246983716586    0.2702105560593193    
  0.27969784502317957    0.30324872915582823    0.34936255363153923    0.4070238731744075    0.42114957270303177    
  0.3682213288749479    0.3316886373937066    0.3681348427603055    0.42094061481576844    0.4070626202214502    
  0.3494000012852891    0.31975335182550096    0.30319422980459476    0.3027850631427459    0.308793462764315    
  0.31215834061792175    0.31216960116578707    0.3087881204699501    0.3027964580404968    0.30324867642087333    
  0.319806231951419    0.34598335424129684    0.3606425923762605    0.35824355870251107    0.3580446194418563    
  0.360664598462406    0.3461411002519547    0.31975335182550096    0.2483491096606898    0.2564402892469671    
  0.279717999447232    0.3087934623392152    0.3276501901743404    0.3325569306564068    0.3276395216643093    
  0.3087881343791638    0.2796978159719914    0.25640154575343505    0.24851545275800904    0.25213685870667635    
  0.2582669215789785    0.26098598501438763    0.25841922971387205    0.2521310656353661    0.2483491096606898    
  0.17068120821023242    0.18880800248779256    0.22333144784607384    0.27017779921570817    0.31215985179715205    
  0.33254548347930546    0.33255680453519804    0.3121695649052144    0.27021047780364005    0.22336225427442324    
  0.188692091359534    0.17067890461231908    0.16445681736551493    0.16347220617666974    0.16346340457277006    
  0.1643512332530253    0.17068120821023242    0.11082374038040736    0.128001224149505    0.16036761063498403    
  0.20997795885725826    0.26771442834149173    0.312159849052145    0.32765017689792286    0.3121583325737614    
  0.2676724365251491    0.20995758503202436    0.16047427536717715    0.12800187029058627    0.11074875043119142    
  0.10352994535626353    0.10172989810049264    0.10352474580375137    0.11082374038040736    0.07331660469597771    
  0.0859467348052274    0.11065354600018476    0.15220234195356505    0.20997800401314776    0.27017791044918116    
  0.3087934547803695    0.30879347205889485    0.2701929984498321    0.20999363024349652    0.15209782402750002    
  0.11065787581354664    0.08601064788902944    0.07330885320135709    0.0683365369938291    0.06833899992406507    
  0.07331660469597771    0.0528750837916361    0.06126850796692849    0.07889412728530219    0.11065352081528669    
  0.1603676328494457    0.2233314255134811    0.2797179336187109    0.30278501383099093    0.2796951816803497    
  0.22332385282688727    0.1604758640526949    0.11064070054244855    0.07883595183490537    0.061277338978114965    
  0.052877394350428174    0.05044878871361283    0.0528750837916361    0.043167886101744025    0.04851654549830852    
  0.06126853196546797    0.08594672592403013    0.12800121006374524    0.18880800865719957    0.2564403097670327    
  0.30319422098497056    0.30322638894407794    0.2564384918317518    0.18868014396559354    0.128018681948269    
  0.08600763797819684    0.0612558115624699    0.04851584548516038    0.04316687666363455    0.043167886101744025    
  0.04030526623032938    0.04316786798326847    0.052875078701130514    0.0733165753472532    0.11082375716317946    
  0.17068120855031726    0.2483490812305275    0.3197532584776159    0.3493999925272251    0.319750740298927    
  0.24850968064814477    0.1706565454874677    0.11075563980369696    0.0733350120650788    0.052875710893768156    
  0.04316862202785572    0.04030526623032938    0.03864676973480126    0.04092688645202886    0.048658095820192884    
  0.06469597587882427    0.09327723695226464    0.1374223899501577    0.1931160119635063    0.24328732268378447    
  0.26389898352243674    0.24330109781799797    0.1932114780084525    0.1374004133449289    0.09324070849028775    
  0.06470852137333352    0.04865768742794474    0.04092782941420126    0.03864676973480126    0.04092784523978149    
  0.040926858124814114    0.04711754241141158    0.06219369643587826    0.09138148820046522    0.14072579909750643    
  0.21046777707167888    0.2846028883868647    0.3328236931656916    0.33278427361536944    0.2844952032353422    
  0.21050000904101301    0.14078378224449525    0.0913633884656082    0.062196618208808244    0.04711624996031172    
  0.04092784523978149    0.04865770671194538    0.044803131261384244    0.04865823380719218    0.062192796558811485    
  0.09113950226736774    0.14431122420129447    0.22621965670794847    0.3182239468302126    0.38005665083706724    
  0.3977411300356313    0.38018834218686876    0.31819018750367706    0.22615042701752197    0.1443475781377836    
  0.09113725181408397    0.06219663647072535    0.04865770671194538    0.06470853186837902    0.05397246011325338    
  0.05398520983203552    0.06469291536791924    0.09138235581241523    0.14431530431441966    0.23219524038376316    
  0.3311268236047664    0.3726642123133987    0.35420384601579497    0.3541212260927904    0.3727114464558939    
  0.3312623959262528    0.23212117523021938    0.14434758917214463    0.0913633629894033    0.06470853186837902    
  0.09324071483530165    0.0713663587518578    0.06508007377115037    0.07136928616023701    0.09323460236816931    
  0.14079308401135446    0.2261267797398681    0.33125154907358434    0.35570251719399293    0.2710010693785768    
  0.22008368899159556    0.27099223849820464    0.3556967920261241    0.3312623592896622    0.22615038032316787    
  0.1407837450360944    0.09324071483530165    0.1374004808735992    0.09997965837164445    0.08484368425276069    
  0.08485595258385943    0.09996581895784414    0.13741821912717736    0.21047747846347387    0.318200685903571    
  0.3727362326979224    0.27096467946542957    0.1587757356006928    0.1588459070473112    0.2709922254764054    
  0.3727114418876714    0.3181901665343549    0.21049999286245866    0.1374004808735992    0.1932115138842206    
  0.14001677108683863    0.11507773781129432    0.1077920805935198    0.11507721519180182    0.14002288174221542    
  0.19321343587132328    0.28450443295482636    0.3802131620319173    0.35398318210094265    0.22022677904773097    
  0.15877579330035813    0.22008370523235102    0.35412129794520547    0.3801883372943314    0.28449522324691673    
  0.1932115138842206    0.24330117485271482    0.18343002711802314    0.15226046975506394    0.13971559896527497    
  0.13969639817493462    0.1522848386093235    0.18340941379378206    0.24333462385679805    0.3327774527613014    
  0.39790112123733423    0.3539830752718011    0.2709646675448747    0.2710010232344747    0.3542038220579148    
  0.3977410980481652    0.3327841805036607    0.24330117485271482    0.26389905153524323    0.2127985069687903    
  0.1850882821667313    0.1732665826996213    0.1703207185576971    0.1732716802317368    0.18508949218154475    
  0.2128099365297241    0.2638891191236038    0.332777417142413    0.38021307882638145    0.3727362464010952    
  0.3557023953535504    0.3726641968322457    0.3800566983484796    0.3328237155147232    0.26389905153524323    
  0.24328737906467376    0.2127877117620662    0.19851324021358288    0.19562426421299708    0.19680028666162708    
  0.19680730914022213    0.195620794910696    0.19852454989704574    0.21280995246275963    0.24333462079610046    
  0.28450443150158555    0.31820065693567384    0.33125164844879035    0.3311267732895917    0.3182239437163745    
  0.28460285214751435    0.24328737906467376    0.19311604473140956    0.18343505431694745    0.18509998440219746    
  0.1956204208682681    0.2072812234419771    0.21214044992356884    0.20728145889949268    0.19562079210635575    
  0.18508951948189148    0.1834094000695826    0.19321347295267505    0.2104774854618828    0.22612681431392365    
  0.23219529745065506    0.2262196583369356    0.21046781372971937    0.19311604473140956    0.13742236019941287    
  0.14008703084251517    0.1522618289538668    0.17325910680450235    0.19680184018234687    0.21214394499452233    
  0.212140401375931    0.19680729064781594    0.17327165229390512    0.15228482032310206    0.14002283918537797    
  0.13741819461680174    0.14079302869237093    0.1443153094339647    0.14431117937004234    0.14072575750872782    
  0.13742236019941287    0.09327723476514223    0.09996613641272917    0.11501708894450874    0.13970911531775038    
  0.17033432897755524    0.19680186308358263    0.20728118992099412    0.1968002778874596    0.17032074465806343    
  0.13969643334942408    0.11507719948768846    0.09996579520748027    0.0932345620881584    0.09138233957096185    
  0.09113946659616642    0.0913814504450404    0.09327723476514223    0.06469600606500205    0.07133332471189531    
  0.08485128748834407    0.10785064159726275    0.13970913354235423    0.17325917282743977    0.1956204122626644    
  0.19562428003384705    0.17326660077371364    0.13971565558417898    0.10779205635217953    0.08485598988361437    
  0.07136931087333093    0.06469295033154134    0.062192773055240576    0.06219370786649323    0.06469600606500205    
  0.04865810509201087    0.05397941004829805    0.06511350261652528    0.08485127103054076    0.11501710668176807    
  0.15226180540631182    0.18509995183070432    0.198513242523152    0.18508828488026474    0.1522604456119701    
  0.11507770182172354    0.0848436744429255    0.06508007603411252    0.05398520066303345    0.048658223880288835    
  0.04711751434761393    0.04865810509201087    0.0409269083402918    0.044803347868558815    0.05397943279149512    
  0.07133330275449466    0.09996619409318284    0.14008702582361907    0.18343505422871637    0.21278769849705415    
  0.2127984904993133    0.18343000794588435    0.14001671943471472    0.09997964906973633    0.07136636420689794    
  0.053972468677136225    0.04480313532791709    0.040926843277059546    0.0409269083402918    0.03864676973480126    
  0.04092688645202886    0.048658095820192884    0.06469597587882427    0.09327723695226464    0.1374223899501577    
  0.1931160119635063    0.24328732268378447    0.26389898352243674    0.24330109781799797    0.1932114780084525    
  0.1374004133449289    0.09324070849028775    0.06470852137333352    0.04865768742794474    0.04092782941420126    
  0.03864676973480126    0.036793389012779426    0.038518435606454265    0.04430042523868673    0.05604343017283547    
  0.07640877147495813    0.10688420852709597    0.14412404171968132    0.17688877575164985    0.1902091573299898    
  0.17690340024248474    0.14414949106201663    0.10687490449771102    0.07640230621830697    0.05604809168033486    
  0.0442997007084641    0.038519188500584015    0.036793389012779426    0.038519204844724785    0.038518139638312535    
  0.043483488819179565    0.055317560042579546    0.07778400278416486    0.11492113544198802    0.16637133865502307    
  0.22106214848728403    0.257346326128596    0.257327387207549    0.22103634972124564    0.1663863452532322    
  0.11493732508596788    0.07777820962734862    0.05532020020308497    0.04348266095453528    0.038519204844724785    
  0.04429971142530995    0.04111393857751937    0.044300242231130674    0.055317936188046854    0.07852448554988764    
  0.12067050366608996    0.18587079941519    0.2640360471919625    0.32658644451875485    0.34919114421682546    
  0.3266143970609029    0.26402768066584936    0.18586090872596706    0.12068449990603981    0.07852329678038114    
  0.05532020853670686    0.04429971142530995    0.05604809267501765    0.0472545177533707    0.04725783758734196    
  0.05604283332023754    0.07778268759413431    0.12067158984607311    0.19347798079216277    0.2886719804942094    
  0.3663383854237553    0.3961280177140641    0.3961139240960179    0.36638546023356905    0.28870321686959927    
  0.19345731758013648    0.12068450423816114    0.07777818260601342    0.05604809267501765    0.07640232231345141    
  0.058628748766799084    0.053593209033034446    0.05863065413785439    0.07639927957068313    0.11494269748891256    
  0.18584733289861213    0.2887032833324601    0.3750800880725514    0.38978896857412054    0.3775839102519205    
  0.38978034320663146    0.37510821999440347    0.28870318580087045    0.18586088426460545    0.11493727662507879    
  0.07640232231345141    0.10687494792932672    0.07684394737327674    0.06481255045264232    0.0648168659006897    