#     DFTpy    
  CRYSTAL 
    
  PRIMVEC    
  1.780161843232758    -3.0833307581745997    0.0    
  1.780161843232758    3.0833307581745997    0.0    
  0.0    0.0    3.350840102275861    
  PRIMCOORD    
  1    1    
  Si    0.0    0.0    0.0    
  BEGIN_BLOCK_DATAGRID_3D    
  3d_datagrid_density    
  BEGIN_DATAGRID_3D#0    
  17    17    15    
  0.0    0.0    0.0    
  1.780161843232758    -3.0833307581745997    0.0    
  1.780161843232758    3.0833307581745997    0.0    
  0.0    0.0    3.350840102275861    
  0.09039251125606791    0.14825406064262373    0.33305411572542515    0.4681729173242119    0.37557490423174283    
  0.21981780275133903    0.12001672837864195    0.07420064057691438    0.06145988463246225    0.07420064538714623    
  0.12001671646978569    0.21981778608648508    0.37557491278559174    0.46817289735602097    0.3330541119877477    
  0.1482540684559388    0.09039251125606791    0.14825407728525103    0.14826859136726872    0.275330642679006    
  0.4456209165270195    0.4320814184477643    0.28032451285977356    0.15454364568480244    0.08838584212532376    
  0.06243940255468908    0.062437443839923196    0.08838810713947025    0.15453982835539973    0.28033256405488016    
  0.432084547670653    0.4455667226226123    0.27538008169595585    0.14825407728525103    0.33305413109687726    
  0.2753306416667601    0.3330755809832858    0.4456054677593893    0.44738565406087966    0.31603078468407286    
  0.18217165744911296    0.10183165614949344    0.06478249193744555    0.05436713544880513    0.06478345548277449    
  0.10182979937416796    0.18217571713983596    0.3160071655072064    0.4474563941758637    0.44556676632524755    
  0.33305413109687726    0.46817291795831356    0.4456209471602326    0.445605447333747    0.4681594611142897    
  0.43205903187581773    0.3160556453484472    0.19282868325874994    0.11023046962756335    0.06711650962028573    
  0.0497386603304352    0.04973333345224833    0.06712248952992554    0.11022260235005965    0.19284856000799303    
  0.31600712399198827    0.432084512892929    0.46817291795831356    0.37557489922245535    0.43208140475912443    
  0.4473856349296236    0.432058987847513    0.3755972294405353    0.28034747936152127    0.1821478087824117    
  0.11022969610126275    0.06809448961303938    0.0477130642296495    0.041787037288381464    0.04771289829484539    
  0.06809503708831859    0.11022261983841142    0.18217569632838757    0.2803325834534869    0.37557489922245535    
  0.21981777006217043    0.2803245263077176    0.3160307667505039    0.31605567332973117    0.280347457409287    
  0.21978709238986907    0.1545346947812306    0.10184836820140908    0.06711863393849042    0.04771271326660521    
  0.03934996611368735    0.03934987128839704    0.04771289083778973    0.06712250285295812    0.10182977683575901    
  0.15453984269079515    0.21981777006217043    0.12001672224892171    0.15454364221293984    0.18217166000370788    
  0.1928286805956618    0.1821478169917319    0.15453470919836773    0.12004017745137525    0.08839037933343744    
  0.06476866014224428    0.04973637940840407    0.041787209841834455    0.039349969959872264    0.041787032546476865    
  0.049733335085154574    0.06478345547726974    0.0883881239276607    0.12001672224892171    0.07420064201155405    
  0.08838583829781371    0.10183165067097207    0.11023047648052774    0.1102296841496078    0.101848371439438    
  0.08839037969032316    0.07418116372166168    0.06243790549232836    0.05437978277416973    0.049736376289614824    
  0.04771271020190057    0.04771305294562948    0.04973866531981774    0.0543671299465394    0.062437438151574626    
  0.07420064201155405    0.06145989922897648    0.062439415940413634    0.06478249288188873    0.06711650169570683    
  0.06809448985232333    0.06711863529573942    0.06476866504254358    0.062437900958279745    0.06147701438402249    
  0.062437903135921506    0.06476866228025638    0.06711864303401419    0.06809448609092068    0.06711651262589223    
  0.06478248361608405    0.06243941020350164    0.06145989922897648    0.07420063426910652    0.06243744010603956    
  0.05436712953413502    0.049738664414562164    0.04771305734908033    0.04771271142521427    0.04973637680100203    
  0.0543797782471751    0.06243789401973297    0.07418117137640272    0.0883903780951757    0.10184837123497757    
  0.11022969425293905    0.11023047669230028    0.10183164965340458    0.08838583404544352    0.07420063426910652    
  0.1200167208713104    0.08838810730844172    0.06478346150257537    0.04973332891370543    0.04178703384319175    
  0.03934997217801865    0.04178720224871598    0.04973638427056963    0.06476866967403201    0.08839038709449838    
  0.12004017248599685    0.15453470751966228    0.18214780394896918    0.19282868580217355    0.18217166578667754    
  0.15454365484481597    0.1200167208713104    0.21981775515544455    0.15453983616173084    0.10182978408449066    
  0.06712249779334088    0.04771288893860567    0.03934987629555798    0.03934996778651061    0.047712708437031945    
  0.06711863365117575    0.10184837224163165    0.1545346974701831    0.2197870921604726    0.28034746782228914    
  0.3160556598321402    0.31603071666529153    0.28032451658738394    0.21981775515544455    0.3755748815265959    
  0.28033257755163565    0.18217570237790243    0.11022260788564507    0.06809504204700001    0.04771289673912333    
  0.04178703856711951    0.047713058334226115    0.06809449002938275    0.11022969814711571    0.1821478083136514    
  0.28034750281196563    0.3755972030324336    0.432059016746538    0.44738566217865805    0.4320814276663463    
  0.3755748815265959    0.4681729411816233    0.4320845753698003    0.31600715454298267    0.1928485614978107    
  0.11022259297555857    0.06712249527331181    0.0497333259365234    0.04973865791398272    0.0671165005629415    
  0.11023048262740469    0.19282866572585855    0.3160556579914145    0.43205902218328623    0.46815941519752474    
  0.4456054367844353    0.44562093600774805    0.4681729411816233    0.3330540947800574    0.44556674380439865    
  0.44745635387528265    0.3160071813236198    0.182175703498258    0.1018297838595217    0.06478346093230547    
  0.054367128877201715    0.0647824837758607    0.10183166536608598    0.18217166763722528    0.3160307773150168    
  0.4473856539838981    0.44560544313106404    0.33307560107728595    0.2753306433655997    0.3330540947800574    
  0.1482540813214992    0.27538008679009746    0.4455667264726613    0.4320845334112765    0.28033258261766203    
  0.15453982334969998    0.0883881134118131    0.06243743559371026    0.06243940786676583    0.08838585168631714    
  0.15454363187080347    0.2803245133093297    0.4320813657720833    0.445620937826551    0.27533064477336816    
  0.14826857891799047    0.1482540813214992    0.09039251125606791    0.14825406064262373    0.33305411572542515    
  0.4681729173242119    0.37557490423174283    0.21981780275133903    0.12001672837864195    0.07420064057691438    
  0.06145988463246225    0.07420064538714623    0.12001671646978569    0.21981778608648508    0.37557491278559174    
  0.46817289735602097    0.3330541119877477    0.1482540684559388    0.09039251125606791    0.15680960861727394    
  0.2208863254315587    0.3870318826168121    0.4655823972680387    0.35234513357935104    0.20472072577537295    
  0.11282739348974517    0.07053469004476355    0.05870432116358009    0.07053469465630481    0.11282738257954932    
  0.20472074575033014    0.35234516065306154    0.4655823813694409    0.38703189908701197    0.22088630700661246    
  0.15680960861727394    0.2208863358007432    0.22086461489596101    0.3400210817065698    0.46216412478744623    
  0.4110864219935541    0.2609185067672223    0.14456371472432172    0.08364556894616772    0.059605988566810146    
  0.059603165722869916    0.08364969344857205    0.1445573384307294    0.2609295538101388    0.4110817063934701    
  0.4621315766830152    0.34004339056401556    0.2208863358007432    0.3870318490342219    0.34002109194099756    
  0.3870847624329302    0.4621374582323725    0.4288102176878268    0.29450333412387775    0.1699374317882128    
  0.09604427761664393    0.061774618023070896    0.052092727102734306    0.06177395336797019    0.09604469941882054    
  0.16993747109105933    0.2944911561402626    0.4288531465539816    0.4621316118805561    0.3870318490342219    
  0.465582418515689    0.4621640994893707    0.46213743396024115    0.4655566827657845    0.41107069784861183    
  0.29452702778734835    0.17974276635355127    0.10380229252339498    0.06396326222330079    0.04779340187999653    
  0.047789899791933654    0.06396808184508986    0.10379601643454635    0.17975824312788574    0.29449112994680954    
  0.41108168808393664    0.465582418515689    0.3523451248845158    0.4110864210373296    0.4288102295526321    
  0.4110706817476321    0.35237841599551106    0.26093247997269703    0.1699184159664935    0.10380117025981839    
  0.06488781557147685    0.045921601052843444    0.040383194429151184    0.04592127374115523    0.06488808981747982    
  0.1037960500367689    0.16993746370433863    0.2609295885926238    0.3523451248845158    0.20472070660072564    
  0.2609185218241116    0.29450332397924084    0.29452704566446997    0.260932461371974    0.20468915448293581    
  0.14455611280437294    0.09605888597547949    0.06396403908835968    0.045921884618332555    0.03810685050992105    
  0.03810721694800245    0.04592126752942087    0.0639680897191274    0.0960446777413771    0.14455734305478468    
  0.20472070660072564    0.11282738782653999    0.14456371674423052    0.16993745438994196    0.1797427655481344    
  0.16991842898362755    0.14455612468354403    0.11285355047425977    0.08364826470613528    0.061764101517543    
  0.047792240882027395    0.04038274397376958    0.03810685280102877    0.040383188403011964    0.047789900369663796    
  0.06177396034368183    0.08364970133598154    0.11282738782653999    0.07053469308265768    0.0836455671742319    
  0.09604428427204187    0.10380229569145791    0.1038011584265134    0.09605888838246436    0.08364826240776567    
  0.07051474222101019    0.05960470504213431    0.05210137824779316    0.047792235163460435    0.045921883256537455    
  0.04592159537718212    0.04779339946320533    0.052092718713856914    0.05960315546374814    0.07053469308265768    
  0.058704332928675856    0.05960599642919007    0.061774625661610856    0.063963266000523    0.06488781764712773    
  0.06396404654855131    0.06176410272023442    0.059604698945431106    0.05872186634017558    0.059604705739751164    
  0.06176410807426861    0.06396405633935172    0.064887814071706    0.0639632726383246    0.061774620951055924    
  0.05960599629281642    0.058704332928675856    0.07053468063353122    0.05960315710598309    0.05209271656104744    
  0.047793402737982146    0.045921600893069    0.04592188292566355    0.0477922381348696    0.05210136877945548    
  0.05960468977412393    0.07051474993261966    0.08364826783357633    0.09605888240270925    0.1038011592803635    
  0.10380229913321283    0.09604427823683719    0.0836455619442506    0.07053468063353122    0.11282739427963297    
  0.0836496873471981    0.06177396145006682    0.04778989464932952    0.040383196042261454    0.03810685536354612    
  0.04038273636386166    0.047792244479737886    0.06176410320388007    0.08364826868204987    0.11285355471839063    
  0.14455612819542182    0.16991841622886084    0.17974277166614375    0.16993744912798373    0.1445637306055241    
  0.11282739427963297    0.2047207030163692    0.14455734096881062    0.09604468233004282    0.06396808816618033    
  0.04592126500601657    0.03810722668039553    0.03810685111858084    0.045921873410530695    0.06396404338609976    
  0.09605888722083862    0.1445561116311047    0.20468914078249317    0.2609324811048515    0.29452706271897117    
  0.2945032992559208    0.26091851982987196    0.2047207030163692    0.35234511295922394    0.26092955980032706    
  0.16993745077757358    0.10379602756452223    0.06488808219489833    0.04592127286734681    0.04038319208681833    
  0.04592159824771879    0.06488781072972638    0.1038011635245908    0.1699184203748511    0.2609324933097797    
  0.35237839641579394    0.41107068809056163    0.4288102307963734    0.41108643070900985    0.35234511295922394    
  0.46558241514149645    0.41108168800884665    0.2944911614231653    0.1797582468612069    0.10379601913636954    
  0.06396808624499423    0.047789898755408906    0.047793395327377135    0.06396325331044025    0.10380229623831799    
  0.17974275844815837    0.29452703871064184    0.41107068216486714    0.465556675392048    0.46213743278918396    
  0.4621641083207597    0.46558241514149645    0.38703182095946637    0.46213162407529573    0.4288531418844312    
  0.2944911544334873    0.169937454316609    0.09604468360863577    0.061773963516641064    0.05209272099692177    
  0.06177461221245852    0.09604429322760798    0.16993745440165825    0.29450331988363193    0.4288102312236884    
  0.4621374420781523    0.3870847652659831    0.34002111711979904    0.38703182095946637    0.22088633582671968    
  0.34004340394249555    0.46213154108567706    0.41108168671779943    0.26092954995166995    0.14455733277015292    
  0.08364968953355531    0.05960315797540336    0.05960599477657893    0.0836455708777339    0.14456370808062494    
  0.260918527503389    0.41108640427313087    0.46216411160529675    0.34002107234397166    0.22086461849384112    
  0.22088633582671968    0.15680960861727394    0.2208863254315587    0.3870318826168121    0.4655823972680387    
  0.35234513357935104    0.20472072577537295    0.11282739348974517    0.07053469004476355    0.05870432116358009    
  0.07053469465630481    0.11282738257954932    0.20472074575033014    0.35234516065306154    0.4655823813694409    
  0.38703189908701197    0.22088630700661246    0.15680960861727394    0.3571021613973207    0.39943314376819056    
  0.46119150162284256    0.4184195227998524    0.2857393102878995    0.16558880157689246    0.09428684717704754    
  0.06103685273461709    0.051609401697520936    0.06103685717229383    0.09428683979071698    0.16558880230770393    
  0.2857393253157691    0.4184195057154714    0.4611915556772564    0.39943310411682253    0.3571021613973207    
  0.39943314647555817    0.3993960730496353    0.45072058526061926    0.44863184713642007    0.3413076405062731    
  0.20980163095348564    0.11892867654974824    0.07141187089207555    0.05231259176464099    0.05231199093264837    
  0.07141253277184714    0.11892716141182243    0.20980479060810872    0.34130437533240815    0.4486224856182253    
  0.4507234365529359    0.39943314647555817    0.4611914670157765    0.4507205831936978    0.4612376884830006    
  0.44861598563402877    0.3607791961641085    0.236867502848851    0.13859464402908253    0.08116240395325552    
  0.054026689214186525    0.046255323723745655    0.05402647300363498    0.08116342247970286    0.1385931808243076    
  0.2368675649787195    0.3607893848488306    0.4486225208261815    0.4611914670157765    0.41841952413173156    
  0.44863186477824213    0.44861596429023093    0.4183955812529615    0.3413044445696312    0.23687848071972054    
  0.14620912524465837    0.08724593284244647    0.05576960268391597    0.04275015265237223    0.04274935860898008    
  0.055770362048961526    0.08724448475131409    0.14621227257270436    0.2368675440498882    0.34130436679880954    
  0.41841952413173156    0.28573930604759146    0.34130763373183987    0.3607792006535213    0.34130444902446583    
  0.28576215482349415    0.20980225409069106    0.13858739464974693    0.08724489882299462    0.056500466599510614    
  0.04120644450548104    0.036688908254756625    0.041206584943560345    0.05650046853950183    0.08724450750857558    
  0.13859317013961997    0.2098048030034097    0.28573930604759146    0.16558877467819041    0.20980163936008592    
  0.23686750313054244    0.23687848530977987    0.2098022418529266    0.16557201387641485    0.1189284006018253    
  0.08116868418281654    0.055769301040443815    0.041207229176527596    0.034810113499604105    0.03481061480990924    
  0.04120657610917853    0.055770381488669966    0.08116340792435749    0.11892716682911204    0.16558877467819041    
  0.09428683763424558    0.11892868844644781    0.13859464587940204    0.14620911981152654    0.13858739050081417    
  0.11892839986476773    0.09429981023259286    0.07141042555532767    0.05402335708429191    0.042749357365002766    
  0.03668903419511954    0.034810118000278285    0.036688900615013495    0.04274936150408403    0.05402646981110445    
  0.07141254341956477    0.09428683763424558    0.06103684988001341    0.07141186299811293    0.08116239835325662    
  0.0872459426322025    0.08724489364817598    0.08116868127280917    0.07141042780835323    0.06102858425768444    
  0.05231231855888268    0.0462590175665198    0.0427493518470418    0.04120722127970835    0.041206439437708645    
  0.04275015059298127    0.04625531119640565    0.05231198154620695    0.06103684988001341    0.05160941280524856    
  0.05231259679896005    0.05402669216191293    0.0557696054610634    0.05650046981334286    0.05576931274329622    
  0.05402336147660205    0.052312319050750906    0.05161731675598343    0.05231232081906745    0.05402336341266692    
  0.055769315708212856    0.05650046315529089    0.055769609585077214    0.05402668882162952    0.05231259677265187    
  0.05160941280524856    0.06103684510832792    0.05231198070943839    0.04625531303289082    0.04275014964204544    
  0.04120644834108965    0.04120721858081677    0.042749355634855005    0.046259013776922056    0.052312309020399954    
  0.06102859402429539    0.07141042093652217    0.08116868401352309    0.08724489242519504    0.08724594386971647    
  0.08116240253018958    0.07141186359592795    0.06103684510832792    0.09428684551874729    0.07141253686653518    
  0.05402647446199858    0.04274935502093424    0.03668890710567302    0.034810116403911455    0.036689028388488816    
  0.04274935690865684    0.054023361566642725    0.0714104306002645    0.09429980576474656    0.118928414996222    
  0.13858737749759825    0.14620912885451337    0.13859465211923913    0.11892868888214937    0.09428684551874729    
  0.16558878316086853    0.11892715762500715    0.0811634040218758    0.05577036569848415    0.0412065718225143    
  0.03481062334054771    0.0348101147604614    0.041207218006759014    0.05576930778529004    0.08116868554218609    
  0.11892840049863532    0.16557200171829822    0.2098022568383108    0.23687849395161262    0.2368674862254955    
  0.2098016455673679    0.16558878316086853    0.28573927778064256    0.2098048056175159    0.1385931706065004    
  0.08724449551681937    0.05650046399173134    0.04120658051306063    0.036688906414433314    0.04120645079480704    
  0.0565004650969784    0.08724489847904757    0.13858739132421882    0.20980225817934497    0.2857621379635536    
  0.341304484361866    0.360779176108191    0.34130765845190514    0.28573927778064256    0.41841953033341106    
  0.34130439317214134    0.23686757719370294    0.1462122603498505    0.08724448785985119    0.05577036195544247    
  0.042749354566452215    0.04275015194439694    0.055769602832464044    0.08724593771721094    0.14620911528110841    
  0.23687848028142106    0.34130445825367245    0.41839554373595406    0.4486159659857172    0.44863186530753096    
  0.41841953033341106    0.4611914658217611    0.4486225021264202    0.3607893765005271    0.23686757845723005    
  0.13859318479484065    0.08116340757221384    0.054026477123787824    0.04625531548316222    0.05402668431310794    
  0.08116241217630346    0.1385946505474243    0.2368674895763726    0.36077917995623365    0.4486159724424433    
  0.4612376929827915    0.45072062064347607    0.4611914658217611    0.3994331205131031    0.45072340384292375    
  0.44862248969141755    0.34130437873058955    0.20980477266140307    0.1189271596432401    0.07141252986188887    
  0.05231198335297951    0.0523125939926869    0.07141187498580574    0.11892867450766924    0.20980163060279125    
  0.34130762566422224    0.44863186746678324    0.450720599050621    0.3993960771151683    0.3994331205131031    
  0.3571021613973207    0.39943314376819056    0.46119150162284256    0.4184195227998524    0.2857393102878995    
  0.16558880157689246    0.09428684717704754    0.06103685273461709    0.051609401697520936    0.06103685717229383    
  0.09428683979071698    0.16558880230770393    0.2857393253157691    0.4184195057154714    0.4611915556772564    
  0.39943310411682253    0.3571021613973207    0.4494613244837994    0.44165226723119    0.39742744715475586    
  0.3039511583635503    0.1983379566480991    0.11859050880357663    0.07171033813679772    0.04915375877337656    
  0.04262012606753739    0.04915376288130695    0.07171033750638998    0.11859051121922548    0.19833798086048016    
  0.3039511419084526    0.39742747729010997    0.44165224059077696    0.4494613244837994    0.4416522588588072    
  0.4416435183246917    0.4145542058166565    0.34112734395878097    0.23828621519203338    0.1475072393753858    
  0.08807075802875453    0.056272426761839515    0.04309818011917005    0.04309770036254833    0.05627299110669306    
  0.08806998699517195    0.14750855085663842    0.23828546939392936    0.3411260614123376    0.4145530617685531    
  0.4416522588588072    0.39742743018885807    0.4145541739700472    0.3974357965843473    0.34112442636843954    
  0.253395907758055    0.16544024669624557    0.10101427719963291    0.06290109310298429    0.04427311692868873    
  0.03882261323550211    0.04427310580391384    0.06290110861011433    0.10101423661663798    0.16543901143794448    
  0.25339838413695137    0.34112609947060424    0.39742743018885807    0.30395117360113516    0.3411273381293709    
  0.34112442812033894    0.3039472009617023    0.2382858757548818    0.16544187079956826    0.10601202610465787    
  0.06699176869440683    0.04545059496447966    0.03628777573318228    0.03628706918953605    0.0454514085370563    
  0.06699074158123247    0.10601440176142443    0.16543901065341118    0.2382854741751608    0.30395117360113516    
  0.19833799330570123    0.23828624311728797    0.25339591162331077    0.23828590348229692    0.1983426302019301    
  0.147506189319363    0.1010137794837877    0.06699164137931679    0.045929521005464054    0.035128810445269214    
  0.03188732233073289    0.03512864075011117    0.04592976256985831    0.06699075792506191    0.1010142327365718    
  0.14750856028046697    0.19833799330570123    0.11859049498585386    0.14750724259702847    0.1654402391425475    
  0.16544187400168098    0.14750617116266795    0.11858795915918463    0.08807177472599607    0.0629007506537136    
  0.045451154727857795    0.03512870119093976    0.030500866935151714    0.030501207158388884    0.03512863172491504    
  0.045451423676044045    0.0629010865143791    0.0880699922397869    0.11859049498585386    0.07171032826415558    
  0.08807076220342766    0.10101429338340547    0.10601203648593803    0.10101377939408145    0.08807178696230249    
  0.07171110086054051    0.05627254913521036    0.04427325109208171    0.036286988354806864    0.03188778965974439    
  0.030500875163355295    0.031887316061981676    0.036287072270834136    0.04427311148731199    0.05627299913123845    
  0.07171032826415558    0.04915375532883603    0.05627241974754809    0.06290108284841348    0.0669917751087468    
  0.06699162759793303    0.06290074775700347    0.05627254986277884    0.04915309113431404    0.043097336682055544    
  0.03882341385737493    0.03628698048362627    0.03512869330018311    0.035128802865496286    0.0362877689817316    
  0.038822601683304876    0.04309769472667718    0.04915375532883603    0.042620136280448195    0.043098197540280256    
  0.04427311331570259    0.04545059320080664    0.04592953001610912    0.04545116104989026    0.044273262238163656    
  0.043097333855633184    0.042621906891751736    0.043097335975433734    0.04427325974838727    0.04545116687000508    
  0.04592952784790426    0.04545060235292605    0.0442731122120958    0.04309818958729975    0.042620136280448195    
  0.049153754298244264    0.043097691330487124    0.038822600277413695    0.036287769239898876    0.03512880691937623    
  0.03512869646949319    0.036286982124017764    0.03882340775549329    0.04309732231679401    0.04915310090441021    
  0.05627254403774321    0.06290074016802853    0.06699163296558708    0.06699177448168893    0.06290109091164872    
  0.05627242230517379    0.049153754298244264    0.07171033395146859    0.05627298455530713    0.044273113547410634    
  0.03628706412159874    0.031887326774905196    0.03050087096987344    0.03188778958034834    0.03628698454400899    
  0.04427326240932291    0.05627255297202711    0.07171109589146893    0.08807178957693523    0.10101377094457334    
  0.10601203221564384    0.1010142943251239    0.08807075773295255    0.07171033395146859    0.11859049746790842    
  0.08806999048270461    0.06290108721631378    0.045451416442113576    0.03512862826512158    0.03050121519011718    
  0.030500866100136068    0.03512869017773751    0.04545115828216445    0.06290075109137117    0.08807177231460665    
  0.11858794742520345    0.14750618548504466    0.16544188075715516    0.16544024161005172    0.1475072258229409    
  0.11859049746790842    0.198337953751115    0.1475085560592461    0.10101423376070197    0.0669907500264136    
  0.0459297581492533    0.03512863519436921    0.031887322854046364    0.03512880872795571    0.04592952756932972    
  0.06699163987510877    0.10101378040881961    0.14750618125888315    0.19834265216947874    0.23828587488105873    
  0.2533958930279663    0.23828623634423168    0.198337953751115    0.30395115039055326    0.23828546343444254    
  0.16543901053863558    0.10601439709448264    0.06699074550612534    0.0454514111207749    0.036287063783511854    
  0.036287769064459754    0.045450587951334075    0.06699178008180431    0.1060120186957773    0.16544187199527774    
  0.23828589643949336    0.3039471808222477    0.34112439550619045    0.3411273677357103    0.30395115039055326    
  0.3974274158437066    0.34112612073343823    0.2533983895278198    0.1654390137555578    0.10101424402856184    
  0.06290109130821316    0.04427311345311022    0.03882260404957742    0.04427311037792764    0.06290110314156394    
  0.10101429017893027    0.16544023647534645    0.2533958813457588    0.34112441319960096    0.3974358260695919    
  0.4145542165501306    0.3974274158437066    0.4416522165924131    0.41455306105967876    0.3411260698784061    
  0.2382854865759666    0.14750854348328757    0.08806998593470275    0.056272985414121714    0.04309769301972577    
  0.043098189401365526    0.05627243482601366    0.0880707483726901    0.14750724296317516    0.238286214466228    
  0.3411273461284152    0.41455418101558683    0.44164349252003354    0.4416522165924131    0.4494613244837994    
  0.44165226723119    0.39742744715475586    0.3039511583635503    0.1983379566480991    0.11859050880357663    
  0.07171033813679772    0.04915375877337656    0.04262012606753739    0.04915376288130695    0.07171033750638998    
  0.11859051121922548    0.19833798086048016    0.3039511419084526    0.39742747729010997    0.44165224059077696    
  0.4494613244837994    0.3139445878548496    0.29635839403221304    0.24792908167215832    0.18343002552897342    
  0.12300250725515875    0.078809242148586    0.051847499188163094    0.0382178271908798    0.03415575262329217    
  0.038217827012638844    0.05184750271240213    0.07880924798934053    0.12300253514874485    0.18342999932796036    
  0.24792910573976756    0.29635837651598296    0.3139445878548496    0.2963583824396825    0.2963583007582129    
  0.2633211869670086    0.20689845053773487    0.14531050606396    0.09493577569513238    0.06141263824354652    
  0.04257216278336002    0.034437852292615034    0.03443704852647106    0.04257280590216531    0.061412184297975715    
  0.09493546460841942    0.1453109874804128    0.20689811327349306    0.2633210866173359    0.2963583824396825    
  0.2479290766759439    0.26332118262296833    0.24792943734296696    0.2068970870362306    0.15393696992957584    
  0.10487152778999474    0.06882954903715385    0.04656916478565951    0.035148760269526645    0.03171119855991942    
  0.03514908416490515    0.04656870025518869    0.06883041714155674    0.10487168859248637    0.15393617770388587    
  0.2068981408119725    0.2479290766759439    0.18343000728690717    0.20689845558598002    0.20689707466109653    
  0.18343133016681687    0.14531099496155167    0.10487106158599174    0.07166757905990959    0.049011143473738104    
  0.03587479503208038    0.03006755220742994    0.030067862215356136    0.03587435321162243    0.04901147288783032    
  0.07166640719038697    0.10487167108183029    0.14531099341215997    0.18343000728690717    0.12300252843066391    
  0.14531052696646846    0.15393696265653492    0.1453110163470074    0.1230011815804306    0.0949362269491991    
  0.06882933564997575    0.04901176607304203    0.036170303504048276    0.029299586766018473    0.02718647211486047    
  0.029299353845320245    0.036170975620320935    0.04901148738675902    0.06883040581722587    0.09493547203200091    
  0.12300252843066391    0.07880922726026153    0.09493576764405143    0.10487151718044214    0.10487104621671746    
  0.09493621369428557    0.07880950439091979    0.061412513018720805    0.046569106799120505    0.035874341595732454    
  0.029299949800156853    0.026255237446311648    0.026255781980514183    0.029299349644376086    0.03587436627420213    