#     DFTpy    
  CRYSTAL 
    
  PRIMVEC    
  1.590398398015053    -2.754650829638221    0.0    
  1.590398398015053    2.754650829638221    0.0    
  0.0    0.0    2.993643949241379    
  PRIMCOORD    
  1    1    
  Si    0.0    0.0    0.0    
  BEGIN_BLOCK_DATAGRID_3D    
  3d_datagrid_density    
  BEGIN_DATAGRID_3D#0    
  15    15    13    
  0.0    0.0    0.0    
  1.590398398015053    -2.754650829638221    0.0    
  1.590398398015053    2.754650829638221    0.0    
  0.0    0.0    2.993643949241379    
  0.07217469162815972    0.12217971514547483    0.28584877633428013    0.41010310296662617    0.3414088260217044    
  0.22166096731323823    0.149274754812625    0.127604518691906    0.14927475444108243    0.22166098287538039    
  0.3414088083616631    0.4101030890833981    0.2858487839296312    0.12217972067834128    0.07217469162815972    
  0.12217970435560485    0.12217629347438047    0.23434574197668903    0.38789374049984415    0.38454558216364343    
  0.2668285440751752    0.17165046317930788    0.1284957767835096    0.12850179616508023    0.1716432838139167    
  0.26683921701197894    0.3845457203821607    0.38783962800125543    0.2343871907431548    0.12217970435560485    
  0.28584879099660876    0.23434570462764676    0.2858941347302321    0.3878655419283835    0.39579308896596754    
  0.29272517122395886    0.18911653925598124    0.13059549949749233    0.11305805433148201    0.13059392729680933    
  0.18911981984256637    0.2927053293968033    0.39586285056957965    0.38783959394479084    0.28584879099660876    
  0.41010309434866155    0.387893718011935    0.38786550623300875    0.41008051786509575    0.38451764296738283    
  0.2927649819963291    0.19566939490119145    0.13233008392662438    0.10388969895378282    0.10389992057420484    
  0.1323192401220659    0.19569223481457618    0.2927053198261693    0.3845456873783357    0.41010309434866155    
  0.34140882744359546    0.3845455486506252    0.39579307532289726    0.3845176520795416    0.34145074920786084    
  0.2668489214034849    0.18908389304969306    0.13232736746774618    0.10089345960273063    0.09111053972703954    
  0.10089369413092682    0.13231924109983262    0.18911983001874677    0.26683917501605586    0.34140882744359546    
  0.22166096782279787    0.2668285226127638    0.2927251405569466    0.2927649964785557    0.26684894083799826    
  0.22161675985760698    0.17164125969916671    0.13062157199249103    0.10389354180636612    0.09111155410745536    
  0.09111053505756377    0.10389992291366654    0.13059392853062662    0.17164327487051848    0.22166096782279787    
  0.14927475433849507    0.17165046978379309    0.18911653689812027    0.19566938649144255    0.18908389655618424    
  0.17164127240455354    0.1493122553896517    0.1284999762951991    0.11303399052722268    0.10389355079235822    
  0.10089346802682604    0.10388971106318214    0.11305807796076145    0.12850179900222353    0.14927475433849507    
  0.1276045147565638    0.12849577024047867    0.13059550325025468    0.13233009434631168    0.13232736565156183    
  0.1306215770409186    0.12849995626864796    0.12756974902689805    0.12849996042769174    0.13062158876554167    
  0.13232735930291376    0.13233008990841777    0.1305955021530179    0.12849577317036145    0.1276045147565638    
  0.14927475815272562    0.12850178605271956    0.11305806890235176    0.10388970097173811    0.10089346596979862    
  0.10389354783226369    0.11303398997450463    0.12849997607726069    0.14931225736242262    0.17164127465239926    
  0.18908390608402978    0.1956694057522279    0.18911656512791322    0.1716504755417945    0.14927475815272562    
  0.22166097106403643    0.17164326399939414    0.13059392440429568    0.10389993125131984    0.09111054116529237    
  0.09111155625354356    0.10389353868605739    0.13062157404105523    0.17164124621901938    0.2216167600114787    
  0.2668489387508599    0.2927649907813335    0.2927251592063625    0.26682853547013236    0.22166097106403643    
  0.34140881680880525    0.26683916656501205    0.1891198139584784    0.1323192418941855    0.10089369116148521    
  0.09111053046980135    0.10089345906734722    0.1323273646698845    0.1890839064739168    0.26684892961712736    
  0.34145071838988694    0.38451764353787443    0.39579310717630256    0.38454554740196356    0.34140881680880525    
  0.4101030613451361    0.38454569632121477    0.2927053128424649    0.19569222998578267    0.13231924115469715    
  0.10389991837598392    0.10388969185930484    0.1323300932522573    0.19566939393606197    0.292765015161092    
  0.3845176382441696    0.4100805187954196    0.3878655187964061    0.3878937198421566    0.4101030613451361    
  0.2858487846096623    0.38783958995759776    0.3958628335819008    0.29270531986646514    0.189119827614398    
  0.13059392553766078    0.11305805842401227    0.13059550482625634    0.1891165290040741    0.2927251708374192    
  0.39579310273653007    0.3878655053485537    0.28589415718617767    0.23434570567933713    0.2858487846096623    
  0.12217971816807935    0.234387162384995    0.3878395714286881    0.38454571521838293    0.2668391987442403    
  0.17164327545558736    0.12850179924220972    0.1284957859748428    0.17165047034717346    0.26682855454271937    
  0.38454557573482673    0.3878937498797904    0.23434573405714595    0.12217629876362984    0.12217971816807935    
  0.07217469162815972    0.12217971514547483    0.28584877633428013    0.41010310296662617    0.3414088260217044    
  0.22166096731323823    0.149274754812625    0.127604518691906    0.14927475444108243    0.22166098287538039    
  0.3414088083616631    0.4101030890833981    0.2858487839296312    0.12217972067834128    0.07217469162815972    
  0.13342669559167442    0.18988437288572915    0.33681145226297643    0.4085149006229188    0.3203679824637909    
  0.20670102203299126    0.14032048854340165    0.12048719546598713    0.1403204981972823    0.20670104161632388    
  0.3203679796429065    0.40851492064203626    0.3368114301195514    0.1898843821589191    0.13342669559167442    
  0.18988439205242333    0.1898508051004193    0.29524953871839177    0.40401272246363323    0.3659267310803007    
  0.2486221495275271    0.16076913842481458    0.12125358086930743    0.12126039520745283    0.16076107725606037    
  0.248634346413829    0.36591998652040736    0.4039788947153522    0.2952702442158486    0.18988439205242333    
  0.3368114462880092    0.2952495263028171    0.3368808105124378    0.40398113732870616    0.3794871252964088    
  0.2730421667116274    0.17674748075810445    0.12314191178497322    0.10702327483425507    0.12314166846394232    
  0.17674718699159198    0.2730325800658799    0.37953162791320155    0.40397888703930873    0.3368114462880092    
  0.40851491607542456    0.4040126739131067    0.40398108353923784    0.4084794929779094    0.3659067331324379    
  0.2730750853215319    0.18275948193664227    0.12475270537475192    0.09863886067183683    0.0986456256294586    
  0.1247458127255898    0.18277507606318955    0.2730325876057036    0.36591994690021395    0.40851491607542456    
  0.32036797952109924    0.36592671290122847    0.37948711038794664    0.3659067734685587    0.3204153214560807    
  0.24863561020293792    0.17672206408126645    0.12475101396272631    0.09592693584895035    0.08692807978052111    
  0.09592671571178454    0.1247458099174669    0.17674719365104893    0.2486342991815792    0.32036797952109924    
  0.2067010118659256    0.24862213111243298    0.2730421393282657    0.2730750970952814    0.24863561534280354    
  0.20665760769687969    0.16076221865556645    0.12316174371287773    0.09864137704048952    0.08692853514663976    
  0.08692807818184832    0.0986456296004905    0.12314166825111945    0.16076106841172355    0.2067010118659256    
  0.1403204934538018    0.16076913746293944    0.17674749112440358    0.1827594909763055    0.1767220659081973    
  0.1607622278614478    0.14035704776428437    0.1212574888711329    0.1070053715514216    0.09864138539285786    
  0.0959269433065883    0.09863887001367681    0.10702329524102215    0.12126039603673533    0.1403204934538018    
  0.12048720204606508    0.12125357783964195    0.12314190977018678    0.12475270390471928    0.12475100777816128    
  0.12316175623561533    0.1212574671816283    0.12045334596986136    0.12125748671169737    0.12316176413131816    
  0.12475100476076695    0.12475270757881832    0.12314190877299705    0.12125358206157069    0.12048720204606508    
  0.14032049423866255    0.12126039015835403    0.1070232901317331    0.09863886581727482    0.09592694259040882    
  0.0986413843374208    0.10700537204257397    0.12125750089726005    0.14035705228935266    0.16076223273855414    
  0.17672207113097732    0.18275948280060408    0.1767475055264519    0.16076915286229757    0.14032049423866255    
  0.20670102508301003    0.16076105812981692    0.12314165806761518    0.09864563532511318    0.08692808185921694    
  0.08692853291560654    0.09864136815013103    0.12316175322399159    0.16076221405333818    0.2066576029442659    
  0.24863561816303342    0.27307509744986336    0.2730421422975328    0.24862212102161976    0.20670102508301003    
  0.3203679886327263    0.24863429704765683    0.17674717103052684    0.12474582537890552    0.09592671658775923    
  0.0869280732148285    0.09592693991349763    0.12475101053328552    0.17672206486162134    0.248635616907725    
  0.3204153036950761    0.3659067581469787    0.379487095629134    0.36592671758440476    0.3203679886327263    
  0.40851488601546915    0.3659199407925855    0.27303257106076645    0.1827750730612566    0.12474581960349916    
  0.09864562677521219    0.09863886028864528    0.12475270594887006    0.1827594576395914    0.27307508918946094    
  0.3659067491604682    0.4084794770478008    0.40398111689759286    0.4040126888351934    0.40851488601546915    
  0.33681145201371815    0.40397889377056456    0.3795316126132166    0.27303258824857823    0.17674719128945754    
  0.12314165479078988    0.10702327987564342    0.12314191211347847    0.1767474887982949    0.27304215850932717    
  0.3794871304933909    0.403981114352435    0.33688082328821534    0.29524953042992563    0.33681145201371815    
  0.1898843858773449    0.29527022088949856    0.40397888051845127    0.3659199463684537    0.24863432043782926    
  0.16076105839595967    0.12126040073596829    0.12125358545383064    0.1607691373484285    0.24862215730101775    
  0.36592673612967347    0.40401273171999186    0.2952495353635754    0.18985080500039853    0.1898843858773449    
  0.13342669559167442    0.18988437288572915    0.33681145226297643    0.4085149006229188    0.3203679824637909    
  0.20670102203299126    0.14032048854340165    0.12048719546598713    0.1403204981972823    0.20670104161632388    
  0.3203679796429065    0.40851492064203626    0.3368114301195514    0.1898843821589191    0.13342669559167442    
  0.3233584742326811    0.35866005292758973    0.40776438807136683    0.3693174022467157    0.26214338845038915    
  0.16911438878749782    0.11769792098272117    0.10224388363754447    0.11769791718765359    0.1691144168398448    
  0.26214336332392085    0.3693174133155009    0.40776438050914593    0.3586600799861112    0.3233584742326811    
  0.3586600660760598    0.35862333110667166    0.4000408052532216    0.3949972446253986    0.30601337429385156    
  0.2022463051251978    0.13355585200997708    0.10286635997398409    0.1028684365750154    0.1335530328008023    
  0.20225038166635398    0.30601056255248715    0.39498827214611143    0.4000418136229162    0.3586600660760598    
  0.4077643862030775    0.40004077490868767    0.4078080948682504    0.39498105294481456    0.32140272343756576    
  0.22211008032703075    0.1459908757638151    0.10439187707024802    0.09172046626928078    0.10439256925559465    
  0.14598994534705656    0.22210895236021885    0.32141280071007283    0.39498826083565447    0.4077643862030775    
  0.36931739895931914    0.3949972171462508    0.3949810076457334    0.36929770429615066    0.3060078592569714    
  0.22212249384989438    0.15068021626894815    0.10569613433818856    0.08519446307790107    0.08519654357873713    
  0.1056933347795951    0.15068570278523274    0.2221089623424258    0.306010533173947    0.36931739895931914    
  0.2621433901218019    0.3060133609046608    0.3214027109876577    0.3060078947676277    0.26216719861607285    
  0.20224722016235833    0.14598332367857078    0.10569449825341116    0.0831084318922372    0.07598909599446611    
  0.08310855809949359    0.10569333172273909    0.14598995648031488    0.20225033598410047    0.2621433901218019    
  0.16911440436906822    0.20224628906351183    0.22211005773016773    0.2221225199008863    0.20224723809935743    
  0.16909669503564376    0.13355437558716646    0.10439844017977684    0.0851957564109309    0.07598876356396943    
  0.07598909084137032    0.08519655131748281    0.10439257219366238    0.13355302623441    0.16911440436906822    
  0.11769791787628987    0.13355585255309885    0.14599087217341974    0.15068021852468863    0.14598331332636488    
  0.13355438300615355    0.11771283081295376    0.10286753686004951    0.09171426423483166    0.08519575799996298    
  0.0831084387697457    0.0851944648077013    0.09172048081474776    0.10286844513181408    0.11769791787628987    
  0.10224388815090764    0.10286635808227669    0.10439187901867183    0.10569613516810077    0.10569448964826353    
  0.10439845019961956    0.10286752022999726    0.10222966116778333    0.10286752722838396    0.10439845751223162    
  0.10569449015225253    0.10569613444977709    0.1043918814527848    0.1028663547785309    0.10224388815090764    
  0.11769791847194423    0.10286843136444004    0.09172047187545712    0.08519446188147067    0.08310843961613708    
  0.08519575773132486    0.09171426096624603    0.10286754297054664    0.11771283107966618    0.1335543859459377    
  0.14598332198637498    0.15068022415796478    0.14599089762858625    0.13355587097450317    0.11769791847194423    
  0.169114401661846    0.13355301452458657    0.10439256283124945    0.08519655615913391    0.0759890936893935    
  0.07598876112697392    0.08519574925684022    0.10439844483392334    0.13355436139156843    0.1690966854292386    
  0.20224722858490166    0.22212251095019253    0.2221100682754181    0.2022462896584985    0.169114401661846    
  0.2621433803130141    0.2022503218194527    0.14598995207836568    0.1056933377202032    0.08310854917173578    
  0.07598909149137253    0.083108435807303    0.10569449023560981    0.14598332140454123    0.2022472293994301    
  0.2621671779090804    0.3060078642551544    0.3214027047943621    0.3060133742552314    0.2621433803130141    
  0.3693173914271403    0.3060105307627101    0.22210895055524502    0.15068569341563393    0.10569333658181546    
  0.08519654314188924    0.08519445358564495    0.10569614042967683    0.15068020300295132    0.22212252280727474    
  0.3060078468474877    0.36929769637142357    0.39498099865581116    0.39499723386229213    0.3693173914271403    
  0.40776438569370305    0.3949882530903969    0.32141279238719783    0.2221089643134174    0.1459899691093181    
  0.10439256342055003    0.09172046350828658    0.10439188741963346    0.14599086699876115    0.2221100916171849    
  0.32140271926224595    0.3949809737790532    0.40780813152221157    0.40004078488066874    0.40776438569370305    
  0.3586600595434229    0.4000417632141208    0.394988275925718    0.30601055807457755    0.20225037822163242    
  0.1335530162826306    0.10286844117469476    0.10286636179383515    0.1335558526587201    0.20224631066428256    
  0.306013368111095    0.394997279796771    0.4000407980597315    0.35862335547699614    0.3586600595434229    
  0.3233584742326811    0.35866005292758973    0.40776438807136683    0.3693174022467157    0.26214338845038915    
  0.16911438878749782    0.11769792098272117    0.10224388363754447    0.11769791718765359    0.1691144168398448    
  0.26214336332392085    0.3693174133155009    0.40776438050914593    0.3586600799861112    0.3233584742326811    
  0.4127595864459283    0.4024508475137222    0.3580785465240297    0.2758810004786099    0.18860391215723368    
  0.12543121612184047    0.09110173994483903    0.08058439211505532    0.09110172682147721    0.1254312263350365    
  0.18860390907887165    0.2758809774380029    0.35807853559660374    0.4024508493861821    0.4127595864459283    
  0.4024508205609604    0.40244710792180904    0.3742931979965731    0.30767946592909484    0.2209055164644246    
  0.14762346727943537    0.10182134575027647    0.08108652482622931    0.08108764281002946    0.1018198776056657    
  0.14762415577038962    0.2209056187835727    0.3076792556393863    0.37429299154700146    0.4024508205609604    
  0.35807855490536533    0.37429315949150505    0.3580822069044954    0.30767979701082865    0.23310504487348466    
  0.16113461583899566    0.11018489633795049    0.08221301739799505    0.073514031360078    0.08221306509669056    
  0.11018625198531652    0.16113312170293267    0.23310599886530511    0.30767924644000505    0.35807855490536533    
  0.2758809824405307    0.30767943396893804    0.3076797808074299    0.2758769189820154    0.2209060730388372    
  0.16113297031939003    0.11330616977048198    0.08308555576894636    0.0690389693049408    0.06903858393145257    
  0.08308491399870065    0.11330627119061487    0.16113312907285687    0.2209056065874793    0.2758809824405307    
  0.1886039126004352    0.22090550201711287    0.23310504648951333    0.22090607710958873    0.18860650231784265    
  0.14762421311963458    0.11018563555188629    0.08308532375318022    0.0676015922039044    0.06267103414598368    
  0.06760259651212319    0.08308491068143913    0.110186261776722    0.14762413636673544    0.1886039126004352    
  0.12543121327465526    0.1476234597803741    0.16113458954859555    0.16113298084262165    0.14762421838588952    
  0.1254284373611689    0.10182049977203891    0.082213012831896    0.06903872956236311    0.0626717749247763    
  0.06267103336243475    0.06903858560782217    0.08221306716636459    0.10181987389023651    0.12543121327465526    
  0.09110172718893136    0.10182134530088198    0.11018490005424536    0.11330617005735098    0.1101856381602468    
  0.10182051261217041    0.09110393989638467    0.08108730008181668    0.07351383272819055    0.06903873650359899    
  0.06760159659845037    0.06903897218513497    0.07351404921051681    0.08108764543978592    0.09110172718893136    
  0.08058439374437923    0.08108652262196782    0.08221302077647    0.08308556859679139    0.08308532287674229    
  0.08221301912985905    0.08108729000116592    0.08058190654905986    0.08108729186212024    0.08221302360635921    
  0.08308531962893494    0.08308556372315808    0.0822130186138607    0.08108652610774572    0.08058439374437923    
  0.09110173213426412    0.08108763435908661    0.0735140446014223    0.06903897065590037    0.06760159611287754    
  0.06903873349064761    0.07351383195966274    0.08108730056137818    0.09110394149025973    0.10182051802850586    
  0.11018564030636586    0.11330618179941604    0.1101849153921316    0.1018213552162783    0.09110173213426412    
  0.12543122591136865    0.10181986327148274    0.08221306335837139    0.06903859419918301    0.06267103668979519    
  0.0626717715075924    0.06903872807319568    0.08221301175894023    0.10182049904864307    0.12542843613304236    
  0.14762422682469045    0.16113297401371088    0.16113459977707634    0.14762346066144935    0.12543122591136865    
  0.18860392872019505    0.14762411133307018    0.11018626363521707    0.08308491974523413    0.06760259624692405    
  0.06267103243202223    0.06760159341327224    0.0830853225122975    0.11018563646057013    0.14762421335543754    
  0.18860649311234387    0.220906061607424    0.23310504637135182    0.22090550179065785    0.18860392872019505    
  0.2758809702446553    0.2209056146337121    0.1611331334709785    0.11330626373293064    0.08308491413592299    
  0.06903858268429207    0.0690389638762224    0.08308556693567347    0.11330616572435735    0.16113298494906383    
  0.22090606996987944    0.2758769384650116    0.30767979183336525    0.3076794554663177    0.2758809702446553    
  0.358078518453744    0.30767922895762556    0.23310598836040805    0.16113311949729334    0.11018627085435682    
  0.08221305918280103    0.07351403745616684    0.08221302198685608    0.11018489793502864    0.16113460996454484    
  0.23310504602162843    0.3076797622515426    0.35808222785942784    0.37429315529252105    0.358078518453744    
  0.40245085277114095    0.374292956325331    0.30767921594168635    0.22090562016354306    0.14762414808478677    
  0.10181986888967749    0.08108764400828017    0.0810865290841794    0.10182134464109413    0.14762347383786334    
  0.22090551178138756    0.3076794637946324    0.37429319856249793    0.4024471227885509    0.40245085277114095    
  0.4127595864459283    0.4024508475137222    0.3580785465240297    0.2758810004786099    0.18860391215723368    
  0.12543121612184047    0.09110173994483903    0.08058439211505532    0.09110172682147721    0.1254312263350365    
  0.18860390907887165    0.2758809774380029    0.35807853559660374    0.4024508493861821    0.4127595864459283    
  0.3062285437095929    0.28865271245404317    0.24190434057792065    0.18224840447283064    0.12825126228303185    
  0.09025908559732991    0.06916756532186637    0.062544849451687    0.0691675657164901    0.09025909401866376    
  0.1282512563471109    0.1822484120044855    0.2419043270215923    0.2886527202150681    0.3062285437095929    
  0.2886527293410508    0.2886536334347839    0.2565106983006995    0.2035827208992058    0.1478291437959893    
  0.10367432906534563    0.07582962712911344    0.06288682817465152    0.0628862109853007    0.07582987791612958    
  0.10367393481352087    0.14782963333280164    0.2035819113476774    0.2565117284984104    0.2886527293410508    
  0.24190433106440706    0.25651067690965945    0.24190478812213334    0.2035818763798704    0.15534990130644866    
  0.11183545137011937    0.08097162324427573    0.06360859875217056    0.05810508050723674    0.06360913189578365    
  0.08097156431914763    0.11183563732656439    0.15534991468192458    0.2035819156220749    0.24190433106440706    
  0.1822484096391052    0.20358268599136287    0.20358185580683763    0.18224854561555875    0.14782952289589582    
  0.1118359874433319    0.0828742233383919    0.06413400491234837    0.055249674349651105    0.05524943317529966    
  0.06413352379551986    0.0828743745922359    0.11183563473212041    0.14782962339265113    0.1822484096391052    
  0.12825126721867622    0.147829135877541    0.15534990575297727    0.14782954786110186    0.12825129635070087    
  0.10367351797727974    0.0809716343403524    0.06413320513802936    0.05432488319158074    0.051174822445118555    
  0.05432523685186389    0.06413352254233558    0.08097157110024468    0.1036739066267492    0.12825126721867622    
  0.0902590883620869    0.10367432275034442    0.11183543561284343    0.11183600769744338    0.10367352194994085    
  0.09025984759580587    0.07582966251028238    0.06360941468757343    0.05524974737010111    0.05117489132250471    
  0.05117482045200272    0.05524943757412582    0.06360913093120889    0.07582987998149553    0.0902590883620869    
  0.0691675607446628    0.075829631545662    0.08097163073237951    0.08287422503943323    0.08097164367579078    
  0.07582966939128612    0.06916708045164308    0.06288647457208736    0.05810447164753461    0.0552497493926654    
  0.054324886874917315    0.05524967409874095    0.058105087368641194    0.06288621668845987    0.0691675607446628    
  0.06254485210377722    0.06288683096321378    0.06360859942829293    0.06413401019114426    0.06413320102118306    
  0.06360942580016489    0.0628864619620501    0.06254546208276257    0.06288647099825803    0.06360942965335566    
  0.06413320081823244    0.06413400965766947    0.06360860013492024    0.06288683311118964    0.06254485210377722    
  0.06916756305920937    0.06288620304574016    0.05810508921657241    0.05524968039767885    0.05432489195357886    
  0.05524974956821357    0.0581044762269776    0.06288647334003306    0.06916708222489386    0.07582967438275708    
  0.08097163483294782    0.0828742269735505    0.08097163549814305    0.07582964276382573    0.06916756305920937    
  0.09025908579387328    0.07582986201789509    0.06360912486396077    0.05524944543826415    0.05117482461854045    
  0.05117488879552891    0.05524973915234601    0.06360942282499128    0.0758296608069746    0.0902598425708432    
  0.10367351654847039    0.11183599598315334    0.11183544657955992    0.10367432449950079    0.09025908579387328    
  0.12825127050218812    0.10367390536234251    0.08097156877421337    0.06413353161535854    0.05432523448228801    
  0.051174822507832354    0.05432488533956842    0.06413320116390751    0.08097164228019182    0.10367351784585499    
  0.12825128458246454    0.1478295400074981    0.1553498922806748    0.14782914608496842    0.12825127050218812    
  0.18224839435355483    0.14782962079231235    0.11183563455138565    0.08287437407321205    0.0641335233921552    
  0.05524943772266085    0.055249668758502006    0.06413401342437754    0.08287421293393075    0.11183599174625161    
  0.14782953199025123    0.18224853291000015    0.20358184274314434    0.20358270685518087    0.18224839435355483    
  0.24190433766322533    0.20358190986209593    0.15534991743904739    0.11183564337143898    0.08097156876052725    
  0.06360912348868578    0.05810508054201484    0.06360860165213626    0.08097162127183753    0.11183545470371725    
  0.15534990600771553    0.20358184003583318    0.24190480760959635    0.25651069503415247    0.24190433766322533    
  0.2886527195927744    0.25651168696929244    0.20358191935416048    0.14782962132632962    0.10367393079659426    
  0.07582986263523285    0.06288621663454896    0.06288683391620722    0.07582962612373648    0.10367433113250926    
  0.14782913708406958    0.20358273073263267    0.2565106873517807    0.288653639565522    0.2886527195927744    
  0.3062285437095929    0.28865271245404317    0.24190434057792065    0.18224840447283064    0.12825126228303185    
  0.09025908559732991    0.06916756532186637    0.062544849451687    0.0691675657164901    0.09025909401866376    
  0.1282512563471109    0.1822484120044855    0.2419043270215923    0.2886527202150681    0.3062285437095929    
  0.20371360696702365    0.19232177351436444    0.16273032924309802    0.12608919654806944    0.09309680873016786    
  0.06931146490697132    0.05573640288441958    0.05141182508168896    0.05573639570013256    0.0693114857132703    
  0.09309680030795617    0.12608921237213574    0.16273032057703476    0.19232178166155325    0.20371360696702365    
  0.19232177870712105    0.1923213087857775    0.1718557882661579    0.13906094181220213    0.10509608950634639    
  0.07778792402847244    0.06003965566455909    0.051614258336383015    0.051614535862709324    0.06003944229150733    
  0.07778817039756185    0.10509579600806426    0.13906120851281165    0.17185522149077656    0.19232177870712105    
  0.1627303234941522    0.17185578463238255    0.16273033423943664    0.13906091579987778    0.10966466437882685    
  0.08291894756408866    0.06337037030798494    0.05207272180186485    0.048444305847002704    0.05207261302986334    
  0.06337043285247847    0.08291891736558228    0.10966470298230709    0.13906122387286166    0.1627303234941522    
  0.12608919729409285    0.13906091914317942    0.13906090456788353    0.12608923389461335    0.10509635144879018    
  0.08291860199565387    0.06463292896047015    0.05244220126543668    0.046535386475711385    0.04653519884346655    
  0.05244252618481464    0.064632557404523    0.08291893131662458    0.1050957899869583    0.12608919729409285    
  0.09309680531825064    0.10509608101251057    0.10966465981330203    0.1050963704456288    0.09309630152317483    
  0.07778816422021606    0.0633703137760277    0.052442521040152526    0.04590757132887391    0.04376215019042439    
  0.04590749333373122    0.05244252155658217    0.06337044454450459    0.07778815036549729    0.09309680531825064    
  0.06931146729720283    0.07778792169072508    0.08291893851746623    0.08291860816811439    0.0777881733109192    
  0.06931151062991021    0.06003977913442455    0.05207249001836793    0.04653528540185273    0.04376201298117167    
  0.043762147481374886    0.04653520412775361    0.052072615329927664    0.06003944300841304    0.06931146729720283    
  0.05573639245283672    0.06003965122450368    0.06337037272088412    0.06463293346784597    0.0633703167113579    
  0.06003978671491108    0.05573606076473106    0.05161430637528204    0.048444515707248496    0.04653528807565584    
  0.045907576572479986    0.046535386181126064    0.04844431478538319    0.051614544111881246    0.05573639245283672    
  0.05141182969491649    0.05161425879304085    0.05207272414577377    0.052442201736864265    0.05244251304311773    
  0.05207249501171776    0.05161429808839721    0.05141227613777455    0.05161429818125931    0.05207250112049867    
  0.05244251726257512    0.05244219917948662    0.0520727208897742    0.051614253448527034    0.05141182969491649    
  0.055736396361475864    0.05161452985139528    0.04844431055719932    0.04653538989060966    0.045907580089503595    
  0.04653528696404038    0.0484445153494222    0.05161430876191426    0.0557360638133828    0.06003978676707696    
  0.06337031773733917    0.06463292840554723    0.06337037981266842    0.06003966585098722    0.055736396361475864    