#     DFTpy    
  CRYSTAL 
    
  PRIMVEC    
  6.859206650666022    5.471038502510344e-07    9.03220500965517e-07    
  5.471039802372413e-07    6.859209002838822    9.130989460579309e-07    
  9.032206164855171e-07    9.130989670234482e-07    6.859208527401501    
  PRIMCOORD    
  16    1    
  Si    1.0121463567093374    5.847061555644567    2.417458249388112    
  Si    5.847060775155212    1.012148534381343    4.441749294533665    
  Si    1.012147387804949    1.0121476410980956    1.0121479973085716    
  Si    2.417461799972457    2.4174628038934087    2.4174625513199075    
  Si    5.8470591118639055    2.417458418077321    1.0121468626677588    
  Si    1.0121461305147095    4.441753148834296    5.847061502150813    
  Si    2.4174575129222933    1.0121487418946862    5.847062054111345    
  Si    4.441749044958702    5.84706314142704    1.0121469450800238    
  Si    4.441748698401208    2.4174632075668057    5.847065248871424    
  Si    2.4174593014733805    4.44174712385269    1.0121436170136158    
  Si    4.441746423507345    4.441750535823261    4.441749200587165    
  Si    5.847060969431246    5.8470642010868525    5.847062920924463    
  Si    2.417462068864616    5.8470673058784595    4.441749442893665    
  Si    4.4417454083722605    1.0121432412436795    2.4174602233661022    
  Si    5.847063421662518    4.44174990862406    2.4174627139126046    
  Si    1.0121435371037992    2.4174610542140904    4.441747066429813    
  BEGIN_BLOCK_DATAGRID_3D    
  3d_datagrid_density    
  BEGIN_DATAGRID_3D#0    
  31    31    31    
  0.0    0.0    0.0    
  6.859206650666022    5.471038502510344e-07    9.03220500965517e-07    
  5.471039802372413e-07    6.859209002838822    9.130989460579309e-07    
  9.032206164855171e-07    9.130989670234482e-07    6.859208527401501    
  0.0879853383832434    0.0904716841627297    0.0972275554937448    0.10662724453975639    0.11663626370556764    
  0.12518536130107888    0.1311847967025115    0.13441277233757323    0.13441239368493924    0.13118529145665578    
  0.1251851910045824    0.11663683225465518    0.10662719329043166    0.09722811249736867    0.0904717015220554    
  0.08798592905034039    0.0904718779667856    0.09722838949700868    0.10662762003047661    0.11663723231804184    
  0.1251857229115177    0.1311856514364366    0.13441292600895702    0.13441305650317623    0.1311852783875028    
  0.12518566888616808    0.11663660939317824    0.10662743778365608    0.0972277425846724    0.09047175663922491    
  0.0879853383832434    0.09047165562165563    0.10302259714088999    0.12074575841696378    0.14171704585278225    
  0.16309587241296283    0.18170390467130706    0.19516621687734945    0.20231560494132636    0.20231601233042568    
  0.1951660156272772    0.1817046039361099    0.16309583994975704    0.14171778584972095    0.12074580558890839    
  0.10302319152482649    0.09047172645714126    0.08360317812502968    0.08154945412144018    0.08275722008179996    
  0.0854876549530361    0.08825445274576986    0.09025117428383031    0.091280049227746    0.09127984088040048    
  0.09025129304192948    0.08825411936513113    0.08548765280573635    0.08275680072022544    0.08154942122723201    
  0.08360267302105683    0.09047165562165563    0.0972276043990836    0.11965642960854637    0.149418729443439    
  0.18414629293177212    0.21994388892292885    0.252637487467346    0.27760946448488927    0.2908732840251842    
  0.2908729615808931    0.2776102343526399    0.25263748237796185    0.21994479180638923    0.1841464135279617    
  0.1494194058211143    0.11965650557505493    0.09722810692511498    0.08235712427929431    0.07386702679947846    
  0.06987122852108829    0.06845478108405281    0.06824427491762701    0.0683815924930677    0.06844847352534604    
  0.06844858111314912    0.06838145419510765    0.0682443640199401    0.068454524411149    0.06987129171678036    
  0.07386671080211533    0.08235712008864733    0.0972276043990836    0.10662719697215053    0.13704211559366217    
  0.17706878614059843    0.22375526443119603    0.2727034097331396    0.31975309709596617    0.35795862241632603    
  0.3788928097474952    0.37889341506431895    0.3579584803718168    0.3197540488120386    0.2727035297065673    
  0.2237561842589979    0.17706889689778782    0.13704275324617232    0.10662721177433876    0.08591193692320134    
  0.07328658404275007    0.06639206758189965    0.06294661453487534    0.061422165485000145    0.06083800796474984    
  0.060600141978550834    0.06060002892980183    0.06083812576987911    0.06142205808675643    0.06294675538338641    
  0.06639187660771798    0.07328663685839902    0.08591156158979806    0.10662719697215053    0.11663632682881182    
  0.15087431635646303    0.1957231483520463    0.24769262663168412    0.3030346914381018    0.3583915554682382    
  0.40525550860226334    0.4318514768441582    0.4318510265702121    0.40525628302026545    0.3583915103991946    
  0.30303564406372396    0.24769286411127953    0.19572394345415955    0.15087447356474032    0.1166368015724256    
  0.09334439361294036    0.07913163482745691    0.07142303595176369    0.06768897019790414    0.06608415051532332    
  0.06548683030593695    0.0652705371988057    0.06527065715852462    0.06548678746173925    0.0660843622286011    
  0.06768888422004574    0.07142322053403234    0.07913142495800533    0.09334440715180552    0.11663632682881182    
  0.12518534860939307    0.15725967459925957    0.19951467279783375    0.24825562949676544    0.3004090127540627    
  0.3529937473542227    0.3977919215337465    0.42370871373265623    0.42370919252739714    0.3977917995935119    
  0.35299467404707047    0.3004090977066409    0.24825656359848663    0.1995148729483636    0.15726027102389226    
  0.1251853726947254    0.1038944396293625    0.09149243382326003    0.08555429462365889    0.08351724184484009    
  0.08329890684318333    0.08368662309213082    0.08402269735937042    0.08402262691272021    0.08368683931570055    
  0.08329891088944164    0.083517486531572    0.08555420740364651    0.0914925769173977    0.10389409446470112    
  0.12518534860939307    0.1311848757142901    0.1547942938691357    0.1872390735723344    0.2253338486141188    
  0.26602408579881565    0.30617667229654083    0.33960398983194984    0.35883258403800317    0.3588322854103525    
  0.33960472151123644    0.3061767038690733    0.26602489808453145    0.22533404305385044    0.18723981265570191    
  0.15479449566552325    0.13118537177496292    0.11696988295190286    0.1106292960516112    0.11006755988791714    
  0.11273294592097091    0.11641693884941356    0.11974262004332778    0.12170840197774696    0.1217085372677994    
  0.11974270224388676    0.11641723428298137    0.11273288808442962    0.11006777729601937    0.11062908447204572    
  0.1169698486114461    0.1311848757142901    0.1344126781596168    0.14518426192637843    0.16334531113672277    
  0.18665066040516906    0.21213313619553117    0.23681071220728753    0.2567886411690955    0.2679851937563263    
  0.26798563097067957    0.2567885024506007    0.23681128034876156    0.21213316827975684    0.18665142280734662    
  0.16334551019360907    0.14518489315260352    0.13441286727466573    0.1315168122003928    0.13566376619630932    
  0.14499468355657882    0.15680328353566983    0.16857236230596576    0.17812279600377434    0.18345122611587855    
  0.18345111174734374    0.1781230441840618    0.1685722359034164    0.15680341848403356    0.14499438851415322    
  0.1356637388737636    0.13151632497309118    0.1344126781596168    0.1344125584777522    0.13151652016658105    
  0.13566348304242287    0.1449945469914713    0.15680334954634326    0.1685726046166733    0.1781231973825914    
  0.18345176391617624    0.18345151924869757    0.1781235523137333    0.1685725081148159    0.15680389475197837    
  0.1449946394324729    0.13566413080915213    0.1315167852331222    0.13441325093726894    0.14518495633179784    
  0.16334597861126846    0.18665130923105044    0.21213347578015287    0.23681091815381697    0.2567885655876134    
  0.26798500892874166    0.267985123110552    0.25678818815657184    0.2368108995707776    0.21213292639823098    
  0.18665109831767673    0.16334528013143165    0.145184525926583    0.1344125584777522    0.13118522304635152    
  0.11696979509247456    0.11062928633465335    0.11006763833357686    0.11273316374156925    0.11641726029348871    
  0.11974304188773531    0.12170873351714558    0.12170899786356068    0.11974287488029121    0.11641757910694216    
  0.11273315921367441    0.11006816311227224    0.11062952148506679    0.11697052533865941    0.1311857896187201    
  0.1547953776558373    0.1872404122755814    0.22533513491708054    0.26602531046654837    0.30617757358357983    
  0.3396048519665907    0.3588328725793109    0.3588325968254507    0.33960458748391076    0.30617671479194775    
  0.266024699144639    0.2253340549734923    0.1872396511794896    0.15479437457209266    0.13118522304635152    
  0.12518544145111934    0.1038944030376157    0.09149250495217828    0.0855544101443282    0.08351737984454174    
  0.08329912726685855    0.08368686157498464    0.08402303268160857    0.08402283823484744    0.08368713665016954    
  0.08329907475476324    0.0835177759429255    0.08555452591736411    0.09149312792590404    0.10389490837215334    
  0.12518641774393968    0.15726124566873592    0.19951651938101334    0.24825778983955896    0.3004110323149992    
  0.35299587854939735    0.39779367299961915    0.42371026826468683    0.42371003031744114    0.3977925689985078    
  0.35299490548738494    0.3004094429004112    0.24825657608383614    0.19951498225298456    0.15726026211743552    
  0.12518544145111934    0.11663679940571754    0.0933444234375477    0.07913162369807375    0.07142310453711069    
  0.06768907535664014    0.06608424269541677    0.0654869801514733    0.06527066680534012    0.06527087155239583    
  0.06548693850569809    0.06608462855233012    0.06768918387351118    0.07142362492091041    0.07913199751982865    
  0.09334532714803781    0.1166376223162428    0.1508761327547542    0.19572557726136128    0.24769522615198528    
  0.303037677586186    0.35839434010300547    0.4052585005682341    0.4318538617265072    0.4318531683897381    
  0.4052575247235564    0.3583925316981347    0.30303599154934224    0.24769325850355048    0.19572410330773685    
  0.1508746306659014    0.11663679940571754    0.10662731593491555    0.08591186871650862    0.07328659508592879    
  0.06639201539448274    0.06294665190778659    0.06142220876665166    0.060838062716077515    0.06060027265529084    
  0.060600176503299054    0.06083837168206571    0.06142229666539837    0.06294718478878099    0.06639235447268836    
  0.07328732269519614    0.08591254962123292    0.10662858748109186    0.13704410691368565    0.1770712669261968    
  0.22375828126586894    0.27270654155435703    0.31975662610630523    0.3579618716189055    0.3788959305609997    
  0.37889566167789723    0.35796039269513946    0.3197550297098805    0.27270435313174773    0.22375658925419087    
  0.177069298900522    0.13704282704728724    0.10662731593491555    0.09722804366804073    0.08235713322282266    
  0.07386693364361765    0.06987114126358458    0.06845467023535204    0.06824419695515732    0.06838158846727478    
  0.06844853351058827    0.06844877421111224    0.06838172298483844    0.06824482896294722    0.06845509772327407    
  0.06987197014834456    0.07386753430051952    0.0823581487162773    0.09722903991371402    0.11965822671943088    
  0.1494210722946126    0.18414893913836686    0.21994699030810397    0.25264049780509984    0.2776126558531612    
  0.2908758197176131    0.2908752037877694    0.27761168630377037    0.25263873565732353    0.21994532680914186    
  0.18414701751005405    0.14941960901761087    0.11965671388598821    0.09722804366804073    0.0904717083517617    
  0.08360299571121452    0.08154928312565848    0.0827569365295643    0.08548740657246233    0.08825428658625731    
  0.09025110231877966    0.0912801665562064    0.09128011606471137    0.09025180815381317    0.08825481844791745    
  0.08548856820702838    0.08275774496908686    0.0815504715659151    0.08360391562917212    0.09047301886265235    
  0.10302426057989013    0.12074764971159278    0.1417193195187725    0.16309813811237597    0.18170637553549096    
  0.19516833745081    0.2023176441701763    0.20231751188903574    0.19516735572556881    0.18170533044389928    
  0.1630965136942947    0.14171804604847169    0.12074608132078263    0.10302317771146245    0.0904717083517617    
  0.0879857629066184    0.09047169622777594    0.09722802940523145    0.10662721264848826    0.1166367580179207    
  0.12518533216575367    0.13118547385263232    0.13441305880260365    0.13441358948268314    0.13118607768514792    
  0.12518689210464834    0.11663796653769415    0.10662892318735515    0.09722919215134652    0.09047312923234559    
  0.08798673888702481    0.09047305673881245    0.09722910666383938    0.1066287395888046    0.11663793907907388    
  0.12518681858615976    0.13118630435903073    0.13441388049298322    0.13441349101347932    0.13118594116875906    
  0.12518583330253405    0.11663709818863642    0.1066275184287128    0.09722816806934009    0.09047178242188343    
  0.0879857629066184    0.0904717153929569    0.10302312390064503    0.12074588957929179    0.1417177122956462    
  0.16309587906272385    0.1817046509305379    0.1951664105431374    0.2023168623103477    0.20231692141379629    
  0.1951681938600778    0.18170624148926515    0.16309838053393108    0.14171946422742768    0.12074790391752571    
  0.10302440988888172    0.09047310495451137    0.08360389917102956    0.08155043281274421    0.08275771154119742    
  0.08548847191133205    0.08825482174629139    0.09025185844654829    0.09128032279263207    0.09128033536285339    
  0.09025140721677646    0.08825448735576269    0.0854876509677106    0.08275711642726263    0.08154942320416297    
  0.08360309332433315    0.0904717153929569    0.09722814462879843    0.11965658913464476    0.14941946956519042    
  0.18414644071184802    0.21994470130336502    0.25263756440404894    0.2776105382180422    0.2908738425298055    
  0.2908750623686069    0.2776119901374637    0.25264048929117994    0.21994706853913956    0.18414936071097224    
  0.14942131536916395    0.11965850478814107    0.09722912588297057    0.08235825453110333    0.07386756052944457    
  0.06987191239801029    0.06845503093456459    0.06824482263781516    0.06838174010782516    0.06844886999515618    
  0.06844866044656395    0.068381744151566    0.06824434169544162    0.0684547814988592    0.069871233082077    
  0.07386704239390837    0.08235717062563681    0.09722814462879843    0.10662734890940236    0.13704287599322257    
  0.17706902677317618    0.22375615609019164    0.2727034304879657    0.319753914034899    0.357958612937742    
  0.37889425106940317    0.37889444435297553    0.3579613081250741    0.3197562099389029    0.2727069284058892    
  0.22375851111604347    0.17707168845478508    0.1370443373639987    0.10662881049224571    0.08591261363204984    
  0.0732874048288191    0.06639232195168279    0.06294713156773349    0.06142230305756357    0.06083836215036748    
  0.06060019808746628    0.060600301296818676    0.06083807766780961    0.06142227190492763    0.06294666809482358    
  0.06639210503300536    0.07328663150632393    0.08591200548705721    0.10662734890940236    0.11663694977004749    
  0.15087456517896136    0.19572407261876015    0.24769262784442347    0.30303536666531083    0.3583910653510322    
  0.40525607273030917    0.4318512448913726    0.43185256428345153    0.4052573715904257    0.35839415784499745    
  0.30303756870145127    0.24769579891408813    0.19572589101674417    0.15087658858966532    0.1166378593770308    
  0.09334550080640666    0.07913206276969709    0.07142365638975806    0.06768913300453555    0.06608457945563659    
  0.06548686025779582    0.06527081558629808    0.06527059233768558    0.06548696136202284    0.0660842312238286    
  0.06768906244613593    0.07142310870536689    0.07913176168851037    0.09334446419859921    0.11663694977004749    
  0.12518546026352595    0.15726042465757104    0.19951482131858725    0.2482563259130778    0.3004085834203596    
  0.35299392563898996    0.39779087982269645    0.42370884468469355    0.4237086157013525    0.3977930371042642    
  0.35299539689890846    0.30041133495918304    0.24825804764621914    0.19951712068887917    0.1572615643068358    
  0.1251867852212432    0.10389505600838564    0.09149324494026227    0.08555456748939005    0.08351779766339623    
  0.08329903134907365    0.08368700868024978    0.08402270719907613    0.08402288704015885    0.08368674764586913    
  0.08329906330460195    0.08351729884851894    0.08555445515226422    0.09149250005194604    0.10389458205496997    
  0.12518546026352595    0.13118544930466844    0.15479439323184144    0.18723972727583404    0.2253336639372905    
  0.26602435929864165    0.30617570892373613    0.3396036876813699    0.3588312903917591    0.35883223470077097    
  0.3396041275928528    0.30617771603072985    0.26602535971672625    0.2253356794058652    0.18724074252440814    
  0.15479590723315687    0.13118604798980035    0.11697083308626971    0.11062968466892349    0.11006823755407086    
  0.11273313955326658    0.11641754185021728    0.11974274764951486    0.12170874683933303    0.12170850761306218    
  0.11974287298968697    0.1164170147381084    0.11273302928517878    0.11006757903462293    0.11062939955060867    
  0.116969854728807    0.13118544930466844    0.1344126677592546    0.14518482778664404    0.16334528889645983    
  0.1866510986207177    0.21213253738813878    0.23681056841039233    0.2567874042784855    0.26798466559055995    
  0.2679842645635372    0.25678839235362166    0.2368107197364671    0.21213388614681597    0.1866515899241278    
  0.16334653403212196    0.1451852771092052    0.13441371557989815    0.13151706731460855    0.13566446794400053    
  0.14499477462798627    0.1568039179767756    0.16857249368437943    0.17812334268222269    0.18345119909832042    
  0.18345142870255052    0.1781228356913895    0.16857235688977842    0.15680306144195041    0.14499452907542243    
  0.13566348597681302    0.13151666394194336    0.1344126677592546    0.13441293741793428    0.1315164462546575    
  0.13566392018645942    0.14499431500744586    0.1568034735101533    0.1685718253092563    0.17812290241726828    
  0.18345066045713046    0.18345109382436833    0.1781225708167579    0.16857252568896267    0.15680341498521966    
  0.1449951046969057    0.13566403370375232    0.1315173384713587    0.13441326951024457    0.1451854114246875    
  0.16334590850449893    0.18665172282856238    0.21213331673247188    0.23681137881217942    0.25678834894490943    
  0.2679852574165556    0.2679848009575894    0.25678823585719973    0.2368103780003565    0.2121328955377582    
  0.18665056947527237    0.16334544783431632    0.1451843571593238    0.13441293741793428    0.131184994454601    
  0.11697007924365817    0.11062914480673297    0.11006788136004164    0.11273275558558767    0.11641726346935205    
  0.11974236404695526    0.12170856997581889    0.12170816119296907    0.11974274741704063    0.11641689043929224    
  0.11273321700844083    0.11006771799761575    0.11062969599339217    0.11697017196936026    0.1311859299584336    
  0.15479495237359173    0.18724049695262507    0.22533458828060404    0.2660253151181415    0.30617701654394475    
  0.3396047441649965    0.3588322037675059    0.3588323629009058    0.3396037975055135    0.3061764445094792    
  0.2660238477527656    0.22533392641577052    0.1872391143885976    0.15479453208143135    0.131184994454601    
  0.12518557476465736    0.10389417451131132    0.09149274875408119    0.08555416792016253    0.08351757733563615    
  0.08329873658633893    0.08368688291761185    0.08402249888014719    0.08402277581975831    0.08368652646419411    
  0.08329906268255054    0.08351722731045981    0.08555455943123028    0.09149259439161912    0.10389485161720241    
  0.12518576892142433    0.1572609883760245    0.19951558628550864    0.2482573427937568    0.3004098668132023    
  0.35299526207010123    0.39779227481671914    0.4237094619319689    0.4237086638699372    0.3977919188233122    
  0.3529937562511031    0.3004090799272973    0.24825575464266722    0.19951489832995392    0.15725980872525747    
  0.12518557476465736    0.11663641784253247    0.09334458595342093    0.0791314280248359    0.07142328089882802    
  0.06768883336326678    0.06608441426505995    0.06548661828909497    0.06527071076313563    0.06527041271391297    
  0.06548690894963177    0.06608408020699254    0.0676891153348395    0.0714230722724591    0.07913187073433134    
  0.09334461091788629    0.11663726301638977    0.15087507751530002    0.1957248542399457    0.24769373525488927    
  0.3030366262681026    0.3583924524674135    0.4052571375150245    0.43185185442364765    0.43185190001514306    
  0.4052559879952771    0.35839180784428576    0.30303488953193297    0.2476929647279013    0.19572338367475356    
  0.15087463570847445    0.11663641784253247    0.10662738435578607    0.08591159675665347    0.07328674816830197    
  0.06639180378237672    0.06294682106550359    0.06142193895991624    0.060838175005455845    0.060599894838440575    
  0.060600164051586074    0.06083786419211811    0.06142219436857703    0.06294657178223713    0.06639216395532467    
  0.07328660196612743    0.08591218474624458    0.10662760246527511    0.13704343386220472    0.17706976161852112    
  0.2237571318054837    0.27270456690830236    0.31975513008464695    0.3579595631289896    0.37889429175146105    
  0.3788936088909246    0.3579592432660695    0.319753702365136    0.2727038369419159    0.22375570101302467    
  0.17706914772617444    0.13704233512000144    0.10662738435578607    0.09722766511893784    0.08235720009772063    
  0.07386663816451292    0.06987125165488378    0.06845438891961211    0.06824432331203831    0.06838124713426869    
  0.06844855218798497    0.06844824272415502    0.0683815571703061    0.068244056070373    0.06845477185255881    
  0.06987109387896179    0.07386709194696459    0.08235720042700237    0.09722840061571862    0.11965697899948124    
  0.14942014624742814    0.18414726263372977    0.21994568569409337    0.2526384848604605    0.27761117323076745    
  0.29087388307359635    0.2908740087409338    0.2776102132048696    0.25263808254754744    0.21994439766729373    
  0.1841467651749223    0.14941902001311702    0.11965664792604284    0.09722766511893784    0.0904717115258202    
  0.08360261968516773    0.08154934027187638    0.08275657295175938    0.08548752836853551    0.08825385293918635    
  0.0902511118261527    0.09127951499183201    0.09127987143982513    0.09025083444016341    0.08825424329634582    
  0.08548733632345323    0.08275707218482414    0.08154930486350252    0.08360321802127643    0.0904718772144986    
  0.10302351219963266    0.12074633161274186    0.14171836070866795    0.16309656255748875    0.18170530537263713    
  0.19516674428134007    0.20231665723679804    0.20231624729671702    0.1951667786688441    0.18170450168439153    
  0.16309626846694586    0.14171748385193508    0.12074603899090974    0.10302276588867877    0.0904717115258202    
  0.0879853383832434    0.0904716841627297    0.0972275554937448    0.10662724453975639    0.11663626370556764    
  0.12518536130107888    0.1311847967025115    0.13441277233757323    0.13441239368493924    0.13118529145665578    
  0.1251851910045824    0.11663683225465518    0.10662719329043166    0.09722811249736867    0.0904717015220554    
  0.08798592905034039    0.0904718779667856    0.09722838949700868    0.10662762003047661    0.11663723231804184    
  0.1251857229115177    0.1311856514364366    0.13441292600895702    0.13441305650317623    0.1311852783875028    
  0.12518566888616808    0.11663660939317824    0.10662743778365608    0.0972277425846724    0.09047175663922491    
  0.0879853383832434    0.09047168520438562    0.10302257789806676    0.11965643207913092    0.1370420567730839    
  0.15087438035960718    0.1572595765220949    0.15479438389839742    0.1451841624113964    0.13151657040248343    
  0.11696965230545238    0.10389449698729758    0.09334429823605386    0.08591201579180027    0.08235704158338107    
  0.08360320569423117    0.09047183677641764    0.10302352087462056    0.11965689563385837    0.13704330486056004    
  0.1508749134664068    0.15726072787436296    0.15479463018470369    0.14518488303524538    0.13151650194433265    
  0.11697011618571422    0.10389428701035547    0.0933446122331223    0.08591161847680695    0.08235718464953126    
  0.08360264287799855    0.09047168520438562    0.10302257845825066    0.12833795847537097    0.1599493957763098    
  0.19259917632674936    0.2193288334185636    0.2341103499440084    0.23385400387107524    0.21944394263960482    
  0.19579371502802104    0.1693621069180004    0.1444622904024545    0.12300080716489778    0.10589584941653643    
  0.0934776403276078    0.08597269191919812    0.08360319126501993    0.0859728302933056    0.0917304190599419    
  0.0986222230378049    0.10404035561702446    0.1059496617985085    0.1035745432989704    0.09783987332297918    
  0.09055980460277235    0.08336211895549685    0.07753509743119855    0.07384293872172042    0.0730483712593419    
  0.07652107990222133    0.08597269912251553    0.10302257845825066    0.12074578192740203    0.15994946697346552    
  0.20801995903456336    0.2565242195239712    0.2966958301680707    0.3237443147092934    0.331692321302429    
  0.3149805134134485    0.2791766109431114    0.2365296433314472    0.19535193448962465    0.1594577849440825    
  0.1303237494521396    0.10787570011137271    0.09173023576273723    0.08154934260316171    0.07652150468252633    
  0.07533600598998737    0.07618809660747486    0.0771996093690377    0.07718128210600544    0.07554211138020718    
  0.0725310279863611    0.06908935539048636    0.06607906580623615    0.06432556683831757    0.0646278313195592    
  0.0681302112747204    0.07685781476908836    0.093477153254546    0.12074578192740203    0.14171709208519828    
  0.19259918261977052    0.2527025987355267    0.3091455805074329    0.3551669226604656    0.39440440821750744    
  0.4181872201893803    0.4068471971389273    0.36183428107768184    0.30264449448799957    0.24445353022823216    
  0.19408250973620528    0.15338293653238902    0.12187812084478601    0.09862197180100976    0.08275704491554783    
  0.07304824952207677    0.06801171394861938    0.0659579260322935    0.06524346786231076    0.06487766654851712    
  0.06427702335197068    0.06332794505484865    0.062404220064522634    0.06191781655391396    0.06253419674169697    
  0.06517713418376421    0.0713709520200868    0.08374354557257022    0.10589592621023841    0.14171709208519828    
  0.1630958674345855    0.2193288935043879    0.2828487723521904    0.33730701760517123    0.3804720240698313    
  0.4256399016351534    0.4629767957409348    0.4600503520672645    0.4117161976764619    0.34241336670226785    
  0.27361685345945325    0.21444508381419985    0.16711043558864752    0.1308580760293917    0.1040401045628738    
  0.08548746087915958    0.07384320604861912    0.06750433316088075    0.06484782659350277    0.06429973071060813    
  0.06488430534986754    0.06597580195339584    0.06723917452680778    0.06867215892533486    0.07033279302873337    
  0.07267545708080478    0.07661620904099933    0.08400837732520151    0.09808342841436214    0.12300022830457615    
  0.1630958674345855    0.18170400720591345    0.23411026638736077    0.2927737857443305    0.3419119842812223    
  0.38049337617312556    0.42187095217225024    0.45636347041179925    0.4526723700011578    0.4049924414005461    
  0.33696647524339546    0.26989042587997913    0.21233402540428944    0.16652456759550216    0.13170453305120933    
  0.10594950497785652    0.08825429465689187    0.07753493774060916    0.07234753420930155    0.07123772980782218    
  0.07274541488543637    0.0759939781279382    0.08035773948433832    0.08521623568716954    0.09009046955368952    
  0.09446839662919733    0.0983707556852549    0.10251936296865276    0.10901525695927654    0.12158475224650153    
  0.14446236143534158    0.18170400720591345    0.1951661339166862    0.2338540357413747    0.2794152857473867    
  0.3205571292160426    0.35355117260492486    0.382800938897631    0.4002956564461602    0.3880125795220444    
  0.3453298543650911    0.2895466907202434    0.235433442654028    0.1890099469268948    0.15205970446271205    
  0.124009105398474    0.10357449775215805    0.09025106645089617    0.08336233163660133    0.08189713720759152    
  0.08476610398578913    0.09083258050708642    0.099515337660202    0.110117202928985    0.12146542850333825    
  0.13214907232203896    0.1404388038381635    0.1454925330721889    0.14783509748567397    0.14976280468942418    
  0.15546375403254561    0.16936157433569946    0.1951661339166862    0.2023156440135787    0.21944375980384281    
  0.24427729204298052    0.270441219895524    0.29233164192841876    0.30687928862809605    0.3088908722375689    
  0.292526312790019    0.2604381986227795    0.2222171022502293    0.18546356631368874    0.15395609498556623    
  0.1290431893325353    0.11044505058194969    0.09783989053275105    0.091280027072029    0.09055970274922323    
  0.09527992761042223    0.10485786431611627    0.11876414312362682    0.13685840660749538    0.15816476286568262    
  0.18046631784514136    0.20042382443148704    0.21367763294880307    0.2180392472758008    0.2146542985285731    