#     DFTpy    
  CRYSTAL 
    
  PRIMVEC    
  10.66727640215093    1.9844467006896555e-09    -6.443426151724137e-10    
  1.9844467006896555e-09    10.667276404553169    -1.8588820496551723e-09    
  -6.443426151724137e-10    -1.8588820496551723e-09    10.667276405221958    
  PRIMCOORD    
  63    1    
  Si    2.666819150780284    2.336721784955844e-08    2.6668190465253208    
  Si    8.00045735185575    2.4359441199903268e-08    2.666819046203149    
  Si    2.666819151772507    5.333638225643802    2.66681904559588    
  Si    8.000457352847972    5.333638226636023    2.666819045273708    
  Si    2.6668191504581134    2.2437776824730855e-08    8.000457249136298    
  Si    8.000457351533578    2.3430000175075677e-08    8.000457248814127    
  Si    2.6668191514503365    5.3336382247143606    8.000457248206859    
  Si    8.000457352525801    5.333638225706584    8.000457247884686    
  Si    1.3334095496101435    1.3334094814491162    1.333409498969543    
  Si    6.667047750685608    1.3334094824413394    1.333409498647372    
  Si    1.3334095506023667    6.667047683725699    1.3334094980401023    
  Si    6.667047751677832    6.6670476847179225    1.3334094977179312    
  Si    1.3334095492879725    1.333409480519675    6.667047701580522    
  Si    6.667047750363438    1.3334094815118982    6.66704770125835    
  Si    1.3334095502801955    6.667047682796259    6.66704770065108    
  Si    6.6670477513556605    6.667047683788481    6.667047700328909    
  Si    2.6668191653100686    2.666819081818633    3.373522456699946e-08    
  Si    8.000457366385533    2.6668190828108567    3.3413053259413247e-08    
  Si    2.666819166302292    8.000457284095218    3.280578354217187e-08    
  Si    8.000457367377756    8.000457285087442    3.248361223458566e-08    
  Si    2.6668191649878974    2.666819080889192    5.333638236346202    
  Si    8.00045736606336    2.6668190818814153    5.33363823602403    
  Si    2.666819165980121    8.000457283165776    5.333638235416761    
  Si    8.000457367055583    8.000457284158    5.333638235094591    
  Si    1.3334095531837318    4.000228700671326    4.0002287067393505    
  Si    6.667047754259197    4.000228701663549    4.00022870641718    
  Si    1.333409554175955    9.333866902947909    4.00022870580991    
  Si    6.66704775525142    9.333866903940136    4.000228705487739    
  Si    1.3334095528615604    4.000228699741885    9.33386690935033    
  Si    6.667047753937026    4.000228700734109    9.333866909028158    
  Si    1.333409553853784    9.333866902018466    9.333866908420887    
  Si    6.667047754929249    9.33386690301069    9.333866908098717    
  Si    5.333638153617337    2.6810130008633977e-08    5.1145138547912014e-08    
  Si    10.667276355685026    5.333638230078939    4.989352621549823e-08    
  Si    5.33363815460956    5.333638229086715    5.021569752308444e-08    
  Si    10.667276354370632    2.687291233415122e-08    5.333638253433945    
  Si    5.3336381532951656    2.5880688983806393e-08    5.333638253756117    
  Si    10.667276355362855    5.333638229149496    5.333638252504504    
  Si    5.333638154287389    5.333638228157273    5.333638252826676    
  Si    4.000228653950226    1.3334095176363627    4.000228700597271    
  Si    9.33386685502569    1.3334095186285857    4.0002287002751    
  Si    4.00022865494245    6.667047719912946    4.00022869966783    
  Si    9.333866856017913    6.6670477209051695    4.000228699345659    
  Si    4.000228653628055    1.3334095167069218    9.333866903208248    
  Si    9.333866854703519    1.333409517699145    9.33386690288608    
  Si    4.000228654620279    6.667047718983506    9.333866902278809    
  Si    9.333866855695742    6.667047719975729    9.333866901956636    
  Si    10.667276336516947    2.6668190727469883    2.666819068473717    
  Si    5.333638135441481    2.6668190717547646    2.666819068795888    
  Si    10.667276337509167    8.000457275023571    2.666819067544276    
  Si    5.333638136433704    8.00045727403135    2.666819067866447    
  Si    10.667276336194773    2.6668190718175473    8.000457271084695    
  Si    5.333638135119309    2.666819070825323    8.000457271406866    
  Si    10.667276337186998    8.000457274094131    8.000457270155254    
  Si    5.333638136111533    8.000457273101908    8.000457270477424    
  Si    4.000228645494207    4.0002287054949965    1.3334094969260195    
  Si    9.333866846569672    4.00022870648722    1.3334094966038486    
  Si    4.000228646486431    9.333866907771577    1.3334094959965788    
  Si    9.333866847561898    9.333866908763802    1.3334094956744074    
  Si    4.000228645172036    4.000228704565555    6.667047699536998    
  Si    9.333866846247501    4.000228705557778    6.667047699214827    
  Si    4.00022864616426    9.33386690684214    6.667047698607556    
  Si    9.333866847239726    9.333866907834363    6.667047698285385    
  BEGIN_BLOCK_DATAGRID_3D    
  3d_datagrid_density    
  BEGIN_DATAGRID_3D#0    
  49    49    49    
  0.0    0.0    0.0    
  10.66727640215093    1.9844467006896555e-09    -6.443426151724137e-10    
  1.9844467006896555e-09    10.667276404553169    -1.8588820496551723e-09    
  -6.443426151724137e-10    -1.8588820496551723e-09    10.667276405221958    
  0.04211197936758882    0.0432185962632006    0.046419077746084905    0.051138911605651705    0.056243761002135746    
  0.060474986524252906    0.0626429142886374    0.0620811338347157    0.05922531479398923    0.055262629046367244    
  0.05129272484682755    0.04840540263941431    0.04748916006577998    0.04920664476118731    0.05448427912672118    
  0.06482505951052663    0.08347650181652655    0.11671098147449696    0.17383060038093187    0.2639416649419384    
  0.37059068183507216    0.39068367279418714    0.2421473278587153    0.09632141361951893    0.05562868178242088    
  0.09632148787685008    0.2421473785146287    0.39068382807204716    0.3705905826640991    0.26394162546542665    
  0.17383052034127464    0.11671100531690758    0.08347648976961068    0.06482505701676598    0.0544842761349135    
  0.04920664444085172    0.047489137918375765    0.04840540212599932    0.051292700591061724    0.05526262444198387    
  0.0592253060824031    0.062081123113156354    0.06264291883269635    0.060474971411864406    0.056243790832852456    
  0.05113889070963189    0.046419099945157215    0.043218566571927866    0.04211197936758882    0.0432185454359237    
  0.044433722030445245    0.04793133010795931    0.0530701560987948    0.05869127022010569    0.06335278180976261    
  0.06573144825711816    0.06512292626756803    0.0619640530882877    0.05752717164166884    0.05314925045886085    
  0.050012503445266705    0.0489998077228325    0.05075138035648717    0.05618152467162299    0.06677869429080571    
  0.08562696669149349    0.11855200922629103    0.1741882187854256    0.26120185961628356    0.36711863705754566    
  0.40568553177999084    0.2887156453581338    0.14437643396871255    0.09640397886297183    0.14437650459087878    
  0.2887156133993513    0.40568557120968635    0.3671185745405074    0.26120181517325536    0.17418823018073076    
  0.11855193769641993    0.08562698959895512    0.06677872613800959    0.056181558172389755    0.05075133667016197    
  0.04899981169367927    0.05001252132097847    0.05314927829294166    0.05752715710646519    0.06196404723572116    
  0.06512291447961929    0.065731400378183    0.06335278021209399    0.058691265516494    0.053070149688467114    
  0.04793131840624939    0.044433715482264845    0.0432185454359237    0.046419077397851456    0.04793133267901065    
  0.052259590865058    0.05868574001410996    0.06581052555988177    0.0717671090581355    0.07481625254924869    
  0.0741805644619684    0.07028298950954161    0.06467471177429894    0.059190075986234575    0.055333319306864484    
  0.05403333820570375    0.05589393707288353    0.06176136079773433    0.07299145736289361    0.09208651816710857    
  0.12372724922960032    0.17472468853334874    0.2520566785417557    0.35026619321377517    0.42019275782425264    
  0.3871536615837553    0.28909029834209704    0.24263724157205346    0.28909038442622886    0.3871536662738889    
  0.42019267785145387    0.35026625872434064    0.25205657197363557    0.17472473054664914    0.12372719087400867    
  0.09208656383124983    0.07299151224969336    0.06176133696481433    0.05589391695948397    0.054033334605212785    
  0.05533330866406382    0.059190103060400324    0.06467474304831548    0.07028300043081492    0.07418056495519709    
  0.07481627159636381    0.07176711977017124    0.0658105333172157    0.058685724987929413    0.052259601933889406    
  0.047931332928843204    0.046419077397851456    0.051138889217967935    0.053070163761893746    0.05868569693650149    
  0.06712100592055803    0.07665496558898018    0.08484598765239404    0.08939700083793425    0.08915417734714746    
  0.08456772005765154    0.0775932753726876    0.07068380751007894    0.0657411659774329    0.06397982016089775    
  0.06603372753497691    0.07253042060041914    0.08435830581012142    0.1031217033762834    0.13187184954727962    
  0.17487608709609984    0.23599840570948627    0.31334939956448177    0.387171862321104    0.4204198870144575    
  0.40639298851800143    0.39159502113723    0.4063930230942034    0.4204199218069639    0.3871717379601799    
  0.3133493353998561    0.23599836612177252    0.1748760833268494    0.1318717755344994    0.10312169445800541    
  0.08435826422086817    0.07253042700609962    0.06603369825842495    0.06397980200907591    0.06574120713713065    
  0.07068378648316888    0.07759325376816237    0.08456768911854749    0.08915419784655514    0.08939698890282016    
  0.08484599669739505    0.0766549725356236    0.06712102054983674    0.058685741839369705    0.05307015202801574    
  0.051138889217967935    0.056243757746397734    0.05869128742262071    0.06581051091971249    0.07665496282718773    
  0.08924186326032148    0.10077529551434761    0.10818538913431548    0.1096226209964299    0.10544572266320858    
  0.09800339846510689    0.09019066374510319    0.08436028360621195    0.08214677500169416    0.0843456527138952    
  0.09114407989099825    0.10270762430446352    0.1195201971489972    0.14291736316311773    0.17461185460971793    
  0.21543717383741487    0.2639108537864227    0.3131509589600169    0.35026914612833415    0.36756778002206186    
  0.3712440238105359    0.36756776733277546    0.3502691082824839    0.31315097686123455    0.2639107955976343    
  0.21543723489056113    0.17461186683415536    0.14291735507285885    0.11952022112021221    0.10270769111010668    
  0.09114401616610354    0.0843456904328991    0.08214675000188265    0.08436029173955553    0.09019064305374262    
  0.09800340799050829    0.10544571382848723    0.10962268929529233    0.10818534906632378    0.10077529631695122    
  0.0892418474702328    0.07665492959095573    0.0658105140466553    0.05869129051022879    0.056243757746397734    
  0.06047494625942594    0.0633527892847204    0.07176712475173758    0.084845999547404    0.10077532357634321    
  0.11653217958311898    0.12854759178092212    0.13438775343385984    0.13383702865488714    0.12885319107871612    
  0.12238968018255575    0.11707297508391597    0.1149015071715894    0.11680355540617858    0.12247934708117145    
  0.13129045579776763    0.14278989225035554    0.15691535862579198    0.1739796764446706    0.19378263729879622    
  0.2150305141836307    0.23541776604511327    0.25164298101758076    0.2611136222738296    0.2639945747497345    
  0.2611136700126691    0.2516429727160298    0.23541775083939645    0.21503053356835927    0.1937826266589911    
  0.1739797192341602    0.15691531266849928    0.14278994648449891    0.13129044435252132    0.1224793630213796    
  0.11680350852962085    0.11490157800821425    0.11707295125032698    0.12238967987990829    0.12885320797989797    
  0.13383699351576722    0.13438773870443824    0.12854754174745156    0.1165321577043635    0.10077530871738354    
  0.08484600036729044    0.07176711559792442    0.06335277689478012    0.06047494625942594    0.06264290169105173    
  0.06573142082956303    0.07481627736982306    0.08939700995155582    0.10818537174443116    0.12854757662509594    
  0.14728095285904094    0.16178588945258265    0.1705622200926353    0.17396054157325302    0.17386385603376703    
  0.17243031402437106    0.1715459441513356    0.17211673493413907    0.17345806465438052    0.17446156630121115    
  0.17471060548225684    0.1742079946354613    0.1735568303604495    0.1735290032319115    0.1738473640551781    
  0.17404777881696104    0.17409660688951165    0.17381978126028638    0.1735686095834156    0.17381984168800352    
  0.17409658005848114    0.17404776712125197    0.17384734993441825    0.17352900035127647    0.17355679474446015    
  0.1742079333616221    0.17471059476267362    0.17446157402226103    0.17345802481604689    0.1721167280717775    
  0.17154590307744244    0.17243039345460187    0.17386390552812303    0.17396056333918608    0.17056223425245545    
  0.16178589100381457    0.147280981683318    0.12854759080731656    0.10818539710404225    0.08939701492014752    
  0.07481628158037457    0.0657314285608172    0.06264290169105173    0.062081099665966276    0.06512292797505649    
  0.07418055853820521    0.08915413854709373    0.10962263874077718    0.1343877291792923    0.16178584033091675    
  0.1896323941989574    0.21533050788504277    0.2365620390888905    0.25134917054126765    0.25908285157266125    
  0.2613109208354753    0.25918112001140914    0.2512446021188082    0.2361829397537338    0.21611877056368564    
  0.19447026051666164    0.17388009051741005    0.15626317401639106    0.14211434362358608    0.13114453045007815    
  0.12324078724764187    0.11829197771428068    0.11653691764924605    0.11829198720382762    0.12324076994769233    
  0.13114453920025892    0.14211438261626969    0.15626317627733244    0.1738800830999725    0.1944701243522896    
  0.2161188558207541    0.23618292544977904    0.25124463237986416    0.25918100415887835    0.2613109394917999    
  0.25908288144830455    0.25134924990672197    0.23656199699166333    0.21533064763468882    0.18963242383451545    
  0.16178585434150874    0.13438773256162787    0.10962263406746961    0.08915413226594962    0.07418056697657316    
  0.06512289175057737    0.062081099665966276    0.05922527587703785    0.061964035478632135    0.07028297743954667    
  0.08456770469943777    0.10544568476091291    0.1338369710430598    0.1705621825254243    0.2153305793598033    
  0.2655118228633352    0.31404261336380257    0.34906740877423287    0.3645233957845771    0.3679348831336259    
  0.36565264858334307    0.35030127787409965    0.3143757564120312    0.26524788851201964    0.21609291105711317    
  0.17441200947626462    0.14229341162353035    0.11900187832382517    0.10276656310041413    0.09197847619702976    
  0.08571213631174464    0.08363461810318015    0.08571215949649265    0.0919784164376544    0.10276654588764063    
  0.11900191824973322    0.14229339809640532    0.17441199383521783    0.21609288449837102    0.2652479154547684    
  0.31437578159113344    0.3503011963427462    0.3656526737417678    0.3679349815297663    0.3645233110206087    
  0.34906750118120955    0.31404267916390083    0.2655118663015265    0.2153306339459603    0.1705621956758893    
  0.13383696400022832    0.10544566296883649    0.08456770023990799    0.07028299124650367    0.06196406762163398    
  0.05922527587703785    0.055262604388106984    0.05752716906276631    0.06467472813072672    0.07759328352460804    
  0.09800337731026795    0.12885315098144862    0.17396052554938543    0.23656202324925357    0.31404263891836554    
  0.38656761223923475    0.41797504691256004    0.40294235669285633    0.3886773553109834    0.4050999959391266    
  0.4210531477567444    0.3889126496734965    0.31488606124878143    0.23655620813362957    0.17457166158496534    
  0.13127168697030236    0.10273571005984182    0.08457480185829194    0.07342181267112653    0.06736411122639446    
  0.06546720636875704    0.06736416476674963    0.07342180580238225    0.08457477907109022    0.10273568043181618    
  0.13127162769780945    0.17457164803270736    0.2365560208781292    0.3148860880881037    0.3889125580194537    
  0.4210531543827612    0.40509984742017174    0.3886773147138789    0.40294239888249034    0.41797519607553074    
  0.3865676104135246    0.31404267879563774    0.2365621353071985    0.1739605276975058    0.12885317099521482    
  0.09800338685590332    0.07759330223003277    0.06467475797443263    0.057527110025310815    0.055262604388106984    
  0.05129268690755927    0.05314928031461294    0.05919006023473963    0.0706838038317725    0.09019066128254113    
  0.12238968558051681    0.17386385527101936    0.25134920107770525    0.349067597189994    0.41797498574255953    
  0.3843917200551958    0.2868258028159999    0.2412614426589774    0.2887295635147829    0.3882528474063471    
  0.4222530342675945    0.3518127834605817    0.2524369217866939    0.17430472954090234    0.12314002599855721    
  0.09181145112472558    0.07332485062338755    0.06270221801165006    0.05723331724582833    0.05557967808172873    
  0.05723332150333732    0.06270218887593981    0.0733248610537983    0.09181144187628196    0.1231400361907595    
  0.17430470308295465    0.2524368660248899    0.3518128286821915    0.42225312755840316    0.38825271809191736    
  0.288729589730465    0.2412614075272886    0.2868258799931818    0.38439157703081056    0.41797502395659125    
  0.3490675325702832    0.25134928418534114    0.17386385012207106    0.12238971694031539    0.09019065464176387    
  0.0706838020481501    0.05919007095633303    0.053149281401133    0.05129268690755927    0.048405393383949065    
  0.05001247919291178    0.05533332321975681    0.06574119990209111    0.08436027474742874    0.11707287677597204    
  0.17243023914911018    0.25908282723983916    0.3645233302909423    0.4029423292606571    0.28682582935254924    
  0.14352058594741038    0.09607123737744436    0.14448589602888448    0.2898499104701734    0.4076306898844788    
  0.36841735685330307    0.2613337164439887    0.17363668154624845    0.11797177436868533    0.08543672397719052    
  0.06719290282226022    0.0571616698447384    0.05211083142146295    0.050600492283580246    0.052110814314189395    
  0.05716163912836051    0.06719288629500395    0.08543672200034517    0.1179716875783214    0.17363664775516163    
  0.2613335712347851    0.3684172979009821    0.40763068325161916    0.28985006750343345    0.14448590481523    
  0.09607126531996067    0.14352054783082746    0.28682573240664117    0.4029423272723195    0.3645233432880279    
  0.2590829146621291    0.17243029445284064    0.1170729255481079    0.08436028909431326    0.06574117224290069    
  0.05533329712435421    0.05001247661405661    0.048405393383949065    0.04748913531293581    0.04899984215238203    
  0.05403333467606771    0.06397983539668312    0.08214675612491956    0.11490154089600546    0.17154585816867485    
  0.26131096449531976    0.3679348380305656    0.38867720441327924    0.2412615046191006    0.09607130136913988    
  0.055594801358535235    0.09655297230169674    0.24315072021007478    0.3922428651843864    0.3714781600824721    
  0.2637827701939436    0.17315250557102568    0.1161374312850146    0.08334386792736982    0.0652857440561363    
  0.0554897248816222    0.050573156138982986    0.049108269631943646    0.05057313156786809    0.05548968216872838    
  0.06528576705710598    0.08334382959537362    0.11613743211408442    0.17315247966552194    0.26378267222369567    
  0.3714780072912309    0.39224294934586895    0.24315072391663076    0.0965530299768403    0.05559479706492331    
  0.09607127962361511    0.24126139040984737    0.38867718126613016    0.3679349112855317    0.26131099314758854    
  0.17154594061834486    0.11490158189713014    0.0821467834666522    0.06397982542740714    0.05403333881715031    
  0.04899982400862715    0.04748913531293581    0.04920659724258223    0.050751372693730264    0.05589392277444614    
  0.06603371598556973    0.08434568356053943    0.11680347710684175    0.1721166283937993    0.25918099653934534    
  0.36565250354099615    0.4051000137152454    0.288729578697014    0.14448593673967197    0.09655297759272571    
  0.14476743643340703    0.28967759405293325    0.4068321046205335    0.367556692251347    0.2607794805783329    
  0.17342754840623176    0.11799250931364495    0.08551962438552416    0.06725830124061881    0.05718932170723614    
  0.052103879479475715    0.05057924459845933    0.05210390555587987    0.05718932939212443    0.06725825584801197    
  0.08551965231967872    0.1179924822635502    0.17342755783092023    0.26077929866375765    0.3675567001069395    
  0.4068323425621065    0.2896775688803446    0.1447674378029632    0.09655295505610968    0.14448589831156639    
  0.28872961290607857    0.4050999131655084    0.3656526205890742    0.2591810206617926    0.17211668518126805    
  0.11680347621711339    0.08434568137587314    0.0660336680743801    0.05589395039917196    0.05075134545130601    
  0.04920659724258223    0.05448424610014012    0.056181544450424975    0.06176138894880467    0.07253038565006456    
  0.09114404782378809    0.12247936703036938    0.17345800520261231    0.2512446110135903    0.3503012275867937    
  0.42105307742524894    0.3882528882345457    0.2898500900950386    0.24315071916274775    0.2896776476675895    
  0.3880128374647495    0.4209077308392061    0.3503224555638127    0.2514959890977111    0.17397077900137517    
  0.12318946284998993    0.09198395215447114    0.07346083944965001    0.06275502689805684    0.05721199315930748    
  0.05552942875031085    0.05721200277084435    0.06275501733496708    0.07346079729820879    0.09198395556272254    
  0.1231894136293548    0.1739707601560136    0.25149589581274734    0.3503224891945379    0.4209078139068615    
  0.38801284296157346    0.28967763997563134    0.24315067214846295    0.28985006731966473    0.3882529120555162    
  0.42105311217629715    0.35030120956015726    0.25124472496092215    0.17345805420241903    0.12247940661125868    
  0.09114404334526939    0.07253038575886052    0.061761357157421426    0.05618160002937779    0.05448424610014012    
  0.06482500620269496    0.06677869117975259    0.07299149283561668    0.08435827306206788    0.10270762560014111    
  0.1312904328122106    0.17446146719891328    0.23618292883945669    0.3143758043718041    0.3889124844575914    
  0.4222531719933819    0.40763073317346227    0.39224285506597867    0.4068323384856211    0.4209079234886629    
  0.3874665951007842    0.3132168630705355    0.2354961402887684    0.1742172708745958    0.131373221090005    
  0.10300711577231292    0.08479074267925525    0.0734939240130871    0.06731435889776467    0.06536923740043804    
  0.06731438870504669    0.07349389021356137    0.08479073136333296    0.1030070918383432    0.13137313556313024    
  0.1742172102472482    0.2354959431667674    0.31321679628606514    0.38746647250274363    0.42090774160042865    
  0.40683220830812156    0.39224291787165205    0.40763069444452565    0.4222531630994315    0.3889125644566291    
  0.3143757941934438    0.23618306435243927    0.17446154615009532    0.13129041571579525    0.10270765974505602    
  0.08435833479846089    0.07299150030165154    0.06677867075393994    0.06482500620269496    0.08347647115870581    
  0.08562696661972981    0.09208652392106224    0.10312171026563528    0.11952020548101853    0.1427898395404028    
  0.17471059645049636    0.21611876777084674    0.2652479006134348    0.3148860042560918    0.3518127666574319    
  0.3684172442835041    0.37147808240015356    0.3675567184436759    0.3503225210816061    0.3132167643852672    
  0.2638368154053463    0.21513505575204406    0.1741144805630762    0.14247530981640913    0.1193819407711753    
  0.1030693199032111    0.09206510241175642    0.08560927127573922    0.08345969061873776    0.08560927502610713    
  0.09206502929268806    0.10306931138080343    0.1193819721200836    0.14247535975718392    0.1741144481659307    
  0.21513491517050956    0.2638368425753935    0.31321673766104596    0.3503224602619595    0.3675566388481036    
  0.37147807086602985    0.368417294128361    0.35181281639326156    0.31488601978922665    0.2652479928503127    
  0.21611880222621888    0.17471053130787    0.14278992912320218    0.11952016972880872    0.10312165391399605    
  0.09208653224442762    0.08562696997450941    0.08347647115870581    0.11671095841675735    0.11855198516425981    
  0.12372716231385723    0.13187180682840668    0.14291734659854888    0.15691529444206237    0.17420791122866433    
  0.1944701617160273    0.21609286474358685    0.23655607931882733    0.2524367955161524    0.2613336220961881    
  0.2637826105786734    0.2607794432879275    0.25149593335344417    0.23549602232752348    0.2151349616329085    
  0.19372157048225233    0.17367440652862742    0.1565379625958825    0.1426008463713579    0.1315393316888022    
  0.12333573305070297    0.11810706983886596    0.11624300463497975    0.11810710522472183    0.1233357889056397    
  0.13153930791515986    0.14260083170791782    0.15653796316901736    0.17367444469260795    0.19372147183668229    
  0.21513498685118662    0.23549599326660023    0.2514959468770899    0.2607793735085689    0.2637827045250995    
  0.2613335959617475    0.2524367714919681    0.23655612719102959    0.21609286855339008    0.19447017562362984    
  0.17420795073482126    0.15691530803254827    0.14291737191983436    0.13187179658319614    0.12372714496115483    
  0.11855197491796467    0.11671095841675735    0.17383049858804187    0.17418826594254935    0.17472472944644163    
  0.17487609474987312    0.17461189265558252    0.17397965688876002    0.17355679862424536    0.173880079911163    
  0.17441199849505767    0.1745716489613502    0.1743047524720582    0.17363671272625808    0.1731525285707475    
  0.17342757661854472    0.17397082104426015    0.17421724788309398    0.17411447953732995    0.17367446410344248    
  0.17343121073564408    0.17386571965517103    0.17442253497513355    0.17453477926004385    0.17420753379699852    
  0.1735290966609188    0.17312143554800125    0.17352913132206219    0.1742074603671607    0.17453475115009856    
  0.1744225070947902    0.17386569853332834    0.17343113918010067    0.17367445433879333    0.17411447047501147    
  0.17421729940228053    0.17397080061932144    0.17342756037474147    0.17315247570166592    0.1736367139400843    
  0.17430473634718324    0.17457168649705895    0.17441203436732303    0.173880116253519    0.1735568092348488    
  0.17397975393479034    0.1746118417323882    0.17487616638013795    0.17472467158899616    0.17418823667730435    
  0.17383049858804187    0.2639416127397174    0.26120187127806865    0.2520565716960895    0.23599843570442947    
  0.2154371359246731    0.19378257983663796    0.17352895567898116    0.15626316511629362    0.1422933995197122    
  0.13127165549377454    0.12314000299894222    0.11797174842743169    0.1161374119451942    0.11799255628562419    
  0.12318945818016261    0.13137316961830572    0.1424752992047803    0.15653804250899078    0.17386566210435528    
  0.1941084046768415    0.21564628622308282    0.23599593881773093    0.2517958466356308    0.26073386035079976    
  0.2633914152541798    0.26073391265491397    0.2517957919585212    0.235995923600919    0.21564633801587516    
  0.19410838426097304    0.17386570338124543    0.1565379703241574    0.1424754106018038    0.1313731964074342    
  0.12318944023187849    0.11799251046150717    0.1161374468237771    0.11797171162665879    0.1231400539413791    
  0.13127165760816528    0.1422934287133629    0.15626319975445085    0.17352900675266958    0.1937825912669348    
  0.21543719585801238    0.2359983766699312    0.2520566438562051    0.2612018484593779    0.2639416127397174    
  0.37059050747464767    0.36711865198432936    0.35026615989925597    0.3133493386739223    0.2639107616040974    
  0.2150304244519174    0.17384731372885415    0.14211430941808648    0.1190019520479487    0.10273567147242181    
  0.09181142417108949    0.08543673151491737    0.08334380915272745    0.08551969895563155    0.09198397578480276    
  0.1030071027857928    0.11938192162722905    0.14260091209578088    0.17442252697100305    0.21564634069287444    
  0.26449340018126505    0.3138032378501484    0.3505289877545862    0.3672032316721644    0.3706066598027633    
  0.3672032688685409    0.35052893500302007    0.313803260026662    0.26449348053883803    0.21564629748967334    
  0.17442244983903202    0.14260085983656856    0.11938193964042844    0.1030071499734018    0.09198392115499526    
  0.08551964934162301    0.08334383152460319    0.0854367514289622    0.09181147843708372    0.10273573358889966    
  0.11900187932093516    0.14211437851605846    0.17384729006936195    0.2150305390704912    0.2639107862402367    
  0.31334943894540324    0.3502661729845549    0.36711856919244956    0.37059050747464767    0.3906837223720476    
  0.40568548959107803    0.42019262216692854    0.3871717024182861    0.3131509761424465    0.23541775204239532    
  0.17404775309422948    0.13114455856575838    0.10276658274753628    0.0845747834932766    0.07332482486119891    
  0.06719289420701668    0.06528574084979982    0.06725832131311485    0.07346083963115536    0.08479075533836596    
  0.10306930809165223    0.13153937080835673    0.17453472221564387    0.23599592404132852    0.3138033009771138    
  0.38786169887263533    0.4208420959508888    0.40624559996284176    0.39119425212875014    0.40624569721366705    