#     DFTpy    
  CRYSTAL 
    
  PRIMVEC    
  1.3193077619897597    -2.285108074586252    0.0    
  1.3193077619897597    2.285108074586252    0.0    
  0.0    0.0    2.483363730620689    
  PRIMCOORD    
  1    1    
  Si    0.0    0.0    0.0    
  BEGIN_BLOCK_DATAGRID_3D    
  3d_datagrid_density    
  BEGIN_DATAGRID_3D#0    
  13    13    11    
  0.0    0.0    0.0    
  1.3193077619897597    -2.285108074586252    0.0    
  1.3193077619897597    2.285108074586252    0.0    
  0.0    0.0    2.483363730620689    
  0.05229329707795829    0.08937934507073005    0.2240247528946988    0.37505997330223273    0.3931240646056846    
  0.3421874057660008    0.31715693268973144    0.3421874613312551    0.3931241206129809    0.3750599663961354    
  0.2240247192912773    0.08937933974585151    0.05229329707795829    0.0893793614404575    0.08939719916643671    
  0.17883427507449673    0.3326945437854065    0.4004376801374703    0.36070937119088703    0.31664112308482295    
  0.3166403855037373    0.36071227005749273    0.400441600041528    0.33266424743563733    0.1788623454278496    
  0.0893793614404575    0.2240247458521612    0.17883427436809632    0.22401870353006928    0.33269075790644753    
  0.39838932715960557    0.3686261530053233    0.31532476960364547    0.2934930213762477    0.3153262167020255    
  0.3686127751143102    0.398430662371482    0.3326642067062778    0.2240247458521612    0.37505986670350144    
  0.3326945473524611    0.33269074911519714    0.37506658694502376    0.4004242807726797    0.3686449040365669    
  0.3144986557449764    0.28025784483375343    0.2802515526201124    0.31451186872996445    0.36861272746009804    
  0.40044160694606484    0.37505986670350144    0.39312406781699505    0.40043773354844253    0.3983893197700279    
  0.4004243499792361    0.3931254490880411    0.3607222834265336    0.3153033533740299    0.28025637987910923    
  0.2676669646582831    0.28025154206038017    0.3153261801839357    0.3607122190595779    0.39312406781699505    
  0.3421874140724548    0.3607093442900271    0.3686262216934399    0.368644936155814    0.36072228457883754    
  0.34217561229597676    0.31663847111394455    0.2935124505685947    0.28025640664026413    0.2802578588447613    
  0.29349301845391024    0.3166403668693876    0.3421874140724548    0.31715685902454993    0.31664110263331013    
  0.31532475301309726    0.31449869705236483    0.31530328864128376    0.3166384581951476    0.31716822378320747    
  0.3166384247772329    0.31530331367536985    0.31449869790729634    0.31532475034756857    0.3166411527722763    
  0.31715685902454993    0.34218745571787873    0.3166404447424799    0.2934930338535852    0.28025780866262595    
  0.28025639535052727    0.2935124305662402    0.31663849008414724    0.3421756316197474    0.3607222893060437    
  0.3686449124372208    0.3686260878078803    0.3607093843126541    0.34218745571787873    0.39312404676522184    
  0.3607122584329156    0.3153261768476818    0.2802515098268828    0.26766701497643997    0.28025637130821596    
  0.31530331738187817    0.3607222965408731    0.3931254891197044    0.40042435825896405    0.39838931851009446    
  0.4004376670606424    0.39312404676522184    0.37505988079056624    0.4004415382996674    0.36861285852724157    
  0.3145118892104901    0.2802515333422009    0.2802578262247024    0.31449864739267386    0.36864489410935647    
  0.40042433770787333    0.3750666051763108    0.33269071485876844    0.3326945148181685    0.37505988079056624    
  0.22402469690076673    0.33266430281411885    0.39843066645754044    0.3686127459426873    0.315326177809277    
  0.29349301863798544    0.3153246993857287    0.3686261782197323    0.398389295263403    0.3326907349182064    
  0.2240187234254176    0.17883427369085908    0.22402469690076673    0.0893793505120397    0.178862337721213    
  0.3326642917545901    0.4004415758200756    0.3607122115535886    0.316640399938635    0.3166411548115883    
  0.3607093788059068    0.40043772597262556    0.3326946135322526    0.1788343034328462    0.08939719101450248    
  0.0893793505120397    0.05229329707795829    0.08937934507073005    0.2240247528946988    0.37505997330223273    
  0.3931240646056846    0.3421874057660008    0.31715693268973144    0.3421874613312551    0.3931241206129809    
  0.3750599663961354    0.2240247192912773    0.08937933974585151    0.05229329707795829    0.10353483798417462    
  0.14793570952823246    0.2769276319548278    0.3851147290717023    0.37388969547251694    0.3187242713939491    
  0.2944434152318246    0.3187242676242806    0.3738897563509451    0.38511475746247475    0.2769276514933036    
  0.14793569286817915    0.10353483798417462    0.1479357136305648    0.14793195968379097    0.23743117789287146    
  0.3593814913179225    0.3886044769804292    0.3376013186293201    0.2941546433980503    0.2941507994573516    
  0.3376078828050911    0.38860182883293365    0.35935966078260884    0.237448832787632    0.1479357136305648    
  0.27692764516571755    0.23743120621051028    0.27695010488547717    0.3593682751379665    0.39035911651236993    
  0.34630287532878473    0.293086291795259    0.27250859250261805    0.29308550148773654    0.3462959767008297    
  0.3903896315686726    0.3593596005310089    0.27692764516571755    0.3851146357469107    0.35938147100903617    
  0.3593683271449768    0.3851024510955728    0.38859425733018155    0.34632298568632386    0.2923006306903302    
  0.2601451332775836    0.26014117790139685    0.2923103222876759    0.3462959110176801    0.3886018090093193    
  0.3851146357469107    0.3738897002915083    0.38860454638989106    0.39035915921933184    0.38859422844318037    
  0.3739083570556431    0.33761084325728974    0.2930661935213529    0.26014451193622157    0.2484763969187283    
  0.26014115722120645    0.29308546028241894    0.33760784506160874    0.3738897002915083    0.3187242828868434    
  0.3376012655512521    0.34630297402023114    0.34632300468336374    0.3376108408418658    0.31870079668494367    
  0.29415165674956306    0.27252599316015585    0.2601445148504415    0.26014516509765023    0.27250863401104924    
  0.29415076320234856    0.3187242828868434    0.29444341056254114    0.29415457922540583    0.2930863003461826    
  0.29230069246256435    0.2930661614975684    0.2941516343982681    0.2944656617427615    0.29415163935875055    
  0.29306618064577716    0.2923006304973478    0.2930862678505644    0.29415459652779713    0.29444341056254114    
  0.3187243008890557    0.29415082059788594    0.27250864617708226    0.2601451058880631    0.260144525274062    
  0.2725259743796246    0.2941516217443795    0.3187008313127297    0.3376108377954854    0.34632298588809013    
  0.34630289313571844    0.33760127458043676    0.3187243008890557    0.37388972337253223    0.33760786686949684    
  0.2930855160448778    0.26014116965972545    0.24847639626020646    0.2601445011604442    0.29306615659352064    
  0.3376108150801301    0.37390835547619794    0.3885942511055978    0.39035913843019987    0.3886044618960637    
  0.37388972337253223    0.3851146772601261    0.388601776020897    0.34629600015241785    0.29231031004763386    
  0.26014117269438286    0.26014510473193375    0.2923006534292268    0.34632298872083167    0.3885942630531472    
  0.38510239867095164    0.35936822633818805    0.3593814846258874    0.3851146772601261    0.27692766294212795    
  0.3593596745893905    0.39038963633652246    0.34629593094000244    0.2930854941308033    0.27250862617559335    
  0.2930862824894103    0.346302941288917    0.39035910269711366    0.3593682861070855    0.2769501115159585    
  0.2374311771465277    0.27692766294212795    0.14793570017857793    0.23744880761968387    0.3593596876704041    
  0.38860184330517356    0.3376078495400876    0.29415076607080837    0.29415460617132383    0.33760128144615487    
  0.3886045152495534    0.3593815693983734    0.23743116491016147    0.1479319484981187    0.14793570017857793    
  0.10353483798417462    0.14793570952823246    0.2769276319548278    0.3851147290717023    0.37388969547251694    
  0.3187242713939491    0.2944434152318246    0.3187242676242806    0.3738897563509451    0.38511475746247475    
  0.2769276514933036    0.14793569286817915    0.10353483798417462    0.29155940356945287    0.3239188400245949    
  0.380800233508468    0.3805137549467202    0.31999872602264484    0.26200762323936916    0.24059475791381596    
  0.2620075944565228    0.3199987314054005    0.38051377922035085    0.3808002151044054    0.32391883493655305    
  0.29155940356945287    0.3239188453477078    0.3238994366760664    0.3682088057839764    0.38979556816400796    
  0.34584499795277884    0.2802961824381005    0.240597991377007    0.24059578413392804    0.28030026608954495    
  0.3458425039548691    0.389786784648723    0.3682138006894765    0.3239188453477078    0.3808001899391221    
  0.3682087767892015    0.38082731935284136    0.38978548649903466    0.35406750471127724    0.29004228908930624    
  0.2400586897094236    0.22252979854107552    0.24005765413142183    0.29003936112783363    0.35407978523024475    
  0.3897867545771849    0.3808001899391221    0.3805136683900528    0.38979558827060373    0.3897855167112864    
  0.38049898991510844    0.3458413504256541    0.2900517715654336    0.239519410356479    0.21216228207219828    
  0.21215882102069689    0.2395262165774978    0.29003929436272796    0.3458424846099573    0.3805136683900528    
  0.31999873600185114    0.3458449930230417    0.3540675026335927    0.34584136490077816    0.3200156065029032    
  0.2802979489966104    0.24005170440269258    0.21216036277714195    0.20243787691562196    0.21215882378924059    
  0.2400576641797775    0.28030027112355155    0.31999873600185114    0.2620076103053748    0.28029615967751326    
  0.2900423487719276    0.29005172519545286    0.280297945080596    0.26199295856394594    0.2405959344639931    
  0.222537130963958    0.21216035631597885    0.21216228391058378    0.2225297907002701    0.24059577349960556    
  0.2620076103053748    0.24059475076451112    0.24059795348646898    0.24005873833922078    0.23951945970287938    
  0.24005165154312277    0.24059592086648757    0.24061062570423788    0.24059590911215342    0.24005167220572968    
  0.23951943882199883    0.24005870633150825    0.24059798472969918    0.24059475076451112    0.2620076259181571    
  0.24059582495629095    0.22252981765263496    0.2121622154232407    0.21216037509737098    0.22253712189518202    
  0.24059593247826602    0.26199294965995995    0.28029798537094835    0.2900517777899324    0.2900422409110949    
  0.2802961698315765    0.2620076259181571    0.3199987358209793    0.2803002846151016    0.24005767931977906    
  0.21215880328551073    0.20243788642312166    0.21216033945050267    0.2400516864528628    0.28029793077508114    
  0.3200156238938581    0.3458413657193882    0.3540675078044268    0.3458449229758743    0.3199987358209793    
  0.3805136537668599    0.3458424651455181    0.29003935608220854    0.23952621017797837    0.21215881430631886    
  0.21216226065873298    0.23951942010804023    0.2900517624965579    0.34584137245338314    0.38049897406483035    
  0.3897854422786643    0.3897955849554434    0.3805136537668599    0.3808001841197643    0.38978689672131084    
  0.3540798332679227    0.29003929837867626    0.2400576451160289    0.22252982715341332    0.24005870839817808    
  0.2900422707363535    0.35406750530161957    0.3897855067197077    0.3808273755040653    0.3682087819422526    
  0.3808001841197643    0.32391882965677754    0.36821382598876434    0.3897868868284794    0.34584256747628817    
  0.28030023445334695    0.2405958017642198    0.24059800001061135    0.28029616524211154    0.3458450045817495    
  0.38979563239852666    0.368208813156767    0.32389933106220864    0.32391882965677754    0.29155940356945287    
  0.3239188400245949    0.380800233508468    0.3805137549467202    0.31999872602264484    0.26200762323936916    
  0.24059475791381596    0.2620075944565228    0.3199987314054005    0.38051377922035085    0.3808002151044054    
  0.32391883493655305    0.29155940356945287    0.4617784076783237    0.45015616523235413    0.40617515697875317    
  0.3302669021764433    0.2526708501127909    0.2013910827802939    0.18429549890718963    0.2013910596690603    
  0.2526708471541377    0.33026694522109984    0.40617511258281064    0.4501561316803258    0.4617784076783237    
  0.45015614525143394    0.45015060002892027    0.4217443931321907    0.35921392543851294    0.28052065077738925    
  0.2170143968324667    0.18439152233382305    0.18439109712354929    0.21701517025828432    0.2805200757277534    
  0.35921520881038893    0.4217419532959737    0.45015614525143394    0.4061751335678688    0.4217443600878039    
  0.40617836403720603    0.3592143210859942    0.2910542770498281    0.2263300026396366    0.18436902221826368    
  0.17041350621795132    0.1843688163315707    0.226329740687845    0.2910536604775663    0.35921519574124156    
  0.4061751335678688    0.33026684090269    0.3592139272625988    0.35921434402074753    0.3302643960094096    
  0.2805203182387415    0.22632935859677933    0.18425388814994914    0.16248281866043865    0.16248229996282465    
  0.1842547779544736    0.22632969327938313    0.2805200593490804    0.33026684090269    0.2526708718488039    
  0.2805206599734079    0.2910543110489693    0.28052033219244255    0.25267318516325743    0.21701470673382484    
  0.18436988234159837    0.16248225391262705    0.15489865992611695    0.1624822915222437    0.1843688395089369    
  0.2170151495708773    0.2526708718488039    0.2013910595894611    0.21701436608833197    0.2263300623779518    
  0.22632935188805334    0.21701468134188584    0.20138914440565944    0.18439075591563117    0.1704134021358714    
  0.1624822467945073    0.16248281754442573    0.1704135225732976    0.18439107954773554    0.2013910595894611    
  0.1842954675902319    0.18439150126455225    0.18436907000153543    0.1842539311093948    0.18436987372785307    
  0.18439070948982275    0.18429838664753867    0.18439070862900478    0.1843698907243228    0.18425393027986556    
  0.18436903550585687    0.1843915349815517    0.1842954675902319    0.20139108990711102    0.1843911186899954    
  0.17041352888776587    0.16248276735144707    0.16248226369433075    0.17041337008768676    0.1843907456485528    
  0.20138912335656825    0.21701473678689673    0.22632936389341396    0.22632999967448686    0.2170143561000005    
  0.20139108990711102    0.2526708256843368    0.2170151499900275    0.1843688541130325    0.16248227577791527    
  0.15489866917263037    0.16248224299316666    0.18436989977187235    0.21701471523136254    0.2526731737909834    
  0.28052033112041375    0.2910543025041068    0.28052060279245805    0.2526708256843368    0.330266842228842    
  0.28052004740366115    0.22632976798983637    0.18425477247280647    0.1624823074429555    0.16248279677050564    
  0.18425391255414192    0.22632935239723007    0.28052034224418587    0.33026436817501875    0.3592142680339188    
  0.3592139341787517    0.330266842228842    0.4061751110817723    0.35921529677638886    0.29105368651789804    
  0.2263297029072707    0.1843688233000911    0.1704135384139423    0.18436905052172042    0.2263300134705672    
  0.2910543015345934    0.35921431395936954    0.40617840909649433    0.4217443238458166    0.4061751110817723    
  0.45015614166627643    0.42174200017307595    0.3592152877212982    0.2805201167478557    0.21701511841132295    
  0.18439109228206696    0.1843915314829617    0.2170143776381689    0.2805206677763828    0.35921399033321183    
  0.421744380252986    0.45015052064888794    0.45015614166627643    0.4617784076783237    0.45015616523235413    
  0.40617515697875317    0.3302669021764433    0.2526708501127909    0.2013910827802939    0.18429549890718963    
  0.2013910596690603    0.2526708471541377    0.33026694522109984    0.40617511258281064    0.4501561316803258    
  0.4617784076783237    0.46329055902661204    0.43439990263523476    0.36088696716413315    0.2741210581209412    
  0.2029229119743873    0.159927258819553    0.14595787305825175    0.1599272474229971    0.20292298265883613    
  0.2741210846654556    0.36088691970647313    0.43439984702389245    0.46329055902661204    0.4343998821796297    
  0.4343979794308857    0.3832863359182051    0.30405024047260015    0.22737619322986624    0.17294740152036994    
  0.1460950245223982    0.14609434683804828    0.17294758054275594    0.22737583678590026    0.30405170564549483    
  0.3832840820770479    0.4343998821796297    0.36088698760937016    0.38328633872715123    0.3608871322514934    
  0.3040503732869149    0.23689200233368987    0.18104359664096809    0.14649967893548346    0.13506569856247103    
  0.14649982205773937    0.18104450274524714    0.23689020472879446    0.3040516396448712    0.36088698760937016    
  0.27412099123240297    0.3040502468649945    0.3040504137068316    0.27412150994541506    0.22737592064140622    
  0.18104348313284438    0.146767162667939    0.12915922174998692    0.12916006567172528    0.1467658298848267    
  0.18104445195965144    0.22737579941986172    0.27412099123240297    0.20292294418046217    0.22737622040598723    
  0.23689200746891584    0.22737589963715943    0.20292294518218312    0.17294757086973042    0.1464996418354659    
  0.129160105687862    0.12321951609886393    0.12916005706741132    0.14649982066259767    0.1729475568025279    
  0.20292294418046217    0.1599272356076933    0.17294735950399176    0.1810436526147705    0.18104349218751897    
  0.17294755690395588    0.1599268488599663    0.14609566078649833    0.13506447498826288    0.12916010575988668    
  0.12915922300524352    0.1350657345435674    0.1460943343297117    0.1599272356076933    0.14595785201524175    
  0.14609498543287455    0.14649971261223418    0.14676715880728422    0.1464996310536085    0.14609564922837212    
  0.14595649864436175    0.14609563667188957    0.14649964106997465    0.14676715538194324    0.14649965933418305    
  0.14609499647699548    0.14595785201524175    0.159927269984161    0.14609436530855627    0.13506572276778048    
  0.12915919262332098    0.12916010915633244    0.13506447169425623    0.14609564875066602    0.15992685531468284    
  0.17294756789673174    0.18104348367757783    0.18104360598784167    0.17294738076151406    0.159927269984161    
  0.20292293577454174    0.1729475540263901    0.14649983560991933    0.1291600736563432    0.12321951897955023    
  0.12916009197612927    0.14649962711498538    0.17294754879712637    0.2029229580100515    0.22737593110999432    
  0.23689200456436985    0.22737614433456435    0.20292293577454174    0.27412102430680246    0.2273757863606193    
  0.18104452728258408    0.14676581457624335    0.12916004780315027    0.12915918626547926    0.14676718021507063    
  0.1810434834230313    0.2273759214739159    0.27412149757966237    0.30405031453044673    0.3040502459218542    
  0.27412102430680246    0.3608869679537388    0.30405173215675346    0.2368902165517893    0.18104448336231657    
  0.14649982400397024    0.135065715402336    0.14649967371912653    0.18104362305528054    0.23689199339173994    
  0.30405038436414356    0.36088709446734424    0.3832863097651977    0.3608869679537388    0.4343998915678269    
  0.3832840697448852    0.3040517660369577    0.22737579949931655    0.17294754031911913    0.1460943430120915    
  0.14609500364359476    0.17294738523145353    0.22737619464301767    0.3040502946138344    0.3832863072462314    
  0.434397947256732    0.4343998915678269    0.46329055902661204    0.43439990263523476    0.36088696716413315    
  0.2741210581209412    0.2029229119743873    0.159927258819553    0.14595787305825175    0.1599272474229971    
  0.20292298265883613    0.2741210846654556    0.36088691970647313    0.43439984702389245    0.46329055902661204    
  0.4382182357191547    0.4088337674051883    0.33569688180975166    0.25232561687778704    0.18575079662877386    
  0.14583035531067692    0.13281874096190494    0.1458303753263946    0.18575082954052627    0.25232560448286684    
  0.33569682106784443    0.40883377008997623    0.4382182357191547    0.408833788168585    0.4088370936052547    
  0.35769186351117555    0.28061838444956005    0.20839362535624764    0.15792462891600914    0.13298151458330576    
  0.1329809360531469    0.15792421584004582    0.20839416627679144    0.2806170318193803    0.35769388585652606    
  0.408833788168585    0.3356968718677603    0.3576918651794611    0.3356959658138777    0.2806175182734767    
  0.21714402097004015    0.16545139850312313    0.13356026028908635    0.12293381000417995    0.13356105556827166    
  0.16545165511545915    0.21714447434284373    0.28061700386916094    0.3356968718677603    0.252325532555251    
  0.28061840962656814    0.28061751686037967    0.25232713912178106    0.2083931653516459    0.16545235840190722    
  0.13397217445499277    0.11776614304990869    0.11776682489528105    0.13397071404137434    0.16545163604445176    
  0.20839418299304233    0.252325532555251    0.18575079090067592    0.20839366568646092    0.21714400945632067    
  0.20839320584171886    0.18575031657629082    0.1579251858624055    0.13355877827342091    0.11776704217108591    
  0.11239475097410857    0.11776682409356874    0.1335610460844095    0.15792418231631158    0.18575079090067592    
  0.14583034851420504    0.15792459594941702    0.16545144188867134    0.165452372851639    0.15792516098919712    
  0.14582964298334683    0.13298224446829057    0.12293403096595297    0.11776706167873481    0.11776615713801863    
  0.1229338050071919    0.13298093080424359    0.14583034851420504    0.1328186943625671    0.1329814995210622    
  0.1335602452474936    0.1339721844947505    0.1335587359810152    0.13298224544965742    0.1328174023352764    
  0.13298221741928548    0.13355876494416888    0.13397218702822383    0.1335602432680885    0.1329815396695197    
  0.1328186943625671    0.14583038244904215    0.13298097176540816    0.12293381058971507    0.11776612392707807    
  0.11776704773686258    0.12293402151592425    0.13298225714798775    0.14582963196604407    0.1579251816842429    
  0.16545236382917028    0.16545135237045105    0.15792462292253925    0.14583038244904215    0.18575077696918918    
  0.15792420607194826    0.1335610373977557    0.11776679830781035    0.11239477481962933    0.11776703637195907    
  0.1335587568939531    0.1579251737339918    0.18575034764341344    0.20839320814688161    0.21714400774982254    
  0.20839361738302759    0.18575077696918918    0.2523255302348477    0.20839413627694595    0.16545171710186315    
  0.13397073795918202    0.11776681134151301    0.1177661288624941    0.1339721651466415    0.16545235159359487    
  0.20839320498111213    0.2523271367750477    0.28061747178577084    0.2806183874878897    0.2523255302348477    
  0.33569680803316887    0.2806170934673444    0.2171444873538823    0.16545162730875665    0.13356102621720567    
  0.12293380447591766    0.1335602069783971    0.1654513963072114    0.21714398993306427    0.2806174999742935    
  0.3356959752895424    0.35769185442044216    0.33569680803316887    0.4088337782174062    0.35769389211509    
  0.2806170869208594    0.20839415846128992    0.15792418056710106    0.13298095919395117    0.13298153487636863    
  0.15792462014765796    0.20839365521813868    0.28061844315450807    0.3576918800846223    0.40883704488994077    
  0.4088337782174062    0.4382182357191547    0.4088337674051883    0.33569688180975166    0.25232561687778704    
  0.18575079662877386    0.14583035531067692    0.13281874096190494    0.1458303753263946    0.18575082954052627    
  0.25232560448286684    0.33569682106784443    0.40883377008997623    0.4382182357191547    0.4632905627192457    
  0.4343998889375507    0.36088694178185066    0.2741210693610578    0.202922921924551    0.159927258326128    
  0.14595785059239916    0.15992724920480825    0.20292297047218183    0.2741210802059501    0.3608869491540747    
  0.43439985546647847    0.4632905627192457    0.4343998866761572    0.4343979987363476    0.3832863407479805    
  0.30405022605129595    0.227376179191048    0.1729474113272981    0.14609503194134696    0.14609436443612075    
  0.1729475691893041    0.22737582834319092    0.3040517049891059    0.38328409108985684    0.4343998866761572    
  0.36088695146888683    0.38328635266209    0.36088711878751134    0.30405036824237414    0.23689198222947588    
  0.18104358698063086    0.1464996939490216    0.13506569724834905    0.14649983666923638    0.18104450300536082    
  0.23689021357056128    0.3040516691225691    0.36088695146888683    0.2741209959475332    0.3040502309548327    
  0.3040504226065718    0.2741215280619721    0.22737592039823015    0.18104349044684884    0.14676715169608562    
  0.12915920778762563    0.12916007138962066    0.14676581701263627    0.18104447038721705    0.2273758100679159    
  0.2741209959475332    0.2029229275639704    0.22737622786859638    0.2368920169440191    0.22737589348154874    
  0.20292295615300032    0.17294757503240873    0.14649962751151793    0.12916010595023708    0.12321951700735953    
  0.1291600471237028    0.14649981253949867    0.17294754613137453    0.2029229275639704    0.15992725884623224    
  0.17294735441846118    0.18104365548082826    0.18104349409533002    0.17294756170952366    0.15992683785937883    
  0.14609566697983067    0.13506447123632287    0.12916012139713917    0.12915923267776236    0.13506572147133503    
  0.14609434189910786    0.15992725884623224    0.14595783965512557    0.14609498805152626    0.14649969317517741    
  0.14676718114496431    0.14649961164681946    0.14609565447375533    0.1459565024274097    0.1460956542397246    
  0.14649964020835204    0.14676714872617494    0.1464996677933728    0.14609499695132436    0.14595783965512557    
  0.15992727194981143    0.1460943665198324    0.1350657326593639    0.12915919211646473    0.1291601200679268    
  0.13506446725314517    0.1460956384129323    0.15992686089092292    0.17294757637183164    0.18104348114690622    
  0.18104359878178689    0.17294736462893984    0.15992727194981143    0.20292293757239088    0.17294755684970545    
  0.146499846916415    0.1291600653144201    0.12321950805312124    0.12916010658142132    0.14649961624849692    
  0.17294755613360918    0.2029229692090824    0.22737592998880787    0.2368920042723859    0.22737616492861223    
  0.20292293757239088    0.27412101590388116    0.22737579271315644    0.18104452342526955    0.14676581472240788    
  0.1291600612226415    0.12915919386016822    0.1467671716828338    0.18104348765496472    0.22737593878894174    
  0.27412148347718757    0.3040503326246325    0.30405024676467474    0.27412101590388116    0.360886964802425    
  0.30405173312333916    0.23689022242916347    0.18104446914906713    0.14649983354169763    0.13506572002250777    
  0.1464996740562404    0.181043631363218    0.23689197581487717    0.3040503901768821    0.3608871057905215    
  0.383286314264312    0.360886964802425    0.434399868726725    0.3832840685298726    0.30405175203763585    
  0.22737583298387878    0.17294753930630538    0.14609434889556974    0.1460950056248744    0.17294736362084184    
  0.22737619513835827    0.3040502946098743    0.3832862775465537    0.4343979616317922    0.434399868726725    
  0.4632905627192457    0.4343998889375507    0.36088694178185066    0.2741210693610578    0.202922921924551    
  0.159927258326128    0.14595785059239916    0.15992724920480825    0.20292297047218183    0.2741210802059501    
  0.3608869491540747    0.43439985546647847    0.4632905627192457    0.4617784367103951    0.4501561478871202    
  0.4061751508354134    0.3302669389726123    0.2526708554210783    0.20139108740238043    0.18429549419740054    
  0.2013910608513944    0.2526708341087518    0.33026694588587013    0.4061751348378825    0.4501561448566024    
  0.4617784367103951    0.45015616520799856    0.45015063604278166    0.4217443876787806    0.3592139231666254    
  0.28052066835746686    0.21701438922521196    0.18439153164450428    0.18439108808171126    0.21701514055919674    
  0.2805200720962784    0.3592152112240028    0.4217419282035955    0.45015616520799856    0.40617510278699653    
  0.42174435914796654    0.4061783851928793    0.3592143203954047    0.29105429399461424    0.2263300225725353    
  0.18436903535798793    0.1704135207725021    0.184368823179464    0.22632975670966    0.2910536357092513    
  0.3592151967062098    0.40617510278699653    0.3302668439715498    0.3592139479711982    0.35921433752921916    
  0.3302643870059083    0.2805203347219748    0.22632936334092854    0.18425390387934792    0.16248281751068913    
  0.16248230032217972    0.18425476020111659    0.22632970791401374    0.28052003401899916    0.3302668439715498    
  0.2526708464578038    0.28052067219209537    0.2910542951638683    0.2805203504027635    0.25267317256905697    
  0.21701469240279048    0.1843699106554501    0.1624822466842887    0.15489866212334114    0.16248230205759603    
  0.18436884320981956    0.2170151509471964    0.2526708464578038    0.20139106561362258    0.21701435914422587    
  0.22633006476959416    0.22632932411801218    0.21701469935980974    0.201389136384646    0.1843907462498472    
  0.17041337788325345    0.16248224853346516    0.16248282130428776    0.17041351272276672    0.18439106871800906    
  0.20139106561362258    0.18429548835983628    0.18439150443859664    0.18436906860983643    0.18425394107086449    
  0.1843698660319892    0.1843907377874829    0.18429838013256375    0.1843907116440857    0.18436989484455943    
  0.18425392457230508    0.18436904479238117    0.1843915304559451    0.18429548835983628    0.20139107647763316    