#     DFTpy    
  CRYSTAL 
    
  PRIMVEC    
  4.699426662378254    1.966065969410276e-05    -4.929289655172415e-13    
  -2.3496963045573875    4.069832820860105    -9.644396551724138e-12    
  -8.105613793103449e-13    -1.877907517241379e-11    7.726587621250172    
  PRIMCOORD    
  4    1    
  Si    1.1698679676590919e-05    2.713228241903559    4.345230674656681    
  Si    2.349718659135684    1.3566242395829502    0.4819368069766694    
  Si    1.1698681442135683e-05    2.7132282419024394    7.244650757214792    
  Si    2.34971865914331    1.3566242396130916    3.3813570036319263    
  BEGIN_BLOCK_DATAGRID_3D    
  3d_datagrid_density    
  BEGIN_DATAGRID_3D#0    
  21    21    33    
  0.0    0.0    0.0    
  4.699426662378254    1.966065969410276e-05    -4.929289655172415e-13    
  -2.3496963045573875    4.069832820860105    -9.644396551724138e-12    
  -8.105613793103449e-13    -1.877907517241379e-11    7.726587621250172    
  0.015645188272657148    0.016244722404766234    0.018357942051614298    0.0229127334259207    0.03167729164211815    
  0.047511784483083    0.07384550378191732    0.11226318713544906    0.15802414329177703    0.1975119747873065    
  0.2134487921129305    0.19751200605900854    0.1580241200130746    0.1122631944798841    0.07384550378156576    
  0.04751177577866681    0.03167729104806053    0.022912736365784576    0.018357943812279762    0.01624473804278648    
  0.015645188272657148    0.016244734242249148    0.016244888257665645    0.017606840884977465    0.020991517407346498    
  0.027860094727022857    0.04084111584149563    0.06365438474483094    0.09974058744326367    0.1481244974785018    
  0.1983208713020741    0.23150762729281865    0.2315070569922669    0.198343521670316    0.1481119947782144    
  0.09973080562065431    0.06366698862600412    0.04084042248793584    0.02786047249952394    0.020990728138975692    
  0.017607644294242376    0.016244734242249148    0.018357947636011545    0.017606842152455584    0.01835828056991324    
  0.02099053443081708    0.026822579615689457    0.03855674109048876    0.0606858094758363    0.09868761162018538    
  0.1553291267033297    0.2231115224933961    0.280659016680181    0.3034242789395861    0.2806308270674367    
  0.22311508732027477    0.15536164512603037    0.09868527514491272    0.06067822128320204    0.03855822289689141    
  0.026824404969464054    0.02099072577244768    0.018357947636011545    0.022912732364461466    0.02099151635723622    
  0.02099053774680495    0.022913145677931904    0.027860473088847676    0.03855972610786075    0.06015310521550244    
  0.10054373697420842    0.16698037539452443    0.2553682248067531    0.3403220447532475    0.38984049865190673    
  0.3898823442072024    0.34033112508271224    0.2553446065802748    0.16698088827693836    0.10054847155990741    
  0.06016448654129122    0.038558220878707944    0.027860484886649668    0.022912732364461466    0.031677294750322445    
  0.02786009428185714    0.02682257761100065    0.027860478202118073    0.031675085824279026    0.0408402963984535    
  0.06068362373914052    0.10055029255325398    0.17218627708018577    0.27649446537287803    0.38080984460489764    
  0.438442616026269    0.45109932070664105    0.4384520086701224    0.38085816406419365    0.2764880364031306    
  0.1722013931737905    0.10054846070955975    0.06067823692399848    0.04084041115769923    0.031677294750322445    
  0.04751179356222105    0.04084109364183672    0.03855671698946958    0.03855972671665989    0.040840285243175636    
  0.047515428150734354    0.06365334408256508    0.09868964445742669    0.1669815160334374    0.276485271995168    
  0.3927724741108038    0.44015556433083425    0.42339907902671337    0.4233832328067818    0.44008624257398904    
  0.39280577527550564    0.2764880920663333    0.16698087688477428    0.09868525577188868    0.06366700841652018    
  0.04751179356222105    0.07384552328840416    0.06365436527848183    0.06068578975864648    0.06015308868422698    
  0.06068360661542839    0.06365336476103008    0.07385988087670632    0.09972673681564362    0.15535351901331615    
  0.2553431667535286    0.3808646534897539    0.4401267081093408    0.39357121173685794    0.35449309172446625    
  0.3936334839512558    0.4400862887582884    0.38085818581563224    0.25534460519270324    0.15536167627867156    
  0.09973081920719706    0.07384552328840416    0.1122631860978906    0.09974056878297143    0.09868760770948137    
  0.10054373276772882    0.10055027824197293    0.09868964928721355    0.09972673997595882    0.11226935719419356    
  0.1481246465812322    0.22312182188098156    0.34031943093247563    0.4384516935697994    0.42339101466753354    
  0.3545243149188069    0.3544930606010061    0.42338321693477127    0.43845206977440654    0.3403311162038957    
  0.22311514771084096    0.14811204400327133    0.1122631860978906    0.15802418512884447    0.14812451011989924    
  0.15532913481196034    0.1669803486729671    0.17218625333769247    0.16698152239806593    0.15535348205768393    
  0.14812462372954463    0.15801657259674165    0.19834980393192467    0.2806446234158827    0.3898938408701645    
  0.451098939706196    0.42339106555312217    0.3935712693617996    0.42339917572842917    0.45109943510470213    
  0.38988238869245856    0.28063088664099684    0.19834357828605328    0.15802418512884447    0.19751201552810813    
  0.19832084272127143    0.22311140428469012    0.25536816102563625    0.2764944810396224    0.2764851993135285    
  0.2553430793135992    0.2231217503834919    0.19834977438429316    0.19750730290539087    0.2315218052021276    
  0.30341181274754675    0.3898937674426003    0.4384516934541575    0.44012671624317057    0.44015540854940577    
  0.43844271958079956    0.38984046960907665    0.30342426938818    0.23150702435520182    0.19751201552810813    
  0.21344881119799386    0.23150761001366651    0.2806590146810744    0.34032202463043243    0.3808098400561148    
  0.3927724691815725    0.3808647361538941    0.3403194293635491    0.28064457289172    0.23152177764533258    
  0.21346131650192054    0.23152181972397762    0.2806446258073834    0.3403194618503664    0.3808646689930048    
  0.39277243299764286    0.3808098853018813    0.34032203756562246    0.2806590214175253    0.2315075888981988    
  0.21344881119799386    0.1975120050457944    0.2315070213805248    0.3034242099561624    0.3898404722418518    
  0.4384425892266119    0.4401555325458157    0.44012676781582144    0.4384516040073402    0.38989372511148246    
  0.3034117617228585    0.2315217546434203    0.19750729022877034    0.1983497516375034    0.22312179831929654    
  0.25534307319540206    0.2764852186248689    0.2764944908067978    0.2553681808762817    0.22311153696384126    
  0.19832085692576407    0.1975120050457944    0.1580241704582272    0.19834352600429683    0.2806308524754124    
  0.38988228966554384    0.4510993803958162    0.423399213630919    0.3935712898069746    0.42339103504673303    
  0.4510989095389781    0.3898938265460746    0.2806445674263859    0.19834979597807612    0.15801656492300317    
  0.14812465350753956    0.15535349088568412    0.16698154324404604    0.17218623607555655    0.16698038698141282    
  0.15532913679670807    0.14812451757102735    0.1580241704582272    0.11226319023880015    0.1481120169099179    
  0.22311509637402735    0.34033108217293356    0.43845204771359175    0.4233832556822056    0.35449313357059337    
  0.3545243441122963    0.4233910423063889    0.43845166949602277    0.34031945026048793    0.22312178759363485    
  0.14812461707629748    0.11226940793078334    0.09972674038654687    0.09868963726606957    0.10055028512385682    
  0.10054372143861627    0.09868760684776    0.09974061889029887    0.11226319023880015    0.0738455173207779    
  0.09973082628816568    0.15536163270195083    0.2553445547415282    0.38085810697067307    0.44008625226460285    
  0.39363356315372844    0.3544931300028843    0.3935712858373953    0.4401266702939901    0.380864703099088    
  0.2553430864708586    0.1553534939182926    0.09972675579377958    0.07385991086409058    0.06365333970991778    
  0.06068362500866584    0.06015309652132539    0.06068580957390961    0.06365435914838043    0.0738455173207779    
  0.047511795932277306    0.06366700833873572    0.09868523813261451    0.16698086090888958    0.2764880367897056    
  0.39280570853495006    0.44008631053221725    0.4233832404167661    0.42339912958649856    0.44015549388545666    
  0.39277252716953975    0.2764852657940465    0.1669814845624792    0.09868966006566937    0.06365336208458865    
  0.04751541255511853    0.040840286410723556    0.03855972345975346    0.03855672465028656    0.04084110467710798    
  0.047511795932277306    0.031677301133298086    0.04084041418161611    0.06067822021821238    0.10054845158381616    
  0.17220134547769758    0.2764880939747191    0.38085814548123975    0.4384519654687985    0.4510994046290371    
  0.43844272895684033    0.3808098007418288    0.27649444176596116    0.1721862621674755    0.10055028428386363    
  0.06068362096539949    0.04084028948381065    0.031675087068932614    0.027860462777294634    0.026822578825825515    
  0.027860101142462686    0.031677301133298086    0.02291273266685051    0.027860474758218942    0.038558215797948894    
  0.06016449367383355    0.10054846148734572    0.16698091089520972    0.255344586020715    0.3403309806687018    
  0.38988228843218764    0.38984042392365187    0.3403221040486818    0.2553682193768093    0.16698034929628325    
  0.10054376250315808    0.060153105607665916    0.03855971987703192    0.027860466387499    0.02291314621369975    
  0.020990538308542757    0.02099152434654421    0.02291273266685051    0.01835794370149985    0.02099072143520981    
  0.026824404057605427    0.0385582204961284    0.06067822557615171    0.09868526938670533    0.15536164818788273    
  0.22311511268444087    0.28063081148024716    0.3034242716607339    0.280659004013666    0.22311151764733947    
  0.1553291442192984    0.09868763288272733    0.06068580200228192    0.03855672119181244    0.026822583051590115    
  0.020990533707056263    0.018358277584778544    0.01760685001444359    0.01835794370149985    0.01624473308013514    
  0.01760764146997919    0.020990715793713494    0.027860482444393476    0.040840425673855006    0.06366701547073261    
  0.09973083191229243    0.14811199750624046    0.19834352676096434    0.23150704333804908    0.23150759139527335    
  0.19832085385853246    0.1481245129427442    0.09974059353380764    0.0636543841084717    0.0408410906571202    
  0.02786009152526928    0.020991517085307478    0.017606848289014664    0.01624488609984856    0.01624473308013514    
  0.015645188272657148    0.016244722404766234    0.018357942051614298    0.0229127334259207    0.03167729164211815    
  0.047511784483083    0.07384550378191732    0.11226318713544906    0.15802414329177703    0.1975119747873065    
  0.2134487921129305    0.19751200605900854    0.1580241200130746    0.1122631944798841    0.07384550378156576    
  0.04751177577866681    0.03167729104806053    0.022912736365784576    0.018357943812279762    0.01624473804278648    
  0.015645188272657148    0.015564876818046353    0.016145975396593328    0.018183055820708675    0.022568156588150656    
  0.03099056000088348    0.04615487121328421    0.07122508069253627    0.1076231393081556    0.15079067299052953    
  0.18787649097501155    0.20281574351533338    0.18788074926456177    0.15075960666084515    0.10762468529550805    
  0.07125304703343649    0.046148723351958534    0.03098832945675634    0.022568428849240613    0.018183071578428238    
  0.01614602141361002    0.015564876818046353    0.016146018815489573    0.01614548150087165    0.017607867062840964    
  0.021215951869132752    0.02855552881023745    0.04252447547327102    0.06725799953507805    0.10648892912733386    
  0.15914668442760357    0.21373150317790426    0.2496490101617277    0.24965330638002095    0.21377911960327844    
  0.1591477057466464    0.10645602649116244    0.06726796832413487    0.04252858517168635    0.028555697843555983    
  0.021216629349338063    0.01760781976108423    0.016146018815489573    0.01818307174713679    0.01731546161131447    
  0.01818326558556443    0.02121615547671402    0.027937703356020426    0.04157993462121713    0.06764567677425323    
  0.11299557610326105    0.18090486366062752    0.2613296274938724    0.32779651288125194    0.3533410617797674    
  0.3277195962829517    0.26133465510503023    0.18095927114424812    0.11299069425275343    0.06764124906607483    
  0.04158304097183923    0.027937356870402923    0.02121662529615348    0.01818307174713679    0.022568424189875147    
  0.020232457969329463    0.020232737243950565    0.02256771476720831    0.02855516595472759    0.041581387410191364    
  0.06824877016570768    0.11892135850172049    0.20261913557405964    0.3102374880900218    0.40296602506087265    
  0.4478052299613526    0.4479077990151036    0.40298784021408895    0.31017180407503325    0.20263431939438917    
  0.11893644028859479    0.06824893174116295    0.04158304262588609    0.028555714010765006    0.022568424189875147    
  0.030988334602481876    0.026130764516562863    0.024782740128217188    0.026131002137792975    0.03098757763676445    
  0.04252915540528389    0.06763841184731015    0.11893432730031141    0.2115017213813134    0.33858781317482806    
  0.43588647902408834    0.44856437833827567    0.4344721375647585    0.4485843085806308    0.4359749306974987    
  0.33858385080528386    0.2114960656082374    0.11893643248605883    0.0676412633765019    0.04252857787652345    
  0.030988334602481876    0.046148745998776435    0.03712946982985518    0.03383180635322726    0.033839309167318005    
  0.03712138820119282    0.046157799372706136    0.06725490888669594    0.11300311912644838    0.20261537520231623    
  0.33857642592876835    0.43914555499793745    0.3947863617671632    0.301796436936118    0.30175514640836953    
  0.39466114985560213    0.43921568800993055    0.3385838381226996    0.20263431030536833    0.11299070244682441    
  0.06726799010075662    0.046148745998776435    0.07125307880115828    0.05612907944267625    0.05055253162966856    
  0.049129839393507464    0.05055357821724011    0.05612769490599381    0.0712566189840314    0.10645300140013553    
  0.18096104207328095    0.3101603282234904    0.436002643656313    0.394730151700173    0.23663534293429153    
  0.169349168036852    0.23673804721546096    0.39466110424699347    0.4359750529294833    0.31017181627122703    
  0.18095931029494094    0.10645602241306987    0.07125307880115828    0.10762470765654758    0.0858062424980211    
  0.07857836169105778    0.07708100054355473    0.07707998050803551    0.07858167342191431    0.08580352836052944    
  0.10763118791429206    0.15914418801170957    0.26135313515663355    0.40296185067137325    0.44856091234962925    
  0.30178702149336195    0.1693934887175087    0.1693491799818417    0.30175514705102513    0.4485843779073286    
  0.40298786560644556    0.26133470342682363    0.1591477391601585    0.10762470765654758    0.15075964586921975    
  0.1251317118597914    0.11962494375424684    0.12216254997084229    0.12395933131485098    0.1221639254598778    
  0.11962920362190749    0.12513337102450656    0.15076242596340186    0.21378467572519896    0.32773540220243974    
  0.44793397555954584    0.43444550841739227    0.30178706251642345    0.23663534172146541    0.30179649287732424    
  0.4344721807572957    0.447907783201775    0.32771965468884706    0.21377918076992325    0.15075964586921975    
  0.1878808093185194    0.16551536424979893    0.16845956538846632    0.18255974444743764    0.19392905417166442    
  0.19391841639660223    0.18257030442989966    0.16845402309298807    0.16553862340980954    0.18786658780619095    
  0.24967945733742686    0.35329380704954055    0.4479339833035279    0.44856091219808664    0.39473024849551147    
  0.39478627215083    0.44856440991824054    0.4478052589061389    0.35334110620382986    0.2496533372333241    
  0.1878808093185194    0.20281576953488087    0.19211522755386276    0.2102468172995906    0.24401258853320712    
  0.2743255226767451    0.2858952068604863    0.27433580071337843    0.2440162925150769    0.21024808459686764    
  0.1921248053862239    0.20282799874185842    0.24967950467343755    0.3277354305048805    0.40296190637279145    
  0.43600263778286863    0.43914549585681106    0.4358865067935285    0.40296606180047007    0.32779655094261645    
  0.24964906246746651    0.20281576953488087    0.18787651475073366    0.1921182102931908    0.22699399719020197    
  0.28328689434647714    0.33679952307754235    0.36514654350919573    0.36515033455590323    0.3368021956037475    
  0.2833036655247206    0.22699473803424916    0.19212475389526842    0.18786657597758546    0.21378462729507586    
  0.26135314025858164    0.310160223231139    0.33857647811018227    0.3385878143155375    0.3102374242860957    
  0.2613296392475275    0.21373151010154104    0.18787651475073366    0.15079067645975053    0.16552394039581791    
  0.21023865096131358    0.28329597941848295    0.35933460371121767    0.40344417392806176    0.4141795101535683    
  0.40344271329706743    0.35934082761678826    0.2833037013285404    0.21024807006311758    0.1655386174189885    
  0.1507624237581716    0.1591442210535694    0.1809610298328834    0.20261537195561066    0.21150175433092352    
  0.20261912500470083    0.18090486829401559    0.159146751752164    0.15079067645975053    0.10762315264896664    
  0.12510192586709623    0.16845867973050246    0.2440196381110863    0.3368010138558002    0.4034391519655375    
  0.42462528166020547    0.4246274569727814    0.40344276851858113    0.3368022683587402    0.24401633896774058    
  0.1684540446826177    0.12513337813935485    0.1076312169907577    0.10645298968863563    0.11300309783893334    
  0.11893431008564564    0.11892133608180337    0.11299556422543497    0.10648895324009199    0.10762315264896664    
  0.07122508866939156    0.08580864394231755    0.11965351758300642    0.18256425762374284    0.2743324658406787    
  0.36513796781110924    0.41419233932508825    0.42462518320105963    0.41417954782203986    0.3651503103532154    
  0.27433575356980483    0.18257033621976368    0.11962922011170377    0.08580353178058059    0.07125663431020435    
  0.06725489587470711    0.06763841171606352    0.06824875767448096    0.06764568470530428    0.06725799253818288    
  0.07122508866939156    0.04615489088519864    0.056151702988018914    0.07857887913313107    0.12214018773494655    
  0.19392566945869644    0.2859040337919314    0.36513797158437145    0.40343912364488016    0.40344407948401784    
  0.36514653848804773    0.2858951864053559    0.1939184541051918    0.12216389836651477    0.07858167755463066    
  0.05612772254933537    0.04615779114026858    0.0425291356656063    0.04158136840815139    0.04157991558617647    
  0.04252446008738562    0.04615489088519864    0.03099056315475331    0.037124500299545504    0.05053285567451964    
  0.07708250746984321    0.12398766861960614    0.19392565018446953    0.2743324993106994    0.3368009983824142    
  0.3593346494672523    0.3367996173017263    0.27432553843304175    0.19392900831503052    0.12395934645084199    
  0.0770799971732922    0.050553578716023534    0.037121381134582826    0.030987576580588396    0.02855515398988491    
  0.027937699393970578    0.028555533394218777    0.03099056315475331    0.02256815944825804    0.02612841677978961    
  0.033836478835829374    0.04915080306617617    0.07708250595155669    0.12214023058167277    0.18256428232963157    
  0.24401962141417427    0.2832960002520893    0.2832868791277191    0.24401257361937115    0.18255982527073092    
  0.1221625558189748    0.07708100787798328    0.04912983925080567    0.03383931692094584    0.026130991894405167    
  0.022567714195378393    0.02121615863477269    0.021215959436519584    0.02256815944825804    0.018183058907136857    
  0.020232742598055676    0.02478527386905677    0.03383648843578845    0.05053286485041472    0.07857890350919372    
  0.11965357065003022    0.16845868912823114    0.21023860885371617    0.22699400493831834    0.2102468037296582    
  0.16845963101308914    0.11962497136117589    0.07857838269334182    0.050552528499615126    0.033831800864498225    
  0.024782746309887485    0.020232736812306973    0.01818326615483443    0.01760787781970838    0.018183058907136857    
  0.016145984847160438    0.017315258255339982    0.020232736385473075    0.026128425902774914    0.03712451104681012    
  0.05615171855558574    0.08580864151956583    0.12510189968823843    0.16552393825009928    0.19211817130508854    
  0.19211522893448968    0.16551537419370077    0.12513170638834833    0.08580626594190648    0.056129088709954436    
  0.037129471987659236    0.02613076493197535    0.02023246006994865    0.017315467367464366    0.016145480319797838    
  0.016145984847160438    0.015564876818046353    0.016145975396593328    0.018183055820708675    0.022568156588150656    
  0.03099056000088348    0.04615487121328421    0.07122508069253627    0.1076231393081556    0.15079067299052953    
  0.18787649097501155    0.20281574351533338    0.18788074926456177    0.15075960666084515    0.10762468529550805    
  0.07125304703343649    0.046148723351958534    0.03098832945675634    0.022568428849240613    0.018183071578428238    
  0.01614602141361002    0.015564876818046353    0.015330805316089581    0.015854427073075248    0.017681456421534514    
  0.021597016398867606    0.02907732344558283    0.04238806846116008    0.06406330497793063    0.09503535883015425    
  0.13126689016144824    0.1620965551117848    0.1744510676981494    0.16210321463189115    0.13122875765262285    
  0.0950367871472301    0.06409547443965936    0.04238304511867857    0.029072334351189104    0.021598571173703316    
  0.017680999558100794    0.015854677652375176    0.015330805316089581    0.015854677664205737    0.015854355823687896    
  0.017282970325461455    0.020807906220911696    0.02796130196895275    0.041529706425535474    0.06546040566409991    
  0.10315610703384745    0.15327820556295105    0.20473141164684655    0.23826547047971075    0.23826707593709237    
  0.20479054590389792    0.15328048093367774    0.10311840906565026    0.06546937865486659    0.04153829420284982    
  0.027960510664498745    0.020808413476893092    0.017283246990690282    0.015854677664205737    0.017681000763838762    
  0.0167897246467999    0.017681322204714    0.02080762962704698    0.027749177200082017    0.04182822320654467    
  0.06873667636334052    0.1155714259255979    0.18539642217008    0.26703232085541045    0.33294740624683505    
  0.3577048861719008    0.33285400643073315    0.2670335540690896    0.18546269485895966    0.11556841992262032    
  0.06872775564438618    0.04183152690070118    0.027749523310752682    0.020808413169087808    0.017681000763838762    
  0.02159856557764981    0.019117500525752302    0.019118445842632427    0.021597010648268782    0.027961690621435623    
  0.0418279020060089    0.07030906430492792    0.12459144557216525    0.2139767043039758    0.32619422708762685    
  0.4162844656136683    0.4540984802265383    0.4542222024942803    0.4163127503200477    0.32611851770470623    
  0.21398463135361825    0.12461607269956461    0.07030749180407703    0.041831533951717126    0.027960520357546557    
  0.02159856557764981    0.02907234536376787    0.023810590421586796    0.022337255467934993    0.023810653898908195    
  0.029071175404227673    0.041538563397368805    0.0687251825573537    0.12461201729710837    0.22535460968350177    
  0.35898894931512404    0.4446024126786542    0.4299699145945689    0.4027655465563698    0.42999549714999963    
  0.44469428643458314    0.3589977595663321    0.22533973128660922    0.12461607448019556    0.06872777270303992    
  0.04153828433176329    0.02907234536376787    0.04238305798681687    0.03241710723752887    0.02869875897641138    
  0.028706445344300287    0.032409225899729624    0.04239216520621954    0.06545562770467542    0.11558227243495356    
  0.2139633390025257    0.3589801414452538    0.44324507071661495    0.3534161353534587    0.23711255381915922    
  0.23706582275376528    0.3532915436840768    0.4433132397476345    0.3589978128091931    0.21398460228838087    
  0.11556839667451548    0.06546939985879884    0.04238305798681687    0.06409550058948055    0.04692394302633778    
  0.04017856749589802    0.03834524223523692    0.040179050980976655    0.04692210828878015    0.06409891008123003    
  0.10311338930877044    0.18546641880919598    0.3261020559921665    0.44473321514602043    0.3533542641940667    
  0.16820682821081345    0.10402692852628945    0.1682972582189564    0.35329152410905196    0.4446943476111293    
  0.3261185408205862    0.18546270336607226    0.10311842357490476    0.06409550058948055    0.09503678591479806    
  0.06907345361674196    0.05881514767521542    0.0555445915311356    0.055543102996195734    0.05881864696597413    
  0.06907087344161734    0.09504192480303271    0.15327661070465276    0.2670519675015587    0.4162850618947964    
  0.4299598260405594    0.23711320267960637    0.10405267589752071    0.10402693031535888    0.23706582984180863    
  0.4299955541398973    0.4163126799314836    0.26703356669265244    0.1532805406571924    0.09503678591479806    
  0.13122880795052683    0.09781531875768158    0.08534920032345697    0.08242678138518819    0.08210589942288854    
  0.08242707216899497    0.08535075675225376    0.09781771408166656    0.13123019080452636    0.20479559083273752    
  0.33286684535310146    0.45425751921898094    0.40271904139905446    0.2371132369924793    0.16820685910358876    
  0.23711260130706516    0.40276561813627726    0.4542222477344418    0.33285406772959814    0.2047906140715742    
  0.13122880795052683    0.1621032032960466    0.12683180098217955    0.11628162214635614    0.11769272821340926    
  0.12127753072693119    0.12126706759932632    0.11770528195848631    0.11627179153793461    0.1268525726451723    
  0.16208742991739236    0.23829685402136375    0.357643901034551    0.4542574857400517    0.4299598497273796    
  0.35335435017421274    0.353416124313582    0.4299699040616396    0.45409844038493846    0.35770483079595267    
  0.23826710436049578    0.1621032032960466    0.17445106198901394    0.14576817746761211    0.14246277477050254    
  0.15366271159785153    0.1675792090395575    0.1735869596298443    0.16758420731237936    0.15366650547909338    
  0.14246393873275068    0.1457745594038805    0.17446129922580428    0.23829690653947525    0.33286680639526356    
  0.41628502217313634    0.4447331474935501    0.4432450016946024    0.4446024838498803    0.4162844413568975    
  0.3329474126870362    0.23826549074726133    0.17445106198901394    0.1620965912713106    0.14577291881865395    
  0.15293319746847095    0.17712087608257934    0.2065861893119938    0.2263242800581283    0.2263240756367709    
  0.20658570461978704    0.1771281264315251    0.15293688240869735    0.1457745205702702    0.1620874095212736    
  0.2047955163270785    0.2670519316553394    0.32610199165171416    0.35898016754057843    0.3589889440719296    
  0.32619414066975444    0.2670323541951746    0.20473144398230358    0.1620965912713106    0.13126690476349753    
  0.1268375614759678    0.14245718890900622    0.17712273410045454    0.22191479469266692    0.2593785234627668    
  0.2737840033980738    0.2593821159317659    0.22191496779073322    0.1771281397181869    0.14246390730924993    
  0.12685258173041236    0.13123017141419835    0.15327664226490686    0.18546643892206188    0.21396335340039227    
  0.22535458187391827    0.21397669240397738    0.18539641892992095    0.1532782401312554    0.13126690476349753    
  0.0950353514616996    0.09778138404894689    0.11627843437562359    0.15366975044307682    0.20658360367230286    
  0.2593785630793569    0.2917048934955945    0.2917078381733816    0.259382168511673    0.20658573951805778    
  0.15366653427950758    0.116271789408259    0.09781772600107905    0.09504194632288974    0.10311341197626675    
  0.11558224715871497    0.12461200624881957    0.12459142981028953    0.11557143685379133    0.10315615410693679    
  0.0950353514616996    0.06406332810955863    0.06907408188249452    0.0853794973297513    0.11769657492086097    
  0.167581196045405    0.22632212964325274    0.2737903263845421    0.2917049028576662    0.27378395180744536    
  0.22632409022842281    0.167584152045352    0.11770530173463215    0.08535076823195996    0.0690708714862048    
  0.06409893476425531    0.06545561332756632    0.06872517311729982    0.07030905302730034    0.06873667813384332    
  0.06546037929692837    0.06406332810955863    0.04238807537438763    0.046949301653561995    0.05881515679330558    
  0.0824010435419273    0.1212724622232638    0.17359210618451126    0.22632214249545438    0.25937850185599265    
  0.25937848272754177    0.22632428244274558    0.17358698855077737    0.12126710308345189    0.0824270522437397    
  0.058818653882690475    0.0469221153724386    0.04239215207455899    0.041538549710536485    0.04182789883264274    
  0.041828201366471834    0.041529705922918575    0.04238807537438763    0.029077334078886564    0.03241221311204366    
  0.04015600953600261    0.05554382774053226    0.08213600117162885    0.12127245313135857    0.16758121939277074    
  0.2065835292479391    0.221914792381664    0.20658628053250566    0.16757922198396025    0.12127747857383257    
  0.08210590189956626    0.055543108501712006    0.040179069260333    0.032409226369183614    0.0290711722807083    