#     DFTpy    
  CRYSTAL 
    
  PRIMVEC    
  5.50541586435036    4.3912282717517246e-07    7.249532968275862e-07    
  4.391229315062069e-07    5.505417752278529    7.328820488096553e-07    
  7.249533895475862e-07    7.328820656372414e-07    5.505417370677521    
  PRIMCOORD    
  16    1    
  Si    0.8123806284114419    4.693036248609456    1.940328331745722    
  Si    4.693035622164053    0.8123823762797623    3.565088249559917    
  Si    0.8123814560013408    0.812381659302419    0.812381945208196    
  Si    1.9403311815568407    1.9403319873354994    1.9403317846120316    
  Si    4.6930342871539255    1.9403284671410082    0.8123810345096488    
  Si    0.8123804468604906    3.5650913431433175    4.693036205673681    
  Si    1.9403277406349986    0.8123825428365247    4.693036648694634    
  Si    3.5650880492431694    4.693037521408546    0.8123811006563351    
  Si    3.56508777108518    1.9403323113365154    4.6930392129099605    
  Si    1.9403291761825818    3.565086507302818    0.8123784294451393    
  Si    3.5650859451835273    3.5650892458581445    3.5650881741554894    
  Si    4.6930357780961325    4.693038371924975    4.693037344426215    
  Si    1.9403313973781786    4.693040863928764    3.5650883686383374    
  Si    3.5650851304040514    0.8123781278403218    1.9403299161227932    
  Si    4.69303774633439    3.5650887424482596    1.9403319151140648    
  Si    0.8123783653069969    1.9403305829876254    3.5650864612134043    
  BEGIN_BLOCK_DATAGRID_3D    
  3d_datagrid_density    
  BEGIN_DATAGRID_3D#0    
  25    25    25    
  0.0    0.0    0.0    
  5.50541586435036    4.3912282717517246e-07    7.249532968275862e-07    
  4.391229315062069e-07    5.505417752278529    7.328820488096553e-07    
  7.249533895475862e-07    7.328820656372414e-07    5.505417370677521    
  0.24955768598877076    0.25421357908842956    0.2683300465052608    0.2917923181106124    0.321663772960098    
  0.34802245179728253    0.35845896975211605    0.3480226798951005    0.32166395506426954    0.29179283355672386    
  0.26833051476534037    0.25421445694889416    0.2495583744923198    0.2542147100297363    0.26833096760707037    
  0.291793474383637    0.32166483177520955    0.3480235198133345    0.358459923184031    0.3480232113036564    
  0.3216644004020269    0.2917927311449905    0.2683303295969279    0.2542136911707163    0.24955768598877076    
  0.2542135977767335    0.282044262409502    0.321246279018396    0.37517765992990626    0.442393069694737    
  0.5054357505656258    0.5323159150205496    0.5054357786063901    0.44239355942407216    0.37517812281587304    
  0.3212472138623967    0.2820448810279385    0.25421453565280233    0.2364223713451542    0.22830210194791342    
  0.2283844947877863    0.234476015983021    0.24135908674838175    0.24403866858250658    0.2413590374705493    
  0.23447580554886333    0.22838415434037088    0.22830151328887227    0.2364218629599172    0.2542135977767335    
  0.26833001401849854    0.3134814163698579    0.3707575336203436    0.4497728735320526    0.5577422522242024    
  0.6712002348579249    0.7234359433340569    0.6712004439531841    0.557742568651437    0.44977346675541807    
  0.3707580716556523    0.31348221269350085    0.26833051375970934    0.23400945869657644    0.21117378769762035    
  0.19794295537587203    0.19233381715881637    0.19091199833487432    0.19060160870394563    0.1909119586983555    
  0.19233390495467906    0.19794278258637882    0.21117365962814189    0.23400884919718565    0.26833001401849854    
  0.29179225287568356    0.3431811365739512    0.4045239915942003    0.4918424611820684    0.6241223240846554    
  0.7757688762658731    0.8486957382991914    0.7757690394879273    0.6241227882637405    0.4918425506113424    
  0.4045247073557903    0.34318156528833155    0.2917928793396295    0.24990977145552906    0.22030524368911428    
  0.201945836492963    0.19297826563293988    0.1898533659401506    0.189093062951971    0.1898534596862385    
  0.19297824554654489    0.20194589365892493    0.220305077327909    0.24990959153479092    0.29179225287568356    
  0.3216639349464923    0.3673455038769897    0.42056728486023004    0.49934701607974114    0.6257637175513511    
  0.7739444472856594    0.8451274849485156    0.7739444261186873    0.6257638042536704    0.4993475025351384    
  0.4205676213628455    0.3673461845163746    0.3216642414647678    0.2829906504787112    0.2557305213459687    
  0.24095967771092566    0.23700008202659864    0.23849662998675017    0.23962372891143058    0.23849663816185215    
  0.23700019172456996    0.24095956736514984    0.25573057609682703    0.28299026719463766    0.3216639349464923    
  0.3480223524900139    0.37674969700467814    0.4129147127036554    0.47007948587495796    0.5622077646627558    
  0.6664357701841597    0.7147606165270091    0.6664356482516206    0.562208189751487    0.47007966405869855    
  0.41291544453821116    0.3767500666578114    0.348023155726951    0.32509433867827536    0.3122535599529428    
  0.31300442257067007    0.32663174584827886    0.3437598949548078    0.3512623924454358    0.3437598236455403    
  0.32663156081335454    0.3130042221187864    0.3122530767468966    0.32509399238590503    0.3480223524900139    
  0.3584593334621069    0.361334533281605    0.3729521114272651    0.40062341411252805    0.4483209079716428    
  0.5000584267849804    0.522923125214323    0.500058701029276    0.4483212257377171    0.4006240562420181    
  0.372952636256565    0.3613354606622081    0.3584600678523627    0.36133532859711237    0.3729524343922313    
  0.4006237723796203    0.44832103147786617    0.5000583088129921    0.5229226157760208    0.5000577054095791    
  0.44832036488994176    0.40062294674900817    0.3729518854419721    0.3613343696097804    0.3584593334621069    
  0.3480224618046241    0.32509427133573837    0.31225328218372944    0.31300462367312054    0.32663200180245056    
  0.34376062976633687    0.3512631023033275    0.34376057476372474    0.3266325053550122    0.31300521967059136    
  0.3122544097635071    0.3250952906304246    0.34802392563486234    0.3767509381132966    0.4129157011418875    
  0.47008031931610245    0.5622086252602286    0.6664365505861229    0.7147606939514272    0.6664355085445619    
  0.5622072572398681    0.4700790845419689    0.4129144797424074    0.37674981550120173    0.3480224618046241    
  0.32166435652641895    0.2829904881646184    0.2557308779070323    0.2409597598244446    0.23700052327593807    
  0.23849697486805413    0.2396244021829952    0.2384972045547084    0.23700099315106143    0.2409605884019469    
  0.2557318930714784    0.2829919303731825    0.3216658918707466    0.3673473974464494    0.4205688561087688    
  0.49934823442378945    0.6257652966284971    0.7739461123409012    0.8451293865811441    0.773944814801213    
  0.6257639229603186    0.49934667919429176    0.42056746226271224    0.36734567427891796    0.32166435652641895    
  0.29179249969932813    0.24991007014962865    0.22030508907126212    0.20194613384422772    0.19297822786857513    
  0.1898538234449503    0.18909342665910503    0.1898541382622091    0.19297902150692595    0.2019470681430154    
  0.2203065770176081    0.24991168914737438    0.2917947002923965    0.3431836747338345    0.4045260068062842    
  0.49184440122891043    0.6241244520611303    0.7757722977455183    0.8486986150113585    0.7757711057107789    
  0.6241229896243032    0.4918429072514568    0.40452422428938994    0.3431818221102032    0.29179249969932813    
  0.2683306947223471    0.23400902232645837    0.2111739170857743    0.1979426656443026    0.1923340362178099    
  0.19091202027821813    0.19060213006283977    0.19091247058866087    0.1923349914236066    0.1979441059288934    
  0.2111756409051008    0.23401123496877704    0.26833303466107633    0.3134844193738257    0.3707605403452157    
  0.4497754787760646    0.5577456826592002    0.6712038281811846    0.7234399393150511    0.6712026484069545    
  0.55774422430798    0.4497735665328    0.3707585522447387    0.3134819638831548    0.2683306947223471    
  0.25421403408546056    0.23642233969881638    0.2283015017550143    0.22838441750854724    0.23447565026954437    
  0.24135937950311018    0.2440389520045308    0.24136002154722144    0.23447705090253385    0.22838612522568366    
  0.22830387239347036    0.2364247323577865    0.25421680271186636    0.28204775248286634    0.3212495663172855    
  0.37518118331651645    0.44239640427794197    0.5054395641154453    0.5323190208346068    0.5054386120534721    
  0.4423947708845228    0.3751790922728129    0.32124718427009497    0.2820451911387012    0.25421403408546056    
  0.2495583619934918    0.2542140126669368    0.268330671615504    0.29179269745541947    0.3216646749961257    
  0.34802332704702016    0.3584606447861825    0.3480243446410915    0.32166640627427157    0.2917950582031711    
  0.26833328865042816    0.25421685975440333    0.24956107499206015    0.2542168652967251    0.2683331645068692    
  0.2917951493000646    0.3216666742560892    0.3480249922701805    0.3584614775720461    0.34802422554439755    
  0.32166535648001815    0.2917932526913462    0.2683309840788491    0.25421413818985317    0.2495583619934918    
  0.25421410728370336    0.28204498296751396    0.32124677288685555    0.3751785685216483    0.44239391576968307    
  0.5054374925735886    0.5323176329007302    0.5054383131192817    0.44239559899697156    0.3751807641929681    
  0.321249711243308    0.28204780542066105    0.25421693615478624    0.23642479743210634    0.22830384693320374    
  0.22838615837016113    0.23447718906647477    0.24136026316622883    0.24403942823675198    0.24135973798700214    
  0.23447624269747364    0.2283846775014247    0.22830190628843597    0.2364224984794956    0.25421410728370336    
  0.268330695960788    0.3134819449875243    0.37075821069437065    0.449773369523585    0.5577434446520615    
  0.6712014794330562    0.7234379799157061    0.6712017564961887    0.5577440805255899    0.4497747605945388    
  0.3707603933658039    0.3134846593989767    0.26833318860072375    0.2340114452889867    0.21117559928044918    
  0.1979441602679511    0.19233485118638025    0.19091267981370214    0.19060218405555318    0.19091230489990776    
  0.1923342675964828    0.19794303035499683    0.21117408159897325    0.2340093186484916    0.268330695960788    
  0.29179275366971186    0.34318172240880457    0.40452423116245173    0.49184286920896964    0.6241227647178563    
  0.7757699917796627    0.8486964150246901    0.7757696585839058    0.6241225856189287    0.4918431391846877    
  0.4045258897855067    0.3431838675154959    0.29179507798095805    0.24991187467105708    0.2203066954948995    
  0.20194701074822258    0.19297897788239002    0.18985396983051647    0.18909339387855897    0.18985372235847733    
  0.1929784364727604    0.20194613401375056    0.22030537330833969    0.24991012218126846    0.29179275366971186    
  0.32166447207946713    0.3673458372768131    0.4205673531470777    0.4993468480014576    0.6257636889077578    
  0.7739441481677442    0.8451273752875913    0.7739437986480731    0.6257633961334185    0.4993473561553697    
  0.42056866490561606    0.36734784788307384    0.32166636777862484    0.282992409430955    0.2557320226794007    
  0.2409606513859394    0.23700080832802886    0.238497091639215    0.23962402673092995    0.23849679521724212    
  0.23700035794874974    0.24095975655576637    0.25573088434577956    0.28299076264653394    0.32166447207946713    
  0.3480228401593351    0.3767499282257223    0.4129146581962492    0.47007910879691317    0.5622070678196114    
  0.6664348780176448    0.7147596026229476    0.6664348221838787    0.562207578287999    0.4700796826822372    
  0.41291612178108117    0.3767514043360886    0.3480246643648505    0.3250958746769302    0.3122547493160378    
  0.3130052730476509    0.32663233869389674    0.3437602033203541    0.35126259575059976    0.34375990143598567    
  0.3266317646772875    0.31300437358887806    0.3122534818009112    0.3250944194524469    0.3480228401593351    
  0.3584596412479829    0.3613348035585336    0.37295201964041286    0.4006230695338045    0.44832016167326677    
  0.5000573011982635    0.5229219420372634    0.5000576291195832    0.4483205828965026    0.4006238823316028    
  0.3729529048452265    0.3613361666073248    0.3584609434171025    0.36133627506873894    0.37295315673844204    
  0.40062433103665007    0.448321080916148    0.5000582925741192    0.5229224075873671    0.5000577990581453    
  0.4483203922614786    0.40062328139869685    0.3729521096482946    0.36133489609920294    0.3584596412479829    
  0.34802285108841124    0.32509439586343963    0.31225338518864687    0.3130043326168427    0.32663153006806867    
  0.3437595940979334    0.3512621405699598    0.3437595745532938    0.32663177557490797    0.31300458504786227    
  0.312254150964862    0.3250951069649227    0.34802411734345257    0.37675103070557636    0.41291593222244793    
  0.47008005828597665    0.56220812124487    0.6664356537425796    0.7147601379345675    0.6664350587306516    
  0.5622074507055536    0.4700791329922774    0.4129148728508262    0.3767499753130637    0.34802285108841124    
  0.3216643421060795    0.2829907016745922    0.2557307379720873    0.2409597208492078    0.23700011241366636    
  0.23849657242179254    0.23962363385755556    0.23849650659952376    0.23700007781334576    0.2409598736393734    
  0.2557309951444609    0.2829913533767114    0.3216651132901609    0.36734700072763216    0.4205682072725466    
  0.4993478104766347    0.6257640047316141    0.7739446756037974    0.8451275830579822    0.7739440142760035    
  0.6257635171549657    0.4993468698869117    0.42056744334665075    0.3673458855225868    0.3216643421060795    
  0.2917926109845725    0.24990992117908556    0.22030519436675042    0.201945942118518    0.19297810599410148    
  0.1898532781443733    0.1890929035336696    0.18985322325543053    0.19297823183724358    0.20194588328360705    
  0.22030552823257313    0.24991026729211424    0.2917935420891197    0.3431822914513238    0.4045251724305196    
  0.4918432134432478    0.6241232178404508    0.7757700219976837    0.8486963972349012    0.7757692163381638    
  0.6241224010793096    0.49184238322740953    0.40452415866415836    0.34318146520962184    0.2917926109845725    
  0.26833030573667144    0.23400899861119456    0.21117366233156584    0.19794266708635855    0.19233369207971723    
  0.19091174222469834    0.19060130508204146    0.19091168873447192    0.19233364226960586    0.19794285654975544    
  0.21117387427724818    0.23400966101764423    0.2683310113812906    0.31348281129574945    0.3707587527345967    
  0.44977409800464413    0.5577436598905899    0.6712016275839718    0.7234372609085836    0.6712008992225417    
  0.5577428403665308    0.44977299064849396    0.37075781890984605    0.3134816988222477    0.26833030573667144    
  0.2542136923630874    0.23642189104496592    0.22830134512101996    0.22838395158252295    0.23447537435112548    
  0.24135854232852932    0.24403819414260705    0.2413584577343916    0.23447557249113996    0.22838403633140567    
  0.2283019770216953    0.23642232614044573    0.25421472397240463    0.2820453988808577    0.3212477454487687    
  0.3751790796745133    0.44239458175267066    0.5054372295379183    0.5323171292666227    0.5054367075023185    
  0.44239375240787704    0.37517818849276585    0.32124665361659743    0.2820445388296186    0.2542136923630874    
  0.24955768598877076    0.25421357908842956    0.2683300465052608    0.2917923181106124    0.321663772960098    
  0.34802245179728253    0.35845896975211605    0.3480226798951005    0.32166395506426954    0.29179283355672386    
  0.26833051476534037    0.25421445694889416    0.2495583744923198    0.2542147100297363    0.26833096760707037    
  0.291793474383637    0.32166483177520955    0.3480235198133345    0.358459923184031    0.3480232113036564    
  0.3216644004020269    0.2917927311449905    0.2683303295969279    0.2542136911707163    0.24955768598877076    
  0.25421358687852874    0.2820443359779453    0.3134814234669306    0.3431811211136317    0.36734560652475606    
  0.3767493849335517    0.3613347200861767    0.32509400062459193    0.28299083734882086    0.24990989594933227    
  0.23400961352704097    0.23642243688736048    0.2542147489158616    0.2820453547422746    0.3134826958219294    
  0.34318204936332936    0.3673465284119253    0.3767501973064593    0.3613352461372606    0.3250944415294083    
  0.2829908065489892    0.24990990769738547    0.23400905493097435    0.2364218256027409    0.25421358687852874    
  0.28204432703448173    0.32762541907774706    0.3693050324581885    0.4099554492137649    0.46086709564766976    
  0.5099302827877548    0.516561852937902    0.46557672482185175    0.3868237590923219    0.31510092957479385    
  0.26662618732318605    0.2423839155601468    0.23642254792617942    0.24238402423135672    0.2544348668289289    
  0.26616320708052166    0.27230496751391364    0.2682682463245711    0.25348589581712166    0.2336408989811266    
  0.21624043371533808    0.20907226799486478    0.2173085186413146    0.242383048964215    0.28204432703448173    
  0.3212462339428098    0.3693051364261679    0.39399692887289195    0.4194892920527602    0.4915037839673207    
  0.6056912702339318    0.6720542180879783    0.621860715115857    0.50280200998136    0.3870854122685437    
  0.3042120757167092    0.2544346508536889    0.22830211044543053    0.21730886967054003    0.21521836126634988    
  0.21617983744305552    0.21582210050062822    0.21109607053914392    0.20248410678971568    0.19421714337335413    
  0.19139412248142043    0.2000315089948319    0.22466573921844435    0.26662567234926554    0.3212462339428098    
  0.3751777395807624    0.4099553116659949    0.3992285245188459    0.3947222130829423    0.470669757989602    
  0.6344774567547    0.7638225883611549    0.7298726249648381    0.585470281624781    0.43888851871219886    
  0.3325539214502151    0.26616298077789724    0.2283843105453723    0.20907246712366412    0.20155286311734177    
  0.20096990184464497    0.20312231310116963    0.20404943660489977    0.20276254124902374    0.20233146464124885    
  0.20799304733413387    0.22644283379262445    0.2621824997968514    0.3151000370832462    0.3751777395807624    
  0.44239289372675417    0.46086716465441435    0.42633312640652576    0.40274756368351855    0.46914798969830923    
  0.6307938512567413    0.7640217878602128    0.7360060677536315    0.5937243673409526    0.44672276799756244    
  0.33953394035432777    0.272304831386283    0.2344758626573531    0.2162403144511609    0.2122250464664589    
  0.219182025465579    0.23244168468893892    0.24566550919087865    0.25462760510484456    0.2603232508381063    
  0.2690814963706248    0.2908317390537354    0.3311338020549277    0.386823462400808    0.44239289372675417    
  0.505435905931761    0.5099299617388461    0.4731096997674553    0.4463571335652144    0.49028060555074915    
  0.5980177464068693    0.6738099863127999    0.6370557704963187    0.5232363618482104    0.4066913505135698    
  0.32105280937053193    0.26826811927356614    0.24135903652619747    0.23364093245608192    0.2429028030320464    
  0.2681625479641918    0.3043548241280472    0.3404697442516308    0.36380676675933327    0.3696154086090228    
  0.36881090488075763    0.38198476904997664    0.41765795815143336    0.46557606564755655    0.505435905931761    
  0.5323155443999479    0.5165620747444954    0.47928645631655387    0.45151349979389827    0.46311602580543554    
  0.5026283657228146    0.5196891088751758    0.48324113239229327    0.41100833354329497    0.33791042015110107    
  0.28398160277077944    0.2534861451663928    0.2440387801177049    0.2534862565105727    0.2839817550101824    
  0.3379108675677502    0.4110086644982253    0.4832415095358978    0.5196889892280427    0.5026279768140656    
  0.4631154427114237    0.4515129588964484    0.4792862230495525    0.5165618511144433    0.5323155443999479    
  0.5054362047612322    0.46557629572364845    0.4176582868432584    0.38198505960629264    0.3688113259455901    
  0.36961580636908803    0.36380713292398753    0.34046987261255585    0.3043549653992323    0.26816261783460077    
  0.24290310683204638    0.23364123217196947    0.24135962342355563    0.26826871668859864    0.3210536712449833    
  0.4066924079383777    0.523237903101861    0.6370570360848893    0.6738104869746703    0.5980170158372776    
  0.4902798336130064    0.4463562120964663    0.47310936603702874    0.5099299528611849    0.5054362047612322    
  0.4423931669787173    0.38682404795115505    0.33113398672437094    0.29083219050641873    0.26908160756941213    
  0.26032370634745283    0.2546278973876485    0.24566595303139005    0.23244200778012122    0.2191826039003607    
  0.21222562601245126    0.2162412153194682    0.23447668344024758    0.27230615211842    0.33953518366112423    
  0.4467248745459757    0.5937263367038604    0.7360087083068024    0.7640227809670697    0.6307934638105098    
  0.4691466327831599    0.40274650240919735    0.4263324395546651    0.46086736677667034    0.4423931669787173    
  0.3751783576562134    0.3151003678924927    0.26218289527158084    0.2264429280330718    0.20799331345396999    
  0.20233160198053876    0.20276313732591622    0.20404988391429982    0.20312312046124    0.20097056173189856    
  0.20155400822319003    0.20907351493557086    0.22838587528079551    0.2661644091205873    0.33255605093525376    
  0.4388907705682304    0.5854735920566927    0.7298756340519562    0.7638250694218647    0.634477252160186    
  0.4706689519600068    0.39472090841868174    0.3992282685490134    0.4099554466092824    0.3751783576562134    
  0.3212466715493176    0.26662622537664327    0.22466583652946628    0.20003184673930757    0.1913941155186636    
  0.19421762883392607    0.2024845107332857    0.21109690124933    0.21582303648605475    0.21618118484655183    
  0.2152196421218865    0.2173106086790072    0.22830368738332624    0.25443682694244407    0.30421404837051474    
  0.3870884278865515    0.5028049980728845    0.6218646556244458    0.6720567577615715    0.6056927503639903    
  0.4915036023543251    0.419489031827694    0.39399687868894384    0.3693058256661207    0.3212466715493176    
  0.28204503252644436    0.2423833442497612    0.2173088885631437    0.20907236184170272    0.21624073440318312    
  0.2336411794398605    0.2534867388804314    0.2682690323388359    0.272306530018694    0.2661646334892528    
  0.2544369754791157    0.24238581508824097    0.23642482449185778    0.24238587709672071    0.266628600432713    
  0.31510320300701394    0.3868268541640025    0.4655795050560059    0.5165647820362803    0.5099318408510273    
  0.4608683133599738    0.4099558597465421    0.369305904338305    0.32762595732785477    0.28204503252644436    
  0.2542140219141968    0.23642239394473932    0.2340091712643225    0.24991029435933992    0.2829909402144938    
  0.32509508350209887    0.36133595660425055    0.3767514854672851    0.36734782077929    0.34318397233176656    
  0.31348471698512004    0.2820478731260232    0.25421689300806105    0.23642485358960968    0.23401147142970613    
  0.24991214991127766    0.28299266820109054    0.32509628691117953    0.36133645289748645    0.3767511109620085    
  0.3673465663187686    0.34318202550207055    0.3134819762498027    0.2820450198956598    0.2542140219141968    
  0.23642232471636507    0.2423833433072124    0.2666262190833874    0.3151006635754592    0.38682444630815216    
  0.4655774019690839    0.5165634417773207    0.5099311289498312    0.4608679985706061    0.40995674068921717    
  0.3693077948886593    0.3276288773240818    0.2820478824586784    0.24238593418145635    0.21731076375776398    
  0.20907393678724426    0.21624168050896794    0.23364181511254728    0.25348672457467797    0.26826844766358876    
  0.2723052051796197    0.2661627710679186    0.2544346795978342    0.2423833908542226    0.23642232471636507    
  0.22830157714306148    0.2544346783740928    0.30421153607678575    0.38708566061348676    0.5028017650168914    
  0.6218615056867695    0.6720541850933586    0.6056902623999503    0.4915013648341154    0.41948743538626493    
  0.39399728065457257    0.3693077469197584    0.3212496399492027    0.2666284913900212    0.22466772728822942    
  0.2000328545348713    0.19139486894693453    0.19421776578043415    0.2024844046276287    0.21109625880392843    
  0.21582211458601847    0.21617978342485264    0.2152179823811562    0.21730877015050817    0.22830157714306148    
  0.22838430829052928    0.26616258252761754    0.3325538909811379    0.43888797041883765    0.585470027371387    
  0.7298719215720663    0.763821805993614    0.6344747979577477    0.4706659281576558    0.39471855833281533    
  0.3992271657323043    0.4099570420634671    0.37518078147920403    0.3151028622616632    0.26218430775752627    
  0.226444041329834    0.20799369895306583    0.20233177633128338    0.2027627591396945    0.20404941560855383    
  0.20312232293794066    0.200969590147392    0.20155284111766406    0.209072164443716    0.22838430829052928    
  0.23447558653680003    0.27230480763755205    0.33953336409491836    0.4467223801313721    0.593723283148114    
  0.7360052192109398    0.7640203187994411    0.6307916478618768    0.46914507731170685    0.40274470968853465    
  0.4263321613311359    0.4608685184672517    0.44239592321721233    0.3868260893431484    0.33113583095987675    
  0.29083288933260465    0.2690821214536305    0.2603234679091662    0.25462761654222904    0.24566537370228453    
  0.232441433661202    0.21918183302507566    0.21222484375125253    0.21624033205803284    0.23447558653680003    
  0.24135892586214439    0.2682678045411316    0.32105252262856715    0.4066906520716125    0.5232355039692809    
  0.6370544408195057    0.6738086207114866    0.598016430555906    0.4902793547122322    0.4463562376174446    
  0.47310979328339053    0.5099318617757747    0.5054386359790984    0.4655789141534368    0.4176598195891609    
  0.3819861748233649    0.3688114505339806    0.36961568699289804    0.36380653254600553    0.34046924642448245    
  0.3043543599196686    0.26816202097499    0.24290249923962703    0.2336406151653077    0.24135892586214439    
  0.24403834700730398    0.2534859184595752    0.28398112775409934    0.3379099370312067    0.41100733804623807    
  0.4832398625125504    0.5196878403511794    0.5026275326724302    0.4631157654748889    0.45151341568569525    
  0.47928759345814637    0.5165637055951816    0.5323181940331441    0.516564036220006    0.47928793684117726    
  0.4515140237659387    0.4631163170764236    0.5026282322344291    0.5196884793683366    0.48324016906627376    
  0.4110075902639234    0.3379098994886828    0.28398110485821043    0.2534858019117823    0.24403834700730398    
  0.24135891258856187    0.23364069266109477    0.2429026272393641    0.2681620494856472    0.304354217299831    
  0.34046896493949835    0.3638059555679276    0.36961500849672896    0.36881068568236025    0.3819853185302896    
  0.41765873383249297    0.46557776056571865    0.5054377077594892    0.5099316334946024    0.4731100665977954    
  0.44635718312826894    0.4902802445782307    0.5980175354825026    0.6738093043946107    0.6370550028358605    
  0.5232357632962431    0.40669063060860394    0.32105246991961545    0.2682678050822821    0.24135891258856187    
  0.23447555218365293    0.21624039790077376    0.2122248233256592    0.21918194593390777    0.23244132249899543    
  0.24566519413277801    0.25462721376583747    0.2603227318377765    0.2690813284481295    0.290831685604467    
  0.3311345215842426    0.386824380651073    0.4423945274382349    0.4608678293793537    0.42633293470500183    
  0.40274648531169    0.4691471750757453    0.6307932817468322    0.7640212637560987    0.7360054102463827    
  0.5937235303524352    0.44672224791779963    0.33953337375981846    0.2723046951014259    0.23447555218365293    
  0.2283841198477107    0.20907213222866822    0.20155279727239162    0.2009695931681432    0.20312207746948882    
  0.2040491812344772    0.20276227088245757    0.2023312059807112    0.2079927543655591    0.22644292599000346    
  0.26218270343021344    0.3151010481324492    0.37517881002704623    0.40995609489960594    0.3992278553998729    
  0.39472106757737463    0.4706686988876725    0.634477170298585    0.7638226859170797    0.7298720354764754    
  0.5854698323195373    0.4388877583677986    0.3325535748674887    0.2661624500498106    0.2283841198477107    
  0.2283014150134909    0.21730845679109545    0.21521779750675807    0.2161795091160464    0.21582173428764145    
  0.2110957841504534    0.20248379629168045    0.19421674308924708    0.1913939756465858    0.20003139854034427    
  0.2246662066247753    0.2666263088709341    0.3212475825607109    0.3693059342664402    0.39399717784793725    
  0.4194886902440777    0.49150351107741497    0.6056914193114793    0.672054449957611    0.6218608976277902    
  0.5028016424212963    0.38708514512456155    0.3042114256431294    0.254434324265165    0.2283014150134909    
  0.2364218533242619    0.2423830795353239    0.25443411698632595    0.26616232700395676    0.27230438024322934    
  0.2682676863805058    0.2534854618093349    0.23364062490758056    0.21624011465615645    0.2090724256281209    
  0.21730878152335034    0.24238392265176414    0.28204533986782754    0.32762683365586726    0.3693059844055547    
  0.4099563049189924    0.46086761042361035    0.5099309681568346    0.5165625366384683    0.4655769245919851    
  0.3868239208993359    0.3151005073627584    0.26662587298619783    0.24238311279403366    0.2364218533242619    