#     DFTpy    
  CRYSTAL 
    
  PRIMVEC    
  3.848    0.0    0.0    
  0.0    3.848    0.0    
  0.0    0.0    2.12    
  PRIMCOORD    
  4    1    
  Si    0.0    0.0    0.0    
  Si    1.924    1.924    1.06    
  Si    0.0    1.924    0.53    
  Si    1.924    0.0    1.59    
  BEGIN_BLOCK_DATAGRID_3D    
  3d_datagrid_density    
  BEGIN_DATAGRID_3D#0    
  17    17    11    
  0.0    0.0    0.0    
  3.848    0.0    0.0    
  0.0    3.848    0.0    
  0.0    0.0    2.12    
  0.05336553327815184    0.10885672711803726    0.34306642731586917    0.6487198788457139    0.7621488276208329    
  0.730909384883886    0.6072320747167913    0.44896087801718587    0.3800105277659975    0.4489609188831934    
  0.6072319416034057    0.7309093841189668    0.7621487579991536    0.648719770152406    0.3430664840788749    
  0.10885672278667408    0.05336553327815184    0.10885666075849228    0.17691275569040357    0.4025942408613018    
  0.6370895601807931    0.7058727311067321    0.6805615954603544    0.5959884529079779    0.4781556395926574    
  0.42286622798333307    0.47815557543010423    0.5959884456651361    0.6805614226038205    0.7058727874434068    
  0.6370896175976124    0.4025942155009387    0.1769127666323145    0.10885666075849228    0.34306651400391935    
  0.4025942633361272    0.5269012388922212    0.5888258156673655    0.5754542196530696    0.5595933173621138    
  0.5473179664778959    0.5188972375819462    0.5007688230678086    0.5188972171051579    0.5473179743901281    
  0.559593442133385    0.5754540924014002    0.5888258769802935    0.5269013570888613    0.40259421474496493    
  0.34306651400391935    0.6487196991258922    0.6370896565509512    0.5888257898193887    0.510278576332272    
  0.4503357560705524    0.4410705160123586    0.47205229934201226    0.5091845550464795    0.524432925348991    
  0.5091844711596311    0.47205232312965983    0.44107043740559326    0.450335726495711    0.51027849841998    
  0.5888257992458158    0.6370895076945966    0.6487196991258922    0.762148832378428    0.7058728125715363    
  0.5754541013911748    0.45033572756710744    0.38173183137911454    0.3772909108308296    0.421954383210141    
  0.48210191044634265    0.510521464907765    0.4821018657976385    0.4219544225593978    0.3772908820977083    
  0.3817318416800532    0.4503357343157297    0.5754542367556695    0.7058727174732193    0.762148832378428    
  0.7309093255220742    0.6805615293462435    0.5595933992996817    0.44107040519924584    0.37729096950570556    
  0.37674535031956874    0.4267153845488279    0.4938178999271626    0.5257167003302894    0.49381785376590764    
  0.42671546592396453    0.37674534338572035    0.3772908993391725    0.44107048227081197    0.5595934077234304    
  0.680561460585241    0.7309093255220742    0.6072319802671879    0.595988420691798    0.5473179479438934    
  0.4720524409617968    0.4219544727904459    0.4267155095520487    0.4812870389401692    0.5509073661726532    
  0.5829875759743405    0.5509072766844996    0.48128702583098837    0.42671547735169524    0.42195447924852963    
  0.47205233927016776    0.5473179791958637    0.5959884902869751    0.6072319802671879    0.44896074329560526    
  0.4781556370483939    0.5188971168387113    0.5091845033569043    0.48210180720240875    0.4938178050354721    
  0.5509072208250305    0.6190658024638784    0.6494590242623238    0.6190658482559714    0.5509072909841277    
  0.49381791311676054    0.48210184853901167    0.509184554014569    0.5188971928944136    0.4781556164552096    
  0.44896074329560526    0.380010498176138    0.4228664018419593    0.50076886087668    0.52443303121495    
  0.5105214606778852    0.5257169008593638    0.582987585166452    0.6494591947068968    0.6786424724768875    
  0.6494591287100949    0.5829876139399297    0.5257168289634343    0.5105213642185201    0.5244330497840616    
  0.5007687952833814    0.422866329967621    0.380010498176138    0.4489607175565393    0.4781556406310153    
  0.5188971688030974    0.5091844658838587    0.4821019050696508    0.49381789442944135    0.5509072461699747    
  0.6190658259375368    0.6494590404044853    0.6190657842695386    0.5509072572932852    0.49381779918266566    
  0.4821018728382978    0.50918455742052    0.5188970664423628    0.4781555862880287    0.4489607175565393    
  0.607232082779018    0.5959884731265384    0.5473180145911629    0.4720523408594621    0.42195440417987923    
  0.426715427460839    0.48128701371981736    0.5509073440088471    0.5829876477270469    0.5509073223342764    
  0.4812869783620445    0.426715568765983    0.42195435390869296    0.47205242314892515    0.547318040838415    
  0.595988481221376    0.607232082779018    0.7309093331956781    0.6805615398818383    0.5595933806937086    
  0.441070412019022    0.37729093882966624    0.37674543426576357    0.4267154725349945    0.49381794695930176    
  0.525716729765142    0.4938177650496001    0.42671551148448983    0.3767453204203049    0.37729090268181814    
  0.4410703945896284    0.5595934034591453    0.6805614569009518    0.7309093331956781    0.7621488550493644    
  0.7058728495035982    0.5754541552578204    0.45033568409290636    0.38173184270805377    0.3772909154933472    
  0.4219544477935262    0.48210187864222437    0.5105214271168474    0.48210188617351973    0.4219544352435575    
  0.37729101534128423    0.3817318416057426    0.45033572052210685    0.5754542163415444    0.7058727114487835    
  0.7621488550493644    0.6487197887257424    0.6370896715150841    0.588825767929148    0.5102784755794778    
  0.4503357416750057    0.441070492116038    0.47205227637843516    0.5091845097728103    0.5244329259370643    
  0.5091844968814534    0.47205237796946675    0.4410704139289018    0.4503357263724636    0.5102785484933585    
  0.5888258163000752    0.6370895216954013    0.6487197887257424    0.34306648978837534    0.4025942812427137    
  0.5269012152968283    0.5888258823433233    0.5754541474329697    0.5595934126762679    0.5473180486271176    
  0.5188971787220653    0.5007687856436462    0.5188972115748192    0.5473179138307059    0.5595934673806215    
  0.5754541330094923    0.5888258408596242    0.5269013564503529    0.4025942878580524    0.34306648978837534    
  0.10885671664774567    0.17691276310697554    0.4025942491221603    0.6370895979197105    0.7058727153504251    
  0.6805614487973289    0.5959884097209025    0.4781556046021351    0.4228662829373895    0.47815556816603805    
  0.5959885032095005    0.6805615662715269    0.7058727779723316    0.6370895347515201    0.40259426435130063    
  0.17691274544040825    0.10885671664774567    0.05336553327815184    0.10885672711803726    0.34306642731586917    
  0.6487198788457139    0.7621488276208329    0.730909384883886    0.6072320747167913    0.44896087801718587    
  0.3800105277659975    0.4489609188831934    0.6072319416034057    0.7309093841189668    0.7621487579991536    
  0.648719770152406    0.3430664840788749    0.10885672278667408    0.05336553327815184    0.09292667985007866    
  0.1553188663435575    0.36714604370277415    0.5883019809900639    0.6530661818920678    0.6504758832449424    
  0.6384075724143263    0.6127630083654774    0.5966466662182673    0.6127631049519835    0.638407468110003    
  0.6504759105999754    0.6530660852969333    0.5883020466379834    0.3671460715635506    0.15531889339942828    
  0.09292667985007866    0.16280242384368973    0.23145043368853233    0.42260578300587687    0.5804863174343369    
  0.6094231252161814    0.6032077386219533    0.6030697798717517    0.5951374013850658    0.5874927466719164    
  0.5951374497940197    0.6030698099272719    0.6032078113297016    0.6094232221673189    0.5804863579093552    
  0.42260570896767047    0.23145043488028952    0.16280242384368973    0.41701038222280346    0.4620659949092699    
  0.5386101157808318    0.5479395775508608    0.5106377736486364    0.49682036153945286    0.516612224058439    
  0.5418805763597712    0.5515026183885668    0.5418805917147207    0.5166122145385817    0.49682041041753744    
  0.5106378104189051    0.5479396375750638    0.5386100127963389    0.46206592257563545    0.41701038222280346    
  0.717663477819033    0.6902004807366366    0.6060319905347542    0.49693797905729115    0.42057818670376884    
  0.40251137760438105    0.4319956751547249    0.47673406092727677    0.49782598103063946    0.4767339935296298    
  0.43199566908340187    0.4025112769571618    0.4205781445987814    0.49693800134970134    0.6060319607735858    
  0.6902005371897726    0.717663477819033    0.8247779771316766    0.7611549691183874    0.6121509884805767    
  0.46670821863718925    0.38178776001480386    0.36372932595146    0.3955261790120451    0.4453949686723711    
  0.4699417424585384    0.4453949256661592    0.3955261882642981    0.36372932016225634    0.3817877478468877    
  0.46670821339503615    0.6121510363716455    0.7611547816698272    0.8247779771316766    0.7409225935826947    
  0.7034494955179679    0.6005206341663281    0.4814740812214126    0.40456993391647095    0.3885580461396937    
  0.42149185911251574    0.47159911991786896    0.49575892738217425    0.4715990807847054    0.42149180670890946    
  0.3885580153403165    0.4045698763608841    0.48147413846577164    0.6005206356820092    0.7034494546912942    
  0.7409225935826947    0.48305466876438624    0.5122222663688553    0.5475021330536815    0.5231451428835848    
  0.4770163035696091    0.467060358835708    0.49879725701867733    0.5421658850527263    0.5615084493564547    
  0.5421658830554136    0.4987972261769285    0.46706032802858116    0.47701634313821584    0.5231450882661991    
  0.5475022040295787    0.5122222587264404    0.48305466876438624    0.2346810190888649    0.29974672424727544    
  0.4546171293513563    0.5551522421079129    0.560419770122438    0.5598907065768122    0.5853366046416907    
  0.6141696573109545    0.6250445527852577    0.6141695944788524    0.5853366956454106    0.5598907494366785    
  0.560419771178109    0.5551522911081741    0.4546171271378677    0.2997466767427212    0.2346810190888649    
  0.15480951050191008    0.2213024233092963    0.4079648769929957    0.5646223168922404    0.5979253293285719    
  0.602118263647533    0.6230612878221699    0.6435570573928292    0.650053564154253    0.643557063512252    
  0.6230613323498092    0.6021182110734212    0.5979252897872465    0.5646223320147885    0.4079649341450645    
  0.22130241778005846    0.15480951050191008    0.23468095777423478    0.29974675099673015    0.4546171211451701    
  0.5551521807139286    0.5604197815670166    0.5598906852047043    0.5853365643647805    0.6141696956751761    
  0.6250445224561052    0.6141695863146867    0.5853366190253287    0.5598906884871764    0.5604196947144592    
  0.5551522031814162    0.4546170467114624    0.2997467137414423    0.23468095777423478    0.4830547262957271    
  0.5122223578924429    0.5475021343794785    0.5231451031633504    0.4770163142892309    0.46706025858061684    
  0.49879724515243173    0.5421659178293093    0.5615085818948548    0.5421659605279554    0.4987972661106888    
  0.4670603467264129    0.477016304469938    0.5231452492392691    0.5475022228113544    0.5122222967430744    
  0.4830547262957271    0.7409226232779613    0.7034494921969631    0.600520587467975    0.4814740979745088    
  0.4045699136676139    0.3885580500822162    0.42149180586918394    0.4715991398218963    0.4957588249866448    
  0.4715989717413952    0.4214918389862473    0.3885580350451777    0.40456984959151754    0.4814740799817043    
  0.6005205946623092    0.7034495424258231    0.7409226232779613    0.8247779701852718    0.761154931226254    
  0.61215092518519    0.46670817943820514    0.3817877460609789    0.3637292925461677    0.3955261875690629    
  0.4453949475033932    0.46994178065286485    0.44539497134529454    0.3955261559657124    0.3637293231105008    
  0.3817877492779682    0.46670824885926115    0.6121510392246383    0.7611548143566959    0.8247779701852718    
  0.7176634974773165    0.6902005001731522    0.6060319220552539    0.4969379158379859    0.42057822837923264    
  0.40251139544365616    0.4319955387590614    0.47673405834648147    0.4978260354271274    0.4767339446704033    
  0.43199563815625897    0.40251124886814743    0.4205781859981906    0.49693791474884025    0.6060319870329293    
  0.6902003904102673    0.7176634974773165    0.41701028881167296    0.46206600597507375    0.5386099268982995    
  0.5479396058752404    0.5106377668232919    0.4968203675311    0.516612326192352    0.5418805748200313    
  0.5515025366699101    0.5418806002232571    0.5166121684815447    0.4968203867035995    0.5106377170513157    
  0.5479396154962645    0.538610074288361    0.46206594533502604    0.41701028881167296    0.16280244048419046    
  0.2314504739311167    0.42260579377111385    0.58048628883447    0.6094231409480284    0.6032077717839959    
  0.6030697938469978    0.5951374191491483    0.5874928149949571    0.5951373260928006    0.6030698345105998    
  0.6032078497316473    0.6094231807590952    0.5804863304072831    0.42260578767177986    0.23145041193657545    
  0.16280244048419046    0.09292667985007866    0.1553188663435575    0.36714604370277415    0.5883019809900639    
  0.6530661818920678    0.6504758832449424    0.6384075724143263    0.6127630083654774    0.5966466662182673    
  0.6127631049519835    0.638407468110003    0.6504759105999754    0.6530660852969333    0.5883020466379834    
  0.3671460715635506    0.15531889339942828    0.09292667985007866    0.2540437602359161    0.3154468479054408    
  0.4563360749800815    0.5435446696753578    0.5493105144935005    0.5589352197163632    0.6017361226751207    
  0.6516624298884562    0.6729414370999122    0.6516624087645999    0.6017360732273429    0.5589352842575177    
  0.5493103706889634    0.5435448312398593    0.4563360230895686    0.31544693527623424    0.2540437602359161    
  0.3357530020364196    0.3877595005590053    0.4899097503642471    0.5313322649523657    0.5169748844401729    
  0.522100433812551    0.565696920780507    0.6188030457319015    0.6420294596618471    0.6188030635679077    
  0.5656969254136089    0.5221003492392879    0.5169749061804637    0.5313322874859818    0.4899097688740088    
  0.3877594645394985    0.3357530020364196    0.5522038248105507    0.5611730917747102    0.5516170452020825    
  0.4972908465202725    0.446688946977952    0.44295565768483025    0.4859411166275555    0.5435523451914853    
  0.5701423755469028    0.5435524050709056    0.4859411877945387    0.4429557527453267    0.4466888354163012    
  0.49729096267173767    0.5516170962927972    0.5611730228887313    0.5522038248105507    0.7465494697163101    
  0.7007562642832614    0.5845234026267753    0.4621359422463384    0.38971481738081776    0.37975294823069583    
  0.41949807602265626    0.4769167109456818    0.5046075753117322    0.47691664519788063    0.41949810247709296    
  0.37975293654885534    0.38971479478251225    0.4621357656906069    0.5845234075417984    0.7007562290485765    
  0.7465494697163101    0.8025970598135796    0.7415742349329245    0.5991703610877186    0.46094803570512655    
  0.38175304223667755    0.36837653844482465    0.4045224557828364    0.457827181914164    0.4836562349175901    
  0.45782713567576855    0.4045223765661585    0.36837653160585204    0.3817530539773909    0.4609480345809472    
  0.5991705118068426    0.7415741794805485    0.8025970598135796    0.6843247582590992    0.6660727619489388    
  0.601502212430449    0.5068651959771866    0.4363411902143136    0.4205307774040895    0.4495305184498555    
  0.49016116468105164    0.5083631975217162    0.490161033631321    0.449530600587279    0.4205308061952404    
  0.4363411335850751    0.5068652882275559    0.6015022276398673    0.6660727904006107    0.6843247582590992    
  0.3680045485673522    0.4229907969335921    0.5302550901677078    0.5703194742448994    0.5446309953839182    
  0.5289945528696912    0.5345103647753476    0.535972234545543    0.5329150295653363    0.5359721782578345    
  0.5345103563148729    0.5289944650433847    0.5446309497563805    0.5703195892942854    0.5302550206574254    
  0.42299080831280206    0.3680045485673522    0.12240942629751679    0.19036457249136435    0.40319532622876947    
  0.6078462176498121    0.6597422381703598    0.6458928196650147    0.6093779308066389    0.5508335924578747    
  0.519493210001235    0.5508334564704878    0.6093781474227948    0.6458928029174851    0.6597422286505981    
  0.607846341139999    0.40319533462373897    0.1903645646934235    0.12240942629751679    0.06227332203904953    
  0.11918844402662009    0.3435624381724599    0.6160980885348095    0.7099166912649892    0.6964181772735786    
  0.6361366401345365    0.5476098940744977    0.5036442394208807    0.5476097652795794    0.6361365507107487    
  0.6964181476260246    0.7099166149006937    0.6160981692240116    0.3435623920482752    0.11918843179860923    
  0.06227332203904953    0.1224094371355068    0.1903645465387374    0.40319531956407234    0.6078462036913928    
  0.6597421904640522    0.6458928225905766    0.6093779879268184    0.5508335588054953    0.5194933329835839    
  0.5508334753810155    0.6093780506722938    0.6458928433383363    0.6597422498257398    0.6078462892519524    
  0.4031952977627039    0.19036457694271855    0.1224094371355068    0.3680045872489652    0.4229908511516176    
  0.5302550317257002    0.5703195708324519    0.5446310061279935    0.5289945338624118    0.534510283609736    
  0.5359721311633243    0.5329151259828652    0.5359722831014773    0.5345103045688211    0.528994525567531    
  0.544630909840356    0.5703195992736534    0.5302550546672726    0.42299078060615447    0.3680045872489652    
  0.6843248611124543    0.666072778876795    0.601502207515949    0.5068652081782837    0.4363412126344201    
  0.42053082516118107    0.4495304957466756    0.49016118943575443    0.5083632349356252    0.4901609850652325    
  0.44953057261771834    0.4205307596770105    0.4363411341147498    0.5068652408830638    0.6015022173926482    
  0.6660726843125409    0.6843248611124543    0.8025970444844658    0.7415742768862199    0.5991703031107036    
  0.4609479932271592    0.3817531016719983    0.3683764878842764    0.4045224319504144    0.4578272233898262    
  0.48365621259564606    0.4578272220051828    0.40452239148465036    0.36837652146649724    0.38175310277116764    
  0.4609479979346702    0.5991704024499301    0.7415741890087958    0.8025970444844658    0.7465495061169893    
  0.7007563504787945    0.5845233203938216    0.4621358478956885    0.38971485223791497    0.3797529551489441    
  0.4194980716016583    0.4769166959385893    0.5046075328007892    0.476916699197238    0.4194981006179461    
  0.3797528733766878    0.38971473825264974    0.4621359661882901    0.5845234407738095    0.7007562143754152    
  0.7465495061169893    0.5522038163538784    0.5611729911264989    0.5516171219152812    0.4972909277518718    
  0.4466888375586605    0.44295563822195166    0.4859412809683645    0.5435523603851861    0.5701424329438968    
  0.5435524774078637    0.48594116057985226    0.44295566522002244    0.44668889740826906    0.49729094245440847    
  0.5516170906235344    0.5611730168342666    0.5522038163538784    0.335753079564453    0.38775951382987295    
  0.48990971588052257    0.5313322389164701    0.5169748791524831    0.5221003786670528    0.5656969555065089    
  0.6188030147527503    0.6420294669884286    0.6188030000780235    0.5656970491358125    0.5221004635030143    
  0.5169749357032299    0.5313322521559968    0.4899097387205033    0.3877594889059869    0.335753079564453    
  0.2540437602359161    0.3154468479054408    0.4563360749800815    0.5435446696753578    0.5493105144935005    
  0.5589352197163632    0.6017361226751207    0.6516624298884562    0.6729414370999122    0.6516624087645999    
  0.6017360732273429    0.5589352842575177    0.5493103706889634    0.5435448312398593    0.4563360230895686    
  0.31544693527623424    0.2540437602359161    0.5036447277212617    0.5194928395254144    0.5329155828438265    
  0.5083627819694289    0.4836566485641442    0.5046072626279121    0.5701429176308386    0.6420290586215313    
  0.6729419448312836    0.6420290462026781    0.5701428657540305    0.5046072611759175    0.48365660207284905    
  0.5083627541940453    0.5329155397228231    0.5194928525998591    0.5036447277212617    0.5476092257327451    
  0.5508339554871889    0.53597170910814    0.4901616212353413    0.4578266672795163    0.4769170819515041    
  0.5435519099664892    0.6188035243444775    0.6516618189556536    0.6188035395104494    0.5435518567325167    
  0.4769170332995898    0.45782672922711304    0.4901616021503548    0.5359717354666116    0.5508339117543742    
  0.5476092257327451    0.6361370981499022    0.6093776842034151    0.5345109271204133    0.44953007633340025    
  0.4045229003756606    0.41949771068771    0.48594153462514417    0.5656965038599308    0.6017365701604972    
  0.5656965964330443    0.4859416154123155    0.4194978108536206    0.4045228461727106    0.44953017988640526    
  0.5345108563536094    0.6093776468045919    0.6361370981499022    0.6964175173750783    0.6458932615610282    
  0.5289939225803101    0.4205312119979897    0.36837610853589325    0.379753378130448    0.44295518455333205    
  0.5221009086188217    0.5589346647714657    0.5221008260592979    0.4429552835672796    0.37975331001657553    
  0.36837606689435204    0.4205311276418709    0.5289939514720833    0.6458932983361384    0.6964175173750783    
  0.7099172439687977    0.6597417590092846    0.5446314302277248    0.4363407834124313    0.38175340873261027    
  0.3897144667941174    0.4466892477585003    0.516974480144309    0.5493108678607527    0.516974459399943    
  0.44668927375015044    0.3897144284674456    0.38175342381588334    0.43634079186111635    0.5446314305615222    
  0.659741638553022    0.7099172439687977    0.6160975665436307    0.6078466978642358    0.5703190944935945    
  0.5068656244684907    0.46094762378577103    0.4621363136524887    0.49729045499560237    0.5313327608669894    
  0.5435442848065395    0.5313325859220314    0.4972905296256334    0.4621363067124689    0.460947536494851    
  0.506865695730884    0.5703190833956527    0.607846713708804    0.6160975665436307    0.34356278035947624    
  0.40319498688779665    0.530255443435564    0.60150176497528    0.5991708522390399    0.5845230875457381    
  0.5516174510195526    0.4899094020035827    0.4563363773511518    0.48990930727780724    0.5516175014456053    
  0.5845230114756407    0.5991708468707625    0.6015017503353616    0.5302554681492453    0.4031949628586247    
  0.34356278035947624    0.11918818427998647    0.19036488284249328    0.42299034424986887    0.6660732014008599    
  0.7415737442630425    0.7007567976896075    0.5611724443774397    0.38775997416334745    0.3154464574917632    
  0.3877598929162717    0.561172623095652    0.700756704982201    0.7415737201005215    0.6660733382878742    
  0.4229903517604639    0.19036485188536625    0.11918818427998647    0.062273525251907325    0.12240916860329473    
  0.36800495848564596    0.6843243030488644    0.802597652618217    0.746549016100795    0.5522043069666562    
  0.3357527641458972    0.25404414438303147    0.3357526923825155    0.5522042441298006    0.7465490013827253    
  0.8025975491909481    0.6843243239840617    0.3680049176797448    0.12240916644434832    0.062273525251907325    
  0.11918818030027692    0.1903648706570505    0.422990352120781    0.6660732801054997    0.7415737148737245    
  0.7007568029400395    0.5611723825262878    0.38775993309746815    0.3154465133162675    0.3877598917833415    
  0.5611724970834813    0.7007567581727762    0.7415737564887885    0.6660732747682185    0.42299037834323877    
  0.19036487992384427    0.11918818030027692    0.3435628118364168    0.40319502288129466    0.5302554809544195    
  0.6015017544446359    0.5991709134437861    0.5845229786778421    0.5516174037771204    0.48990931608212634    
  0.4563364966150748    0.4899093498252504    0.551617501538907    0.5845230625269935    0.599170841580097    
  0.6015017464831562    0.5302555180314431    0.4031949099650155    0.3435628118364168    0.6160976194660749    
  0.6078466759438126    0.5703190670561633    0.5068656568690832    0.4609476014275856    0.4621363418016949    
  0.49729043819779445    0.5313327094712811    0.5435442854242687    0.5313325684842002    0.49729043874619067    
  0.4621363051653029    0.4609475566784887    0.5068656961101995    0.570319042909855    0.6078466007535793    
  0.6160976194660749    0.7099172357818092    0.6597418071224841    0.5446313052352694    0.4363407744577049    
  0.3817534915713076    0.38971442557900926    0.44668922420991497    0.5169745877922559    0.5493108359702316    
  0.5169745697651217    0.4466892823741881    0.38971445346031836    0.38175346525999476    0.4363407863214425    
  0.5446314240432958    0.6597416569869962    0.7099172357818092    0.6964175977581649    0.6458933774566848    
  0.5289939100667707    0.4205311532445382    0.3683761309331514    0.3797534008025872    0.4429552122548685    
  0.522100984855541    0.5589346115711238    0.5221008536837546    0.4429552193781506    0.3797532387297313    
  0.36837605344429514    0.42053123102613066    0.5289939870798261    0.6458932275924119    0.6964175977581649    
  0.6361370047665368    0.6093775633284917    0.5345108180416553    0.44953015016778824    0.4045227868473237    
  0.4194977158146532    0.4859416743179495    0.5656964838321162    0.6017365808154066    0.5656965884322933    
  0.4859415822639154    0.41949773909829424    0.4045228034450537    0.44953018499063074    0.5345108935203594    
  0.6093776560498759    0.6361370047665368    0.5476093304902002    0.5508340325305829    0.535971749298191    
  0.4901615513958132    0.4578267103225812    0.4769171162151445    0.5435519191583469    0.6188035571468768    
  0.6516617939735535    0.6188035156131408    0.543552011948059    0.4769170931133037    0.4578267199937124    
  0.49016160283394805    0.5359717082889706    0.5508339205949679    0.5476093304902002    0.5036447277212617    
  0.5194928395254144    0.5329155828438265    0.5083627819694289    0.4836566485641442    0.5046072626279121    
  0.5701429176308386    0.6420290586215313    0.6729419448312836    0.6420290462026781    0.5701428657540305    
  0.5046072611759175    0.48365660207284905    0.5083627541940453    0.5329155397228231    0.5194928525998591    
  0.5036447277212617    0.6500530004238354    0.6250450562048957    0.5615080020410081    0.4957594067456103    
  0.4699413387567089    0.4978265759287307    0.5515021750424552    0.5874933163758349    0.5966461485296098    
  0.5874933837973142    0.5515020534645436    0.4978265478785466    0.4699411868674908    0.49575939460214746    
  0.5615080256985251    0.6250451343972051    0.6500530004238354    0.6435574152840323    0.614169116766007    
  0.5421663188997605    0.47159864423973447    0.44539526870741836    0.47673361102939754    0.5418809187278528    
  0.5951368865889035    0.6127633991893139    0.5951369108665829    0.5418809413646748    0.4767335813461788    
  0.44539533391116604    0.4715987711241817    0.5421662164015773    0.614169111819547    0.6435574152840323    
  0.6230608645124928    0.5853371981578864    0.4987968899319451    0.42149222619783383    0.3955258548726318    
  0.4319960453634507    0.5166117819149464    0.6030703671352308    0.6384070869388209    0.6030704168106958    
  0.5166117220320281    0.4319961733267112    0.3955257773624351    0.4214922756905969    0.4987968770839678    
  0.585337074986088    0.6230608645124928    0.6021186736898496    0.559890260973463    0.4670606802793377    
  0.3885576814960795    0.3637296691694619    0.40251095193813746    0.49682081214443513    0.6032073724520233    
  0.650476224148298    0.603207277863524    0.4968208596080161    0.40251084673490534    0.3637296332979013    
  0.38855771385688337    0.4670606518887057    0.5598903407407037    0.6021186736898496    0.5979248810513647    
  0.5604202558969834    0.4770159270256857    0.4045702623957034    0.38178732237165713    0.4205786363861209    
  0.5106372746207504    0.6094237780162054    0.6530657065529214    0.6094236844256192    0.5106373052678087    
  0.4205786292512782    0.3817873810659379    0.4045702812988032    0.47701599765634445    0.5604201728103858    
  0.5979248810513647    0.5646228433050039    0.5551517770388628    0.5231455828820754    0.48147365284478466    
  0.46670871400161934    0.49693752196078017    0.5479400395424219    0.5804858726027479    0.588302448673525    
  0.5804858013766412    0.5479400384068636    0.49693749457496283    0.46670862917476696    0.481473700560851    
  0.5231456204012952    0.5551517245517021    0.5646228433050039    0.40796446817489695    0.4546175311542556    
  0.5475016797256641    0.6005210732594005    0.612150419219007    0.6060325836530751    0.5386095693141076    
  0.4226062959090233    0.3671456238529357    0.4226062364946099    0.5386095223133807    0.6060325294497495    
  0.6121504770280931    0.6005210419955117    0.547501664123378    0.4546175678198347    0.40796446817489695    
  0.2213027705677261    0.2997463740412698    0.51222276430974    0.7034489809313996    0.7611554574091732    
  0.6901999826751433    0.4620662708083628    0.23145013200950942    0.15531911704128254    0.23145010643193586    
  0.46206644237415895    0.6902000183536757    0.7611554234445448    0.7034490508920368    0.5122227250840435    
  0.29974633778400056    0.2213027705677261    0.15480922346092177    0.23468135343858773    0.48305428615925916    