#     DFTpy    
  CRYSTAL 
    
  PRIMVEC    
  4.047034482758621    0.0    0.0    
  0.0    4.047034482758621    0.0    
  0.0    0.0    2.2296551724137927    
  PRIMCOORD    
  4    1    
  Si    0.0    0.0    0.0    
  Si    2.0235172413793103    2.0235172413793103    1.1148275862068964    
  Si    0.0    2.0235172413793103    0.5574137931034482    
  Si    2.0235172413793103    0.0    1.6722413793103448    
  BEGIN_BLOCK_DATAGRID_3D    
  3d_datagrid_density    
  BEGIN_DATAGRID_3D#0    
  19    19    11    
  0.0    0.0    0.0    
  4.047034482758621    0.0    0.0    
  0.0    4.047034482758621    0.0    
  0.0    0.0    2.2296551724137927    
  0.050926659692342266    0.09486394615578624    0.2762168103583184    0.5362155310964821    0.657960171290237    
  0.6601220024309755    0.6210610784377005    0.5322681739628435    0.4221916738376566    0.3735125091012757    
  0.42219168728437706    0.5322681647045333    0.6210610795984381    0.6601220152403798    0.6579601671632921    
  0.5362155350903351    0.2762168118304582    0.09486394560516812    0.050926659692342266    0.09486395213960365    
  0.1480251312827278    0.3280766872524631    0.5393220201730083    0.6196331430899522    0.6138241538546673    
  0.5863633731017631    0.524350164235029    0.44141720361572623    0.4028312079600811    0.44141722025993085    
  0.5243502395149507    0.5863634293788244    0.6138241529377555    0.6196331397011174    0.5393220363533947    
  0.3280766948919924    0.14802511417692477    0.09486395213960365    0.27621682256312924    0.32807667594342815    
  0.44715507035365337    0.5257739817487977    0.5232034853114697    0.5026118811262609    0.4967677549584568    
  0.4877359113782908    0.4649585983153053    0.45167962590584276    0.4649585937660894    0.4877359325692185    
  0.49676779920569486    0.5026118989659571    0.52320349743554    0.5257740605559054    0.4471551009540702    
  0.3280766750106135    0.27621682256312924    0.5362155476323832    0.5393220736979402    0.5257740381881598    
  0.4746740623670742    0.41576406345969086    0.3867654567096797    0.3945997099911792    0.422098952623131    
  0.4468455103957466    0.45612019441083773    0.4468454670665282    0.422098925002321    0.3945996914621568    
  0.38676546525470085    0.41576406057450405    0.4746740582392805    0.5257740440355494    0.5393220714092856    
  0.5362155476323832    0.6579602457232319    0.6196331764922987    0.5232034964225535    0.4157640771115723    
  0.33963444875762316    0.3098361164716695    0.3225859964019325    0.3632076297134137    0.40675535611694885    
  0.42556812233194036    0.4067553521057634    0.3632076118518111    0.32258599516119946    0.3098361331660348    
  0.3396344315153432    0.4157640673310438    0.5232034930078114    0.6196331169662985    0.6579602457232319    
  0.6601220369912455    0.6138241428356466    0.5026118306660748    0.38676547158682195    0.309836102414122    
  0.28194681493900114    0.29719998910220546    0.341688522421947    0.3900863530921245    0.4113370804557023    
  0.3900863446385269    0.34168852890251106    0.2971999934660178    0.2819468602467937    0.3098361123730633    
  0.38676545440463905    0.5026118759695977    0.6138241230017767    0.6601220369912455    0.6210610450578586    
  0.5863633754118127    0.49676772948885006    0.39459968211208885    0.3225859622180763    0.29719997706944695    
  0.3155471645129224    0.36341193476394534    0.41482011362839993    0.43750308886223316    0.4148201300680652    
  0.3634118839904471    0.3155471758219317    0.2971999741635429    0.3225859520222127    0.3945996741657563    
  0.4967677352154334    0.586363412293795    0.6210610450578586    0.5322682074876243    0.5243502522747432    
  0.48773593909361374    0.4220989295219277    0.36320762887127855    0.3416885032273069    0.3634119082012115    
  0.4152003418385276    0.4701314842115672    0.49441886739317925    0.47013147093906626    0.4152003149641435    
  0.36341187974442035    0.34168854826916034    0.3632076311226824    0.4220989345061902    0.48773595575248363    
  0.5243501898946249    0.5322682074876243    0.4221917229505821    0.4414172419874021    0.46495858300056725    
  0.44684552838884234    0.40675532484339155    0.39008633894268674    0.41482015555804264    0.47013151209382775    
  0.5273537266807101    0.5522456919053463    0.5273537207454664    0.4701314585605149    0.41482017135325966    
  0.3900863724495176    0.40675535364977994    0.44684552054432597    0.46495857274040875    0.44141721037841036    
  0.4221917229505821    0.3735125157012468    0.4028312176431508    0.4516796468744781    0.4561201754262069    
  0.42556812159274626    0.4113370244790358    0.43750312097714134    0.4944188620967579    0.5522456606346935    
  0.5770259163468865    0.5522456459969953    0.49441887113017996    0.4375031372354795    0.41133705510041557    
  0.42556810704180376    0.4561201908287623    0.4516796576337328    0.4028312066740744    0.3735125157012468    
  0.42219170272225426    0.4414172434777858    0.4649585617196052    0.4468455211677945    0.4067553475120479    
  0.39008634642514495    0.4148201641748958    0.4701314763011881    0.5273537384420125    0.5522456722383362    
  0.5273537318119579    0.47013149118309644    0.4148201943197298    0.39008637059695556    0.40675532778487994    
  0.4468455072244031    0.46495856942135005    0.4414172330385836    0.42219170272225426    0.5322681932214541    
  0.5243502108802035    0.4877359517851225    0.422098935282203    0.3632076343097887    0.3416885131744659    
  0.3634118826924032    0.4152003061121745    0.4701314831094786    0.4944188769165576    0.47013147117027804    
  0.4152003224169397    0.36341191043412935    0.34168851605652556    0.36320763459360894    0.42209891631742197    
  0.4877359290267094    0.5243502026238428    0.5322681932214541    0.6210610384378233    0.5863634223431151    
  0.49676773882428965    0.39459970462167376    0.3225859772417113    0.29719996554778083    0.31554718371684887    
  0.3634118866589355    0.414820124510076    0.4375031086643598    0.4148201213861878    0.36341185785593877    
  0.3155471975560754    0.2971999643828254    0.3225859589291946    0.3945996821551441    0.49676773647931055    
  0.5863633617067362    0.6210610384378233    0.6601220722666133    0.613824149991178    0.5026118863329971    
  0.38676548618069373    0.30983611898059515    0.281946817491176    0.2971999999618496    0.34168852421335055    
  0.39008637892385717    0.4113370503136118    0.3900863772696159    0.34168849826158165    0.29720001682929886    
  0.28194685731122265    0.3098360970650504    0.386765451623496    0.5026118672149956    0.6138241326525289    
  0.6601220722666133    0.6579602307085821    0.6196331627740935    0.5232034466603489    0.415764071590369    
  0.339634414986114    0.309836100596178    0.322585967053717    0.3632076328292432    0.40675532831528693    
  0.4255681693119861    0.406755343673328    0.36320763777687026    0.322586007800142    0.3098361355155576    
  0.3396344360211713    0.415764055072133    0.523203496519696    0.6196331306450095    0.6579602307085821    
  0.5362155439389555    0.5393220066016635    0.52577402815298    0.47467408110560017    0.4157640653520671    
  0.38676541346994375    0.3945996718625978    0.42209894344264215    0.4468455043373787    0.45612017181305586    
  0.44684552600409294    0.4220989447645386    0.39459972162025303    0.3867654677602255    0.4157640667746423    
  0.474674049339669    0.525774024892271    0.5393220425553402    0.5362155439389555    0.2762168363105626    
  0.3280766941593029    0.4471551178069429    0.5257740915364648    0.5232035158653772    0.502611851442551    
  0.4967677558150445    0.4877359497727519    0.46495860165626374    0.4516796314096858    0.4649585667456383    
  0.48773595684375226    0.49676779612755984    0.5026119063309369    0.5232034952127804    0.5257740725436538    
  0.4471550831507108    0.3280766684428167    0.2762168363105626    0.09486395242930683    0.14802512638012777    
  0.3280766742269208    0.5393220499276912    0.6196331355052429    0.6138241186335731    0.5863633882583282    
  0.5243502595438095    0.4414172133850074    0.40283121568738356    0.4414171766847004    0.5243502012672724    
  0.5863634151875748    0.61382417924663    0.6196331610124914    0.539322026024801    0.3280766692156335    
  0.1480251154315359    0.09486395242930683    0.050926659692342266    0.09486394615578624    0.2762168103583184    
  0.5362155310964821    0.657960171290237    0.6601220024309755    0.6210610784377005    0.5322681739628435    
  0.4221916738376566    0.3735125091012757    0.42219168728437706    0.5322681647045333    0.6210610795984381    
  0.6601220152403798    0.6579601671632921    0.5362155350903351    0.2762168118304582    0.09486394560516812    
  0.050926659692342266    0.09202637523490223    0.14232809734636198    0.30910605630517296    0.49636292347273875    
  0.558081434038089    0.5492615849297173    0.5471673214387651    0.5522901696356307    0.5479123963106778    
  0.5427349097787505    0.5479123791229462    0.5522901796045974    0.547167322087301    0.549261599860275    
  0.5580813965491032    0.4963629457936044    0.3091060577277564    0.1423280836579483    0.09202637523490223    
  0.14797756029787518    0.20258630648239376    0.3572732423231581    0.49968637692704104    0.5299042717320155    
  0.5135836738573203    0.5128578009051888    0.5243283930804524    0.5298071748365847    0.5298357324731345    
  0.5298071855341653    0.5243284285001917    0.5128578687991383    0.5135836584040493    0.5299042984506285    
  0.49968636969582153    0.357273259189941    0.2025862849986951    0.14797756029787518    0.346370510312452    
  0.38718931537064455    0.46606160784192086    0.4927946604525049    0.4596474890119522    0.42926556026967183    
  0.43110196992361516    0.45433638380664193    0.47775141481192    0.4872062138137735    0.47775141674629257    
  0.4543363912494587    0.43110196907963944    0.42926560238933814    0.45964747385441523    0.492794673662662    
  0.4660616102714082    0.3871892949544475    0.346370510312452    0.5999563358566123    0.5889361282734976    
  0.5420979170706257    0.46006106557272886    0.38303052124332204    0.34412352274833985    0.347268321188268    
  0.3775097122323757    0.4115974377214774    0.4265369314414209    0.4115974093446538    0.3775096957914419    
  0.34726833841411275    0.3441235087731682    0.38303053417359956    0.4600610653498676    0.5420979373900299    
  0.5889360696370567    0.5999563358566123    0.7212105195267434    0.6728049293732228    0.5538105282021312    
  0.42496790022596914    0.33383211384729583    0.2931546466254978    0.2964519708021785    0.3284454112332863    
  0.3655747656671109    0.3819940206590883    0.36557474674937246    0.32844538461691036    0.2964519681844297    
  0.2931546814642415    0.33383208620178906    0.4249678812361936    0.5538104598635107    0.6728048869476713    
  0.7212105195267434    0.7229381845632485    0.6724092738227198    0.5494957291539773    0.4184558561644754    
  0.32717089617720146    0.2870811243726224    0.29104079333487853    0.323794869767898    0.361724220322547    
  0.37853017065755207    0.3617242335908558    0.3237948640111904    0.2910408139950819    0.2870811501166639    
  0.32717088833158353    0.4184558623495035    0.5494957628931461    0.6724092567229983    0.7229381845632485    
  0.6253840674705299    0.6045400212124244    0.5378479712181682    0.4425293764868826    0.36229342816998195    
  0.3245204068715116    0.33006189328861635    0.36396016551651056    0.4024167067619469    0.41950539013848664    
  0.4024167219287785    0.36396014656736164    0.33006189592754903    0.32452042787616986    0.36229343287173027    
  0.4425293709058052    0.5378480178684346    0.6045400483025551    0.6253840674705299    0.4120953574442917    
  0.4396339672420017    0.4811860992720793    0.4716807711799378    0.4244604131783092    0.3938518447821329    
  0.40094569985810297    0.4345118323673483    0.47107728079754446    0.4870907615196029    0.47107723389821243    
  0.43451181501420044    0.40094568873466163    0.39385188936182647    0.4244603943935659    0.4716807683320064    
  0.48118605418262206    0.4396339497346307    0.4120953574442917    0.21942217062330388    0.27103986956757037    
  0.3954764432944008    0.4833942154437747    0.48381768411481146    0.4642453443449784    0.472475818435736    
  0.5037415955302363    0.5347098825065082    0.5472850595002315    0.5347098694808207    0.5037415705876584    
  0.4724758639767534    0.46424537348418254    0.4838177263516365    0.4833942296884144    0.3954764131643986    
  0.27103986059174    0.21942217062330388    0.15595467495444118    0.2092751817493473    0.35541999678711866    
  0.48388306456641594    0.5081590206793136    0.4944048714288782    0.5031620310101095    0.5330182364577877    
  0.5603990215946101    0.5706891839978112    0.560399004193605    0.5330182588943412    0.5031620267650446    
  0.4944049060797135    0.5081589977108436    0.48388304869389165    0.3554200205168414    0.20927517179679347    
  0.15595467495444118    0.21942217094775607    0.27103986684922937    0.3954764124823245    0.4833942456770413    
  0.48381771726954986    0.46424536742823813    0.472475830094928    0.5037415687274633    0.534709871899125    
  0.5472850320777397    0.5347098960077012    0.5037415795910036    0.47247587597009766    0.46424540150477567    
  0.4838177000373456    0.4833941789826439    0.3954764227739809    0.27103986299019284    0.21942217094775607    
  0.4120953851292379    0.4396339557306086    0.48118608279818337    0.4716807593848248    0.4244604255067986    
  0.3938518493432635    0.40094567099054473    0.43451179566292075    0.47107723950547625    0.4870907808665744    
  0.47107722603185137    0.4345118125667701    0.40094569006808223    0.3938518712755934    0.42446040734341295    
  0.4716807720340749    0.48118607145702097    0.43963391890712833    0.4120953851292379    0.6253840819836887    
  0.6045400726466744    0.5378480134211802    0.4425293879234715    0.36229344686203524    0.3245204220737873    
  0.3300618861424127    0.3639601702636627    0.4024166979259085    0.41950539904712986    0.402416691360505    
  0.36396014594268017    0.3300618817918651    0.3245204172100755    0.36229341676073384    0.44252934999996707    
  0.5378480109357863    0.6045400389552509    0.6253840819836887    0.7229382584971858    0.6724092827307256    
  0.5494957968942539    0.41845587222435576    0.3271708905173228    0.28708111974407824    0.29104082170416357    
  0.3237948563896762    0.3617242179954818    0.37853016466781453    0.36172421639761476    0.32379485916589296    
  0.2910408292831776    0.28708115426996095    0.3271708631942614    0.41845586868417517    0.5494957533383342    
  0.6724092299776301    0.7229382584971858    0.7212104614312613    0.672804917668063    0.553810430727483    
  0.4249678915544145    0.3338320960895471    0.2931546459327169    0.29645194291859206    0.328445412702793    
  0.3655747471588654    0.3819940508410608    0.3655747659350929    0.3284454027655059    0.2964519790428952    
  0.29315467799062367    0.3338320847012252    0.4249678799017895    0.5538104564842775    0.6728049399600384    
  0.7212104614312613    0.5999563230002392    0.5889360599695058    0.542097902960273    0.46006109693787334    
  0.3830305402243343    0.3441234836523211    0.3472683226913364    0.37750971236534386    0.41159745156846983    
  0.4265369407410661    0.4115974708484966    0.3775097248134844    0.3472683292179097    0.3441235230755963    
  0.38303052739404403    0.4600610749422408    0.5420979379683146    0.5889360832191611    0.5999563230002392    
  0.3463704975080901    0.38718931966423403    0.4660616336879227    0.49279472049533246    0.459647525576305    
  0.42926555684884904    0.43110195522138345    0.4543364088354323    0.47775145488432647    0.48720619470899557    
  0.47775140663036136    0.4543363783987333    0.4311019953967484    0.4292656119631128    0.4596474977074296    
  0.4927946747626735    0.46606160041292105    0.38718930384108036    0.3463704975080901    0.14797756332767495    
  0.20258629863479785    0.35727323904115904    0.4996864205111816    0.5299042777492612    0.5135836547743099    
  0.5128578166511647    0.5243284521198756    0.529807197688528    0.5298357497726128    0.5298071685339206    
  0.5243284353305321    0.5128578144479223    0.5135836946403626    0.5299043032359902    0.49968638405423627    
  0.3572732291764137    0.20258628072492643    0.14797756332767495    0.09202637523490223    0.14232809734636198    
  0.30910605630517296    0.49636292347273875    0.558081434038089    0.5492615849297173    0.5471673214387651    
  0.5522901696356307    0.5479123963106778    0.5427349097787505    0.5479123791229462    0.5522901796045974    
  0.547167322087301    0.549261599860275    0.5580813965491032    0.4963629457936044    0.3091060577277564    
  0.1423280836579483    0.09202637523490223    0.255395668472521    0.30260019541613803    0.40768399557041674    
  0.47111731094001225    0.4630445697489203    0.4473109595348857    0.46503991516280496    0.5107664001463899    
  0.557270200248168    0.5769368804922768    0.5572701807005537    0.5107664215487406    0.4650398677917823    
  0.447310983868582    0.4630445410056557    0.4711173086473998    0.4076840142929499    0.30260018319778836    
  0.255395668472521    0.31791119706670773    0.35752278628604495    0.4353228610815685    0.46602809779899307    
  0.44180500576800186    0.42207386880241055    0.43851745356660016    0.48333079475594026    0.5301872276138603    
  0.5504709635168193    0.5301872268036824    0.4833307757591772    0.43851748799994256    0.4220738540023901    
  0.44180500310437837    0.4660280845428173    0.43532286206313886    0.35752275182401116    0.31791119706670773    
  0.48037448656622034    0.49026742683869134    0.4901072587137336    0.4476231584710063    0.39141514018136236    
  0.36394734464252193    0.3776890959426081    0.420313337530002    0.4666442195766768    0.4872347954148527    
  0.4666441772307088    0.42031335338076004    0.37768909421889535    0.3639473657041614    0.3914151397632723    
  0.44762319061996064    0.4901072380099327    0.49026737008195104    0.48037448656622034    0.6339122730970651    
  0.6045066654986295    0.5224196249842402    0.41990651553578945    0.34148491596918873    0.308497049300612    
  0.3192361027147215    0.35890903436941757    0.40290278332089624    0.4224486321268338    0.40290276936454683    
  0.35890899683118704    0.3192361188309224    0.3084970415927943    0.3414849145076047    0.4199064908974206    
  0.522419624532925    0.6045066207411732    0.6339122730970651    0.701289013166597    0.6515928601823432    
  0.5315589832796784    0.40515479836132856    0.31887810296200847    0.2832521507540076    0.291285023175109    
  0.3281853963436521    0.3698259700877411    0.3882380438845026    0.3698259764346575    0.32818540025204035    
  0.2912850213916855    0.28325219585086536    0.318878078692272    0.40515478660036874    0.5315589251508916    
  0.6515927992614797    0.701289013166597    0.6975955783264696    0.6536832619019561    0.5443461990050581    
  0.42396245527357546    0.3381431449577421    0.30097415776865005    0.30719777443822427    0.3418059939379237    
  0.38086675422511646    0.39801207886988976    0.380866751802033    0.3418059888259619    0.30719779885410314    
  0.3009741737108337    0.33814315236713344    0.42396246457227293    0.5443462338955957    0.6536832511922006    
  0.6975955783264696    0.5670811880834291    0.564657876317084    0.537025762132706    0.47098684108581274    
  0.40154069631612727    0.3656042207341813    0.3694810501929231    0.39773861251919584    0.42758763276090034    
  0.4401000645078156    0.4275876508249338    0.3977385957572136    0.3694810453121973    0.3656042239688181    
  0.40154069622317917    0.47098681619106325    0.5370257955354889    0.5646578863193501    0.5670811880834291    
  0.29860177009428057    0.3471607569140962    0.45251339242856126    0.510761474577093    0.4937442513550146    
  0.46693254201931994    0.46463393994820135    0.4742262438823617    0.4783081539064785    0.47803328824589125    
  0.47830812581730525    0.474226233879846    0.4646339479275388    0.46693258531848547    0.49374424966936187    
  0.5107614878711715    0.4525133936442877    0.3471607239040109    0.29860177009428057    0.10797177019355139    
  0.16142663185054854    0.3323191907953295    0.5175275920097308    0.5765902599801436    0.565480302827502    
  0.5534246253279513    0.5345625680626316    0.5013551900910866    0.4833228816465959    0.5013551683621644    
  0.5345625279533406    0.5534246670191822    0.5654803693751563    0.5765902945882333    0.5175275548756499    
  0.33231917300807723    0.1614266110378478    0.10797177019355139    0.06015822704782894    0.1055613496509053    
  0.28052221999192073    0.5126296998432461    0.6094608766611802    0.6067777065260006    0.5895216011473425    
  0.5557579344340865    0.5037720988231157    0.47718004187524926    0.5037720875038767    0.5557579630277191    
  0.589521657913226    0.6067777459251947    0.6094608567804235    0.5126296737537098    0.2805222442563559    
  0.10556134662881494    0.06015822704782894    0.10797176761089616    0.16142662833973173    0.33231917043496056    
  0.5175275699834146    0.5765903176667658    0.5654803318587942    0.5534246248202204    0.5345625025376276    
  0.5013551956824919    0.4833228467008198    0.5013552008219354    0.5345625372463007    0.5534246916993277    
  0.5654803793321135    0.5765903013757137    0.5175275737325459    0.3323191603754736    0.16142662788805334    
  0.10797176761089616    0.2986017957762851    0.34716073516457857    0.4525133548568897    0.5107614642143842    
  0.4937442765141911    0.4669325582449019    0.4646339109539592    0.4742262076541594    0.4783081154729994    
  0.47803330452119464    0.47830813818909423    0.4742262277227794    0.4646339294503653    0.46693258381567776    
  0.49374427160296713    0.5107614535247971    0.4525133734998289    0.34716071902776835    0.2986017957762851    
  0.5670811956704443    0.564657939280364    0.5370257632524467    0.4709868550144302    0.4015407070137215    
  0.3656042201675592    0.36948103304918617    0.3977386059246134    0.42758761879245505    0.44010007454086325    
  0.42758761974568416    0.39773859410346946    0.36948102643653236    0.36560421276004956    0.4015406791504436    
  0.47098683414742337    0.537025767664783    0.5646578878215732    0.5670811956704443    0.6975956287808419    
  0.6536832983011835    0.5443462258969988    0.4239624849403898    0.3381431443057042    0.3009741491639089    
  0.30719779956617593    0.34180599335572304    0.3808667769124467    0.3980120325259568    0.38086674473115256    
  0.34180597182228434    0.30719780962453125    0.30097417554469047    0.3381431172653101    0.42396245966480284    
  0.5443462089323958    0.6536832546007948    0.6975956287808419    0.7012889893576688    0.6515928112322391    
  0.5315589326986226    0.40515476951777096    0.3188780950468348    0.28325215913358703    0.2912850164798645    
  0.3281854322633737    0.3698259671186504    0.3882380727909863    0.36982596373802856    0.3281854126815992    
  0.29128503071416667    0.2832521870211127    0.3188780829930815    0.40515475811559626    0.5315589258050948    
  0.6515928089353016    0.7012889893576688    0.6339122666656702    0.6045066118581808    0.5224195865173054    
  0.4199065469639173    0.3414849165796929    0.3084970423149301    0.319236091050771    0.35890904495486725    
  0.40290279222526904    0.422448672338098    0.40290276477130205    0.3589090190377194    0.31923611647325345    
  0.3084970638859273    0.34148491364818406    0.41990650779355937    0.5224196300564795    0.6045065880559998    
  0.6339122666656702    0.48037449302683904    0.4902674083709621    0.4901072956919305    0.4476232255693095    
  0.39141519876790243    0.363947337525137    0.37768908494920556    0.42031335511483875    0.4666442439725227    
  0.48723479070417125    0.4666442192018124    0.42031333196780135    0.3776891025023601    0.3639473689594209    
  0.3914151732285773    0.44762318864772827    0.4901072422843718    0.4902673964843813    0.48037449302683904    
  0.3179111947930338    0.3575227816120929    0.43532282298569847    0.4660281254291914    0.44180499909636317    
  0.42207386379432277    0.4385174509576487    0.483330809138085    0.5301872333740817    0.5504710025371974    
  0.5301871890258707    0.48333076491790744    0.4385174753358677    0.4220738892402899    0.4418050015395929    
  0.4660281124351242    0.435322799161745    0.3575227589626172    0.3179111947930338    0.255395668472521    
  0.30260019541613803    0.40768399557041674    0.47111731094001225    0.4630445697489203    0.4473109595348857    
  0.46503991516280496    0.5107664001463899    0.557270200248168    0.5769368804922768    0.5572701807005537    
  0.5107664215487406    0.4650398677917823    0.447310983868582    0.4630445410056557    0.4711173086473998    
  0.4076840142929499    0.30260018319778836    0.255395668472521    0.4771814928172243    0.4833214034134509    
  0.4780346537633165    0.4400987447009347    0.39801331110447435    0.3882367457932517    0.422450019087852    
  0.48723339105181473    0.5504724835592513    0.5769353512442535    0.5504724639925266    0.48723338821015577    
  0.42244997058247696    0.38823678461518835    0.39801327707036865    0.4400987376425683    0.47803466737279937    
  0.4833214253915921    0.4771814928172243    0.5037706769199217    0.5013566603327262    0.4783067690760291    
  0.42758895253913176    0.3808655125301778    0.3698271920091316    0.4029015161425322    0.46664559067031314    
  0.530185754265184    0.5572716906484313    0.5301857535707697    0.466645578627516    0.4029015482910822    
  0.3698271847451999    0.3808655038448171    0.4275889749158281    0.4783067558752722    0.5013566125895959    
  0.5037706769199217    0.5557594855994806    0.5345610904345541    0.4742276086079023    0.3977372997110157    
  0.34180715914417203    0.32818424326860507    0.3589102690353667    0.4203120415658017    0.48333220555413675    
  0.5107649738505701    0.483332174576568    0.42031206115346426    0.358910262430342    0.3281842543599986    
  0.34180716665224276    0.39773730630346216    0.47422759857267727    0.5345610694152169    0.5557594855994806    
  0.5895200920631424    0.5534261464410019    0.46463253772315843    0.369482260480963    0.3071966161478938    
  0.29128611958751566    0.3192349337299189    0.3776903395751901    0.4385160813253679    0.46504127180425525    
  0.43851607194668907    0.37769031446041185    0.31923496046444766    0.29128612297621337    0.3071966232790829    
  0.3694822468027983    0.4646325402536519    0.5534260981425809    0.5895200920631424    0.6067793723801949    
  0.5654788657136454    0.46693396657576697    0.36560300009540386    0.30097531178169185    0.2832510529170775    
  0.3084982127422992    0.36394608616564667    0.42207521962523536    0.44730963690132436    0.42207519818350203    
  0.36394610601283045    0.30849821068921246    0.2832510838787959    0.300975297907327    0.36560299071377467    
  0.466933947521356    0.5654788234396996    0.6067793723801949    0.60945934030546    0.5765918293611624    
  0.49374285770282805    0.4015419924852841    0.3381419590645219    0.31887923665973833    0.3414837507203895    
  0.3914164272765698    0.44180366439760493    0.46304597372986567    0.44180369680664244    0.39141641760674933    
  0.34148376055087687    0.3188792665902738    0.33814195149574966    0.4015420041562677    0.493742868087554    
  0.5765918038932532    0.60945934030546    0.5126311524295396    0.517526127111693    0.5107628833950217    
  0.470985458763132    0.4239637633240062    0.4051534968107118    0.419907848916094    0.44762189243903955    
  0.4660294419613402    0.47111592948592224    0.4660294484237465    0.4476218553378518    0.4199078373164626    
  0.4051534908443176    0.4239637535946185    0.470985445780371    0.5107629287645334    0.5175261233401484    
  0.5126311524295396    0.2805210895259708    0.33232040480146696    0.4525120460497079    0.5370272399611176    
  0.5443447238180917    0.5315603777555628    0.522418228964816    0.490108661013344    0.4353215405106439    
  0.40768528618253347    0.43532149875794446    0.4901086459520787    0.5224182112533298    0.5315604353095456    
  0.5443446972133659    0.5370272421346912    0.45251200456778784    0.3323203767598732    0.2805210895259708    
  0.10556212388885096    0.16142571828578783    0.3471619782697859    0.5646564075288574    0.6536848396651548    
  0.6515911743989672    0.6045081392422607    0.4902659984025476    0.35752400340942814    0.3025990673185533    
  0.3575239644469255    0.49026595748209023    0.60450819626694    0.651591257260884    0.6536848579498441    
  0.5646564038241755    0.34716195475274014    0.16142570265667788    0.10556212388885096    0.06015760893500426    
  0.10797254639620066    0.2986006239700874    0.567082693341875    0.6975938713946856    0.70129060116765    
  0.6339106864780101    0.48037584276931455    0.3179099871771266    0.2553967695312164    0.3179099673731012    
  0.4803758666115643    0.6339107224326453    0.7012906494976566    0.697593838141718    0.5670826656847588    
  0.29860063500152034    0.10797254419464501    0.06015760893500426    0.10556211930227226    0.1614257158842883    
  0.34716194827222707    0.564656389684931    0.6536848805750946    0.6515912093554184    0.6045081398879719    
  0.4902659438069497    0.3575239852299188    0.30259905167684514    0.3575240006863446    0.49026598519453835    