#     DFTpy    
  CRYSTAL 
    
  PRIMVEC    
  11.56243246386989    2.1509736965517243e-09    -6.984133241379309e-10    
  2.1509736965517243e-09    11.562432466473714    -2.014872151724138e-09    
  -6.984133241379309e-10    -2.014872151724138e-09    11.562432467198624    
  PRIMCOORD    
  63    1    
  Si    2.8906081704261815    2.5328103263507404e-08    2.8906080574225506    
  Si    8.671824402361128    2.6403590111783267e-08    2.8906080570733437    
  Si    2.8906081715016683    5.78121625856496    2.8906080564151146    
  Si    8.671824403436613    5.781216259640447    2.8906080560659073    
  Si    2.890608170076976    2.4320667187645333e-08    8.671824291021862    
  Si    8.671824402011918    2.5396154035921192e-08    8.671824290672655    
  Si    2.8906081711524623    5.781216257557524    8.671824290014428    
  Si    8.671824403087406    5.781216258633012    8.671824289665219    
  Si    1.445304057269736    1.445303983388902    1.4453040023795745    
  Si    7.2265202892046805    1.4453039844643891    1.445304002030368    
  Si    1.4453040583452226    7.226520216625759    1.4453040013721385    
  Si    7.226520290280168    7.226520217701246    1.445304001022932    
  Si    1.4453040569205295    1.445303982381466    7.226520235978887    
  Si    7.226520288855474    1.4453039834569528    7.22652023562968    
  Si    1.4453040579960161    7.226520215618323    7.22652023497145    
  Si    7.226520289930961    7.226520216693809    7.226520234622244    
  Si    2.8906081861752493    2.8906080956775395    3.6566152502691714e-08    
  Si    8.671824418110193    2.890608096753027    3.621694584062275e-08    
  Si    2.890608187250736    8.671824328914397    3.5558716426829646e-08    
  Si    8.671824419185677    8.671824329989885    3.520950976476068e-08    
  Si    2.890608185826043    2.8906080946701036    5.781216270165464    
  Si    8.671824417760986    2.8906080957455904    5.781216269816256    
  Si    2.8906081869015297    8.671824327906961    5.781216269158028    
  Si    8.67182441883647    8.67182432898245    5.781216268808822    
  Si    1.4453040611432055    4.335912228000389    4.335912234577617    
  Si    7.22652029307815    4.335912229075876    4.335912234228411    
  Si    1.4453040622186923    10.117128461237247    4.335912233570182    
  Si    7.226520294153636    10.117128462312735    4.335912233220975    
  Si    1.445304060793999    4.335912226992953    10.11712846817693    
  Si    7.226520292728943    4.33591222806844    10.117128467827724    
  Si    1.445304061869486    10.117128460229809    10.117128467169493    
  Si    7.22652029380443    10.117128461305297    10.117128466820287    
  Si    5.781216180494316    2.905993112823963e-08    5.543703828619834e-08    
  Si    11.562432413504748    5.781216263372277    5.408039554826731e-08    
  Si    5.781216181569802    5.781216262296788    5.442960221033628e-08    
  Si    11.562432412080053    2.9127981900653427e-08    5.781216288687143    
  Si    5.781216180145109    2.8052495052377564e-08    5.78121628903635    
  Si    11.562432413155543    5.781216262364841    5.781216287679707    
  Si    5.781216181220596    5.7812162612893525    5.781216288028914    
  Si    4.335912177358637    1.4453040226128406    4.335912227920119    
  Si    10.11712840929358    1.4453040236883274    4.335912227570913    
  Si    4.335912178434124    7.226520255849699    4.335912226912682    
  Si    10.117128410369066    7.226520256925185    4.335912226563476    
  Si    4.335912177009431    1.4453040216054047    10.11712846151943    
  Si    10.117128408944373    1.4453040226808918    10.117128461170225    
  Si    4.335912178084917    7.226520254842263    10.117128460511994    
  Si    10.117128410019859    7.226520255917749    10.117128460162789    
  Si    11.562432392728157    2.890608085844638    2.89060808121277    
  Si    5.781216160793213    2.890608084769151    2.890608081561976    
  Si    11.562432393803643    8.671824319081495    2.8906080802053338    
  Si    5.7812161618687    8.67182431800601    2.8906080805545407    
  Si    11.562432392378948    2.890608084837202    8.671824314812081    
  Si    5.781216160444006    2.8906080837617147    8.671824315161286    
  Si    11.562432393454438    8.671824318074059    8.671824313804645    
  Si    5.781216161519494    8.671824316998574    8.67182431415385    
  Si    4.335912168193023    4.335912233228843    1.4453040001645665    
  Si    10.117128400127966    4.335912234304329    1.44530399981536    
  Si    4.33591216926851    10.117128466465697    1.4453039991571306    
  Si    10.117128401203454    10.117128467541187    1.445303998807924    
  Si    4.335912167843815    4.335912232221407    7.226520233763878    
  Si    10.117128399778759    4.335912233296893    7.226520233414672    
  Si    4.335912168919302    10.117128465458263    7.2265202327564415    
  Si    10.117128400854245    10.117128466533753    7.2265202324072355    
  BEGIN_BLOCK_DATAGRID_3D    
  3d_datagrid_density    
  BEGIN_DATAGRID_3D#0    
  51    51    51    
  0.0    0.0    0.0    
  11.56243246386989    2.1509736965517243e-09    -6.984133241379309e-10    
  2.1509736965517243e-09    11.562432466473714    -2.014872151724138e-09    
  -6.984133241379309e-10    -2.014872151724138e-09    11.562432467198624    
  0.026300884554883146    0.026948703438669026    0.02876431158078462    0.03142790484940695    0.03446137607003861    
  0.03713643729092788    0.03877714961275365    0.03910087439082512    0.03815495737925344    0.036343039011707226    
  0.03435720269221973    0.03279575297949889    0.03204649195241846    0.03239879982940553    0.03415917253974703    
  0.03792947710252665    0.0449830310653452    0.05801058962951857    0.08258955632081953    0.12909224431162417    
  0.21259057316145547    0.3321533899784648    0.3957496053432162    0.2710746909914843    0.11073559518704386    
  0.0630730834777704    0.11073563189052586    0.2710747657328098    0.3957496484916357    0.3321533946181209    
  0.21259042734120406    0.12909221744170024    0.08258955714607964    0.05801055519898191    0.04498302162491952    
  0.03792949641588258    0.03415914784284711    0.03239878273374139    0.032046504441614325    0.03279574825933481    
  0.0343572076064418    0.03634305392459178    0.038154976440033066    0.03910087003900746    0.0387771350181839    
  0.037136430132906226    0.03446138305550694    0.03142788732839834    0.02876431050412363    0.026948709752496292    
  0.026300884554883146    0.026948724485869425    0.027652605562910753    0.029666893821133956    0.0326623840170362    
  0.03607199260130463    0.03906215338143937    0.040878303894446806    0.041154070200730496    0.03997651844081193    
  0.03783557660507054    0.035505849606734294    0.03367748865534289    0.03278860370549752    0.03312611113683405    
  0.03499195920464062    0.03895914229603089    0.04623825839613414    0.05934105099941618    0.0835407197097312    
  0.12843309837821265    0.2078980949181182    0.323496290232812    0.4020947436351174    0.31681938464756215    
  0.16558208156645224    0.110813828315283    0.16558219599334517    0.3168195002491211    0.4020947494704326    
  0.3234963058304431    0.2078981293547485    0.12843307417811917    0.08354071727744507    0.05934104441981186    
  0.0462382702351537    0.038959139561497505    0.03499197947678233    0.03312611214802272    0.032788619959603575    
  0.03367747698047498    0.03550584162252181    0.03783556603499091    0.039976535105453986    0.0411540854120945    
  0.040878276018968984    0.03906215172547478    0.036071997239487764    0.03266238103591088    0.029666911324151203    
  0.027652604091177656    0.026948724485869425    0.0287643124249862    0.02966690901576099    0.03228205005896918    
  0.03624050211753004    0.040770540497907855    0.0447762389498301    0.04719155046906982    0.04737889426244022    
  0.04551238567547552    0.04240073083362257    0.03908920061436055    0.036517149747885884    0.03522682779802382    
  0.0355280002372836    0.03769086905978152    0.042199874182230174    0.05008046966448581    0.06338562598482696    
  0.08645227241917239    0.12674165009022484    0.19462473915057005    0.29484589874617273    0.39204316740806716    
  0.39851820488980305    0.31722940989845655    0.2715930653800991    0.3172294673819489    0.3985182306588586    
  0.3920430546832107    0.2948458639607621    0.19462474620638914    0.12674164647783176    0.08645226784784202    
  0.06338557632603788    0.05008044891848868    0.0421998853094188    0.03769089395903764    0.035527944330406264    
  0.035226866729835396    0.03651713336674831    0.039089205959493875    0.042400730079559655    0.045512390181431606    
  0.047378890393075544    0.04719154845838194    0.04477624811093613    0.040770524568803534    0.036240518235504185    
  0.032282044616531586    0.029666883819461545    0.0287643124249862    0.03142786688858803    0.032662378347938795    
  0.03624048966845773    0.04171754607225532    0.04810438641169966    0.05384710792065405    0.05735877149782077    
  0.057628918982979324    0.05490338478794935    0.05043731063412361    0.04573712350077105    0.04210519373801006    
  0.04024465842383795    0.04049556689447727    0.04308417803244947    0.04832786491792254    0.056947577982785595    
  0.07027886156714648    0.0911740874156994    0.12431797518210311    0.17563815460999102    0.2489658439629416    
  0.3332662502372864    0.3925107906235615    0.4030511114772169    0.39689671060501813    0.4030512018590316    
  0.392510749281761    0.3332661922738391    0.2489658041769652    0.17563812756853012    0.12431800487286056    
  0.09117409771717219    0.07027882337212116    0.056947560850132854    0.04832787576436084    0.04308417100441009    
  0.04049556990306937    0.04024466628289317    0.04210516746549042    0.04573713343344828    0.05043730690066033    
  0.054903398580319875    0.05762890207540866    0.0573587335392061    0.053847083570601084    0.048104393826275925    
  0.04171754413133431    0.03624049755701182    0.032662362949325535    0.03142786688858803    0.03446137363898209    
  0.036072008464096444    0.04077052072053494    0.048104392351119664    0.0568520638162837    0.06489327419737001    
  0.07008441867332764    0.0710852288026911    0.06805421288693247    0.06256384896390885    0.056636875702571095    
  0.05202956427237444    0.04965248635998389    0.04985747618280217    0.05280701787715768    0.058615961502828766    
  0.06756401971778507    0.08007310100568982    0.09725682323996719    0.12129447669588564    0.1546921926256538    
  0.1985489076289896    0.24909653456756212    0.29534235882097015    0.32440338447620143    0.3332381142210891    
  0.3244033661085512    0.2953423150356044    0.24909646297540114    0.1985488779164648    0.1546921903961053    
  0.12129443123685399    0.09725683825665915    0.08007309624735462    0.06756405054331434    0.05861597702269385    
  0.052807047455665765    0.049857451156480305    0.04965246594212332    0.05202953883885868    0.056636848887377134    
  0.06256385761204346    0.0680541879876034    0.07108524892279322    0.07008436602711592    0.06489329862795758    
  0.05685206112132849    0.04810439164595922    0.04077052806268236    0.036071982116502796    0.03446137363898209    
  0.037136426704817184    0.039062160909963825    0.04477625361906537    0.05384710941734871    0.06489327757789419    
  0.07552656923397323    0.08325631538883108    0.08633191553436903    0.08468253237317513    0.07993010762563305    
  0.07425566675920482    0.06967673012933072    0.06731890643913174    0.06750596354422195    0.07031381298997716    
  0.07566152349673237    0.08332054513449216    0.0929440138105847    0.10441288097439604    0.1181297770994892    
  0.13483171664664173    0.15454624289134464    0.1755616647841716    0.194766430044711    0.20828692392922393    
  0.2130877167640412    0.2082869094774413    0.19476640756685074    0.1755615920626341    0.15454620572600583    
  0.1348316848997891    0.1181297278550233    0.10441288002190388    0.09294399813405707    0.0833205335867259    
  0.0756615532350384    0.0703138044997699    0.06750597206516157    0.06731894525186724    0.06967674904509309    
  0.07425565352879375    0.07993010237593251    0.0846825448908015    0.08633193545068796    0.08325634232684785    
  0.07552656328247569    0.06489328641626603    0.053847096133062114    0.04477625242106702    0.039062156320206334    
  0.037136426704817184    0.03877712629553859    0.04087828393588444    0.047191546360478426    0.057358752678763725    
  0.07008439043681668    0.08325632623880541    0.09444001891578863    0.1017324880571432    0.10488988468552173    
  0.10497188584834691    0.1033825456503289    0.10166198154974013    0.10082809125915498    0.10106516874862775    
  0.10230291023322864    0.10442402666177918    0.10701674508432144    0.10970703506345524    0.11246110021735398    
  0.11515863324858784    0.1178784503125094    0.12093945248732424    0.12402416828388614    0.12660061251178667    
  0.12844999615178118    0.12917438467853024    0.12845000991370106    0.1266006645567877    0.12402412057525648    
  0.12093946504005179    0.11787847585206851    0.11515858083697625    0.11246113152348514    0.10970704098111764    
  0.1070167861328849    0.10442406962647192    0.10230290568662917    0.10106511668663302    0.10082811137446446    
  0.1016619642566374    0.10338249717563777    0.10497192536228833    0.10488990106358562    0.10173251540474243    
  0.09444001002699898    0.08325633056896248    0.07008439808860413    0.057358756620451694    0.04719157466154649    
  0.040878281005091825    0.03877712629553859    0.03910086694819464    0.04115406963733791    0.047378907940659354    
  0.057628921490769223    0.07108522310635446    0.08633193525635173    0.10173247587889453    0.1161514887082078    
  0.12934229214532364    0.14113144519943216    0.15112417480313345    0.15877871850103822    0.1632283739804349    
  0.16362287697201655    0.15968219577638373    0.15218840180726392    0.14243867383437414    0.13171361222748015    
  0.12142197070741857    0.11221456136614541    0.10398260075101866    0.09680020063941053    0.09080644708286995    
  0.08622321693792426    0.08343269986258726    0.08252907913837515    0.08343268364708277    0.08622322544742038    
  0.09080643398977158    0.0968001754393581    0.10398262959556308    0.1122145205248148    0.121421982303715    
  0.13171355257035744    0.14243863572028737    0.1521883405465718    0.1596821846943886    0.1636228595007972    
  0.163228472373067    0.15877870607787722    0.15112421770573178    0.14113146136214638    0.12934229897201505    
  0.11615145857874128    0.10173249193664838    0.08633191854403129    0.07108524194990533    0.05762892782866611    
  0.04737890933955584    0.04115407048241947    0.03910086694819464    0.03815493090431232    0.03997652654977231    
  0.04551236487063348    0.05490338966490324    0.06805419450537616    0.08468252201229534    0.1048898691573051    
  0.12934227440898924    0.158667226534764    0.19188046023904343    0.22520817108748212    0.2522196188739766    
  0.26700097498144965    0.2676482348351528    0.2537305888634315    0.22685317790363757    0.19322797123140234    
  0.15993631481022627    0.13153211600317163    0.10934091357598047    0.09250662516919195    0.07969503273468427    
  0.07002624366200838    0.0632736560296758    0.05933532287756693    0.0580437637085915    0.05933533445696956    
  0.0632736664072122    0.07002624871870892    0.07969501618588797    0.09250665409589696    0.10934090191687587    
  0.1315321142712353    0.1599362497593721    0.1932279118227955    0.22685312297494722    0.25373062813824077    
  0.26764818202232993    0.2670010554002215    0.252219564508857    0.22520818873483725    0.19188059106171684    
  0.1586672593797034    0.12934228257683092    0.10488988998731223    0.08468250418691099    0.0680541900259557    
  0.05490338759104589    0.045512380159847904    0.039976520362838386    0.03815493090431232    0.03634305563442648    
  0.0378355855652114    0.04240074188385741    0.05043729747115963    0.06256381848494025    0.0799300777774154    
  0.10497190843484688    0.1411314409390816    0.19188049462066692    0.256342645395586    0.3215116913145036    
  0.3649191689283671    0.3797509380780643    0.3806027866351532    0.3672096560738859    0.32422212784810067    
  0.2584064160455138    0.19318695468975822    0.14227422130000203    0.10677135600025175    0.0831061602429094    
  0.06745251361638477    0.05696566189146181    0.05022313536171333    0.04646796747903751    0.045244025509676954    
  0.04646796729970888    0.05022315368140379    0.05696563990424582    0.06745251559815878    0.08310616681058688    
  0.10677129549808627    0.14227422860286598    0.19318696156357662    0.2584062954958793    0.32422209533122304    
  0.36720970180033785    0.3806027125556663    0.37975102132356175    0.36491912271337007    0.321511747839929    
  0.2563427537191318    0.19188057309139125    0.1411314605566498    0.10497189738371256    0.07993009012553622    
  0.06256385036983106    0.050437297881343775    0.042400735816752806    0.0378355672695461    0.03634305563442648    
  0.03435720175321387    0.03550583528211369    0.039089206668605644    0.04573712745516135    0.056636846858834425    
  0.07425566094402658    0.10338252256863882    0.15112415672612578    0.2252081723813804    0.3215116867857755    
  0.3978109523725449    0.3998651491743832    0.36187469919681103    0.3626841435872895    0.4023771511193826    
  0.4013075007635653    0.32448277831856975    0.22710033950533276    0.1523221605622528    0.10451511467599489    
  0.07580538726805823    0.05885768846108304    0.04868704722534451    0.042667170795391264    0.03950195968584868    
  0.03849830635169708    0.03950195682974075    0.04266716972491028    0.04868704167583744    0.058857664081533756    
  0.07580538034114453    0.10451506098596948    0.15232207029111702    0.22710029928381484    0.324482702584883    
  0.4013075461933939    0.402377168721343    0.36268410896470843    0.3618747278440045    0.399865158963525    
  0.39781096997474585    0.3215117525957196    0.22520823754569783    0.1511242072592982    0.1033824916547949    
  0.07425564873274788    0.05663685903894187    0.045737107830631965    0.03908920051398897    0.03550586637510038    
  0.03435720175321387    0.03279575145209561    0.03367747591074233    0.03651713287309566    0.04210518680156348    
  0.05202952326918372    0.06967674785328778    0.10166194783789206    0.15877873791888042    0.2522195224472249    
  0.3649191416667444    0.39986515831769315    0.2954850235123634    0.19255447988609836    0.19301690811946384    
  0.2972449539237508    0.4029934270021851    0.36815494419247274    0.2545319374182686    0.16027027078749878    
  0.10282648132662879    0.07086654783291339    0.05343711933049923    0.04381302294672217    0.03851339502062645    
  0.035881612448531726    0.03507333356871254    0.03588162733905021    0.038513409446938554    0.04381300058132294    
  0.05343712722163389    0.07086656015370392    0.10282643939926435    0.1602702508698625    0.2545318703296837    
  0.36815486277498055    0.4029935095748691    0.2972450612348291    0.1930168518636558    0.19255449807419703    
  0.29548484959653754    0.39986510880457193    0.36491917985547234    0.2522196271532043    0.15877878414502683    
  0.10166198502247867    0.06967677016542338    0.05202954037153068    0.04210517101901881    0.036517135071929614    
  0.03367747260911095    0.03279575145209561    0.032046485198565684    0.0327886230288644    0.03522682380799734    
  0.04024466637745182    0.04965244757348707    0.06731892203781792    0.10082804344011476    0.16322839256697488    
  0.26700094758454007    0.37975091282479523    0.3618747291288299    0.19255452939912163    0.08559965262997624    
  0.08577159097914618    0.19344035870382054    0.36396426331562304    0.38225874677082133    0.26901941823940057    
  0.16471780791167143    0.10202673831384626    0.06843005597923443    0.05081798623687806    0.04153665102131928    
  0.03665929880021187    0.03432773398671107    0.03362615402499966    0.03432772226172016    0.03665932114757679    
  0.04153665000074277    0.05081797490726016    0.06843004165904774    0.10202666900788594    0.1647178033364159    
  0.2690192875526957    0.38225866507173767    0.36396434941862427    0.1934405042058317    0.08577161493617108    
  0.08559964422228769    0.19255440482076513    0.3618747343434586    0.37975097696087445    0.26700103883776866    
  0.16322838135524692    0.10082808821195621    0.06731895065493568    0.049652461797029396    0.04024466489265621    
  0.035226842904288694    0.03278860208526613    0.032046485198565684    0.03239877684679505    0.033126107008490904    
  0.03552798064033024    0.04049556884031591    0.0498574473600118    0.06750594045687174    0.10106510804102475    
  0.16362279507639    0.26764810605658673    0.38060263766779007    0.36268412112956205    0.19301699945431594    
  0.08577161070895506    0.08582711988596874    0.19337974184777412    0.3636980653171285    0.38190266842641585    
  0.26881653938738026    0.16465910064994604    0.10202183964951403    0.06844663312171473    0.050837429338373694    
  0.04154955531213016    0.03666154990999466    0.03432200281432945    0.03361664747313964    0.0343220031491499    
  0.03666157403281454    0.04154954637266686    0.050837425170913955    0.06844662926294982    0.10202181419999834    
  0.1646590855995439    0.268816422421704    0.38190259022460854    0.36369810974881805    0.19337985308596964    
  0.0858271166253045    0.08577160520167372    0.19301680360906    0.36268410631799514    0.38060283234825804    
  0.2676482458969684    0.1636228023996325    0.1010651469249699    0.06750596292384166    0.04985746411327517    
  0.040495558129611815    0.035527956773334014    0.033126096823798176    0.03239877684679505    0.034159165069650464    
  0.03499197757986906    0.03769088971142914    0.04308416207460115    0.05280701311021774    0.07031377157920893    
  0.10230290042790245    0.15968220500254962    0.2537305457789062    0.36720955177062853    0.4023771223940304    
  0.2972450673496114    0.19344046533541231    0.19337980136375266    0.2970600396829788    0.402201399066432    
  0.36724806773671115    0.2540043259684693    0.16009799507105904    0.10281817716650365    0.07091854797719367    
  0.053497479447278236    0.04385146956265081    0.03852071371067109    0.03586280020616277    0.035045033423332074    
  0.03586278847422253    0.03852074083703459    0.04385147042920413    0.053497486084244816    0.07091855671812822    
  0.10281812978762728    0.16009804935159483    0.2540042303528281    0.3672480187682187    0.4022015211697751    
  0.29706011356155704    0.19337981295188744    0.19344046156592    0.2972450478479412    0.40237715702086996    
  0.3672096830968291    0.2537305852964037    0.15968224027674335    0.10230289876888145    0.07031380166547407    
  0.05280701280086705    0.04308417491884535    0.037690895487984453    0.034991979407658136    0.034159165069650464    
  0.037929502111628585    0.03895914477758961    0.04219987974601709    0.0483278956536496    0.058615967786603655    
  0.07566153460968461    0.10442402638763354    0.15218834176708285    0.22685314404493342    0.3242221279683266    
  0.40130754058781043    0.40299350480491897    0.3639642679968593    0.3636981395289774    0.40220151222486433    
  0.40025663791667376    0.32339690620257994    0.22641906909398796    0.15206484911823948    0.10451436721232128    
  0.07590065587738903    0.058962618966724126    0.04875275843995993    0.042677414471847794    0.039467715622975505    
  0.03844689487258805    0.03946770866971469    0.04267739513766882    0.04875274028850559    0.05896258613313959    
  0.07590064289889362    0.10451436947534458    0.1520648310179296    0.22641904985548159    0.32339690855164915    
  0.40025662626815733    0.4022014811248657    0.36369813115275107    0.36396438464673786    0.40299347594428603    
  0.40130754236020993    0.3242221887196771    0.22685320383024293    0.15218838865234988    0.10442405502871728    
  0.07566153145147132    0.05861597756981429    0.04832786338457784    0.04219989051151441    0.03895914318460811    
  0.037929502111628585    0.04498301685121992    0.046238268442037975    0.050080443676145496    0.05694754634063203    
  0.06756402531195684    0.08332052313712614    0.1070167731500589    0.14243864601711959    0.1932278364871748    
  0.2584063122110733    0.3244827205505062    0.36815486964515426    0.38225864292068706    0.38190262535694686    
  0.36724804459101945    0.3233969900239172    0.2574391572026492    0.1925080088597704    0.1419838054593606    
  0.10678486017701529    0.08325226067204176    0.06760666829884594    0.05705996490851593    0.05023402091993197    
  0.046411701493423274    0.04516297671124752    0.04641171032354189    0.05023403527486014    0.0570599436246488    
  0.06760666013802519    0.08325224581850235    0.10678488875164749    0.14198380634372595    0.19250797744108358    
  0.2574390905562291    0.3233969486583433    0.36724801305699495    0.38190252624546484    0.382258803935008    
  0.36815483519941694    0.3244826998698885    0.2584063379487447    0.19322796979663304    0.14243871087068083    
  0.10701676765478303    0.08332053148189557    0.06756404926671643    0.056947552604244306    0.05008047400037224    
  0.04623826622445567    0.04498301685121992    0.05801056497440499    0.059341043710491904    0.06338558557433473    
  0.07027883129776222    0.08007306407065716    0.09294399105315158    0.10970703593723422    0.13171357722706    
  0.15993626466779334    0.1931868832245665    0.227100297800578    0.2545318706915338    0.2690193772690981    
  0.26881648988885887    0.254004256421852    0.22641900462363412    0.19250804460490475    0.1593516115401535    
  0.13125447027646722    0.10936841973743713    0.09270281346877207    0.07990132548824057    0.07015123643613247    
  0.0632809285373696    0.05924741166581227    0.0579188351718924    0.05924737182320825    0.06328094124347475    
  0.07015125180892465    0.07990131997312366    0.09270280295837953    0.10936836813624057    0.13125445920587048    
  0.15935159744703956    0.19250798112022646    0.22641903629306329    0.2540043023151247    0.26881646716062346    
  0.26901939753723775    0.2545318610591772    0.22710036362012806    0.19318697887271913    0.15993626472780392    
  0.13171358401344466    0.1097070319868481    0.09294399354443453    0.080073059116855    0.07027883388381197    
  0.0633855768628705    0.05934104666792675    0.05801056497440499    0.08258950127190383    0.08354075215949756    
  0.08645224635545423    0.09117407497146975    0.09725678218842063    0.1044128754138272    0.11246111563548032    
  0.12142197971175422    0.13153208739117658    0.14227415317166217    0.1523220807535089    0.16027024830666306    
  0.16471781711726496    0.16465915214937368    0.16009798584289606    0.15206482809173713    0.1419837989301936    
  0.1312545192796865    0.12117801619679541    0.11224865454953672    0.10421688318389662    0.09706006792719062    
  0.09096305585679072    0.08622268685966132    0.0832944977019244    0.08233820234007619    0.08329449577824788    
  0.08622267984563357    0.09096303777699988    0.09706006443629765    0.10421689927297012    0.11224860611742497    
  0.12117803772477007    0.1312544499576508    0.14198380846061529    0.15206479484428959    0.1600979767325474    
  0.1646590848359168    0.16471786290673643    0.1602702210829105    0.15232211435549217    0.1422742030590491    
  0.1315321390537899    0.1214219371282767    0.1124611548001742    0.10441283303786644    0.09725681202837136    
  0.0911741237198984    0.08645224296325953    0.08354071385584197    0.08258950127190383    0.12909222478082238    
  0.1284330887355446    0.12674163133843266    0.12431800473445262    0.12129445797781953    0.11812970008657299    
  0.11515860700327873    0.11221454974930588    0.10934091159324182    0.10677130704494849    0.10451503268001097    
  0.10282645912835713    0.10202669773215255    0.10202182289165554    0.1028181035594758    0.10451436052501345    
  0.10678485089529594    0.10936842506439064    0.11224863297866475    0.1151854613273158    0.11813067602373388    
  0.12125070981110238    0.12421876142318025    0.1265866895502121    0.1282380678676611    0.12888081452595407    
  0.1282380556219316    0.12658667833219306    0.12421875604322827    0.1212506956285567    0.11813068865332861    
  0.11518539411460291    0.1122486811667997    0.10936840109511271    0.10678485107505697    0.10451435307606317    
  0.10281813989268412    0.10202182804974279    0.10202672672270344    0.102826459002905    0.1045150753334247    
  0.10677130140417236    0.1093409012407962    0.1122145380095324    0.11515857170738177    0.1181297286925396    
  0.12129446938665893    0.1243179956495347    0.12674167394340716    0.12843306101564045    0.12909222478082238    
  0.21259046395206047    0.2078980653193717    0.19462470677089413    0.17563816778650113    0.15469214820025157    
  0.13483170536897826    0.11787844809264661    0.10398259338211324    0.0925066195861356    0.08310613054917983    
  0.07580537369265686    0.07086654513726706    0.06843003670864012    0.06844664475182241    0.07091855665588892    
  0.07590061361865741    0.08325225729071055    0.09270286978569006    0.10421691775159757    0.11813070628214574    
  0.13507658184127083    0.154907798704777    0.17580714323149482    0.19474491585708897    0.20797710413566659    
  0.21265542623698624    0.20797711936909685    0.19474495215983537    0.1758070808071971    0.15490778088380447    