#     DFTpy    
  CRYSTAL 
    
  PRIMVEC    
  9.995909355861713    1.8595514537931038e-09    -6.037895834482759e-10    
  1.8595514537931038e-09    9.99590935811276    -1.7418894731034485e-09    
  -6.037895834482759e-10    -1.7418894731034485e-09    9.995909358739459    
  PRIMCOORD    
  63    1    
  Si    2.498977386045861    2.189655378909672e-08    2.4989772883523993    
  Si    7.496932063976718    2.2826329515993272e-08    2.4989772880505043    
  Si    2.4989773869756364    4.997954700952934    2.4989772874814546    
  Si    7.496932064906493    4.997954701882709    2.4989772871795592    
  Si    2.4989773857439666    2.1025609052544998e-08    7.496931967722128    
  Si    7.496932063674822    2.1955384779441548e-08    7.496931967420233    
  Si    2.4989773866737424    4.997954700081989    7.496931966851185    
  Si    7.496932064604598    4.997954701011764    7.496931966549289    
  Si    1.2494886688654494    1.2494886049942768    1.2494886214120198    
  Si    6.247443346796306    1.2494886059240524    1.249488621110125    
  Si    1.249488669795225    6.247443284050656    1.249488620541075    
  Si    6.247443347726082    6.247443284980432    1.2494886202391804    
  Si    1.249488668563555    1.249488604123332    6.247443300781749    
  Si    6.247443346494411    1.2494886050531075    6.247443300479855    
  Si    1.2494886694933303    6.247443283179711    6.247443299910804    
  Si    6.247443347424187    6.247443284109486    6.24744329960891    
  Si    2.4989773996611837    2.4989773214244533    3.1612028615230266e-08    
  Si    7.49693207759204    2.4989773223542295    3.1310133823506124e-08    
  Si    2.4989774005909595    7.496932000480833    3.074108387867854e-08    
  Si    7.496932078521814    7.4969320014106104    3.04391890869544e-08    
  Si    2.498977399359289    2.4989773205535086    4.997954710981757    
  Si    7.496932077290144    2.4989773214832844    4.997954710679862    
  Si    2.4989774002890646    7.496931999609888    4.997954710110812    
  Si    7.49693207821992    7.496932000539665    4.997954709808917    
  Si    1.2494886722141263    3.7484660551745295    3.7484660608606513    
  Si    6.247443350144983    3.7484660561043057    3.7484660605587563    
  Si    1.249488673143902    8.746420734230908    3.748466059989707    
  Si    6.247443351074758    8.746420735160687    3.748466059687812    
  Si    1.2494886719122318    3.7484660543035853    8.74642074023038    
  Si    6.247443349843088    3.7484660552333615    8.746420739928485    
  Si    1.2494886728420076    8.746420733359964    8.746420739359435    
  Si    6.247443350772864    8.746420734289739    8.746420739057541    
  Si    4.997954633459604    2.512277916892974e-08    4.7926213744197285e-08    
  Si    9.995909312320236    4.997954705108936    4.6753374215921426e-08    
  Si    4.997954634389379    4.997954704179159    4.705526900764557e-08    
  Si    9.995909311088568    2.518161015927457e-08    4.997954726994047    
  Si    4.997954633157709    2.4251834432378018e-08    4.997954727295943    
  Si    9.995909312018341    4.997954704237991    4.997954726123103    
  Si    4.997954634087485    4.997954703308214    4.9979547264249975    
  Si    3.7484660113939197    1.249488638904004    3.748466055105135    
  Si    8.746420689324776    1.2494886398337797    3.7484660548032416    
  Si    3.748466012323695    6.247443317960384    3.748466054234191    
  Si    8.74642069025455    6.247443318890159    3.7484660539322965    
  Si    3.7484660110920243    1.2494886380330597    8.746420734474864    
  Si    8.74642068902288    1.2494886389628352    8.746420734172972    
  Si    3.7484660120218005    6.24744331708944    8.746420733603921    
  Si    8.746420689952656    6.247443318019215    8.746420733302026    
  Si    9.99590929435854    2.4989773129237514    2.498977308919428    
  Si    4.997954616427683    2.498977311993975    2.498977309221322    
  Si    9.995909295288314    7.496931991980131    2.4989773080484827    
  Si    4.9979546173574585    7.4969319910503565    2.4989773083503777    
  Si    9.995909294056643    2.4989773120528067    7.496931988289156    
  Si    4.997954616125788    2.4989773111230305    7.496931988591051    
  Si    9.99590929498642    7.496931991109186    7.496931987418211    
  Si    4.997954617055564    7.4969319901794105    7.496931987720107    
  Si    3.7484660034700976    3.748466059694613    1.2494886194971093    
  Si    8.746420681400952    3.748466060624388    1.249488619195215    
  Si    3.748466004399874    8.746420738750992    1.249488618626165    
  Si    8.746420682330731    8.746420739680767    1.24948861832427    
  Si    3.7484660031682027    3.7484660588236673    6.2474432988668385    
  Si    8.746420681099059    3.7484660597534427    6.247443298564944    
  Si    3.7484660040979785    8.746420737880047    6.247443297995893    
  Si    8.746420682028834    8.746420738809825    6.247443297694    
  BEGIN_BLOCK_DATAGRID_3D    
  3d_datagrid_density    
  BEGIN_DATAGRID_3D#0    
  43    43    43    
  0.0    0.0    0.0    
  9.995909355861713    1.8595514537931038e-09    -6.037895834482759e-10    
  1.8595514537931038e-09    9.99590935811276    -1.7418894731034485e-09    
  -6.037895834482759e-10    -1.7418894731034485e-09    9.995909358739459    
  0.05928294176113659    0.06142547170483988    0.06730767192768679    0.07541840186512146    0.08332295416632997    
  0.08808809738401928    0.08796084489273465    0.0831815574125408    0.07579890910694254    0.06887452227462754    
  0.06481252436755126    0.06519445869173027    0.07183712320506926    0.08770431341467459    0.11847917714564021    
  0.1730157793209262    0.2622420437417709    0.3784644949855748    0.42320061782170276    0.27104653145472096    
  0.09940750828191651    0.05232720866820268    0.09940751006253906    0.27104666464773414    0.4232007620189248    
  0.378464228710298    0.2622420140700371    0.17301580407726525    0.11847916577266164    0.08770435134372868    
  0.07183712245422028    0.06519453784039902    0.06481250278568378    0.0688745524621533    0.07579890337008212    
  0.0831815097310382    0.08796078530191799    0.08808809140124281    0.08332300430602917    0.07541846157482393    
  0.06730770079492882    0.06142546530967859    0.05928294176113659    0.06142546211099664    0.06373619330981913    
  0.07012056477193034    0.07896681414974419    0.08760515460196831    0.0928991882214103    0.09285635913850904    
  0.08778632795077175    0.0799577786171252    0.07251761748914949    0.06804974198377978    0.06836123499329519    
  0.07524774112503561    0.09137040666585373    0.12205089949432453    0.17569281201504483    0.26230216910284104    
  0.376576786993782    0.4384125918649939    0.3250124633718793    0.1566026189960318    0.09943533820935699    
  0.15660266594541608    0.3250125658558338    0.4384127467099527    0.37657671905897816    0.2623023102459934    
  0.1756928308928594    0.12205087828295315    0.09137038680562268    0.07524771789727036    0.0683612525739118    
  0.06804974878193279    0.07251763040558531    0.07995779529791662    0.08778629941438411    0.09285629429189914    
  0.09289921846226289    0.08760516721394977    0.07896678533416827    0.07012056295495737    0.0637361695505249    
  0.06142546211099664    0.06730766274465388    0.07012058281118148    0.07795287584102344    0.08891234335276832    
  0.09981635157252683    0.1069017101160012    0.10757719584729576    0.10202140875797171    0.0930295454405687    
  0.08422699467091548    0.07875303368171087    0.07885614753350756    0.0862559808443455    0.10289620969497079    
  0.1329978931756467    0.18323437088018368    0.26069916652253466    0.36358619328878455    0.44923300622039397    
  0.4303651210073956    0.3251492183741064    0.27123537099381106    0.32514919892150684    0.4303653002475064    
  0.4492327956656329    0.3635860703570238    0.2606991607038696    0.18323437280968607    0.1329978884823259    
  0.10289618614294192    0.08625598299329941    0.07885617875456671    0.07875300049394358    0.08422702905587962    
  0.09302958272207014    0.10202139433756618    0.10757717943419355    0.10690170019571507    0.09981639282293757    
  0.0889123523405969    0.07795280258228848    0.0701205705687924    0.06730766274465388    0.07541841576560783    
  0.07896681346139633    0.08891243329613623    0.10320810238496546    0.1181167678893792    0.12885306933272314    
  0.1319359698675163    0.12706582825366164    0.11731379735598389    0.10724751688929846    0.10080870659494512    
  0.10059567956547784    0.10813255652029106    0.12456391920162686    0.15221203483683854    0.1948093016758596    
  0.2555926381479981    0.3329143736030212    0.4094122135457694    0.4490405667303365    0.43840423654924493    
  0.42332467072694424    0.4384041174376319    0.44904048066297    0.4094121887649207    0.33291439151771623    
  0.25559270747439206    0.19480927675818444    0.15221197329762506    0.12456386710544873    0.10813260566232547    
  0.1005956974822069    0.10080876090736213    0.10724751647082079    0.11731383356570509    0.12706579317666117    
  0.13193599583779567    0.128853074712199    0.11811679524161586    0.10320806556777755    0.0889123417226829    
  0.07896683760097556    0.07541841576560783    0.08332297054452066    0.08760513419412275    0.09981639669553051    
  0.11811677197576204    0.13864754822229702    0.15575129866999562    0.16500217243251014    0.16479893410700958    
  0.15745176699308028    0.14797782248756233    0.14131742800013733    0.1407432901124889    0.14745842790893438    
  0.16126669851582884    0.18200049448106193    0.21039452263193173    0.24731309692299416    0.29044030907755874    
  0.33224057713412125    0.3627618473345009    0.3759590800600464    0.37802014881762175    0.3759589272119632    
  0.36276176437907365    0.3322406786256632    0.2904402847187485    0.24731310293161482    0.2103946226337275    
  0.18200040549942684    0.16126664155117776    0.14745843311521184    0.14074331108043198    0.1413173841122141    
  0.1479778660968898    0.15745175398682681    0.16479893203816678    0.16500219627485155    0.1557513933344839    
  0.13864758908911876    0.11811675643773495    0.09981632057222137    0.08760514299361642    0.08332297054452066    
  0.08808808984556252    0.09289915816915068    0.10690170773960597    0.12885303915012283    0.15575126814990092    
  0.18265937003397617    0.20431767795154177    0.21650236337570491    0.2188934875346228    0.21528193805174037    
  0.21089272372919796    0.21010569392361578    0.2135756426976487    0.21923877646995157    0.22511604017241982    
  0.2308543308090691    0.23796321367957302    0.2465948007051758    0.2544075254406445    0.25951909750291613    
  0.26138339979753017    0.26150586358654004    0.2613834589029646    0.25951908156311554    0.25440762144949086    
  0.2465946526581317    0.23796327258388297    0.23085430397984089    0.22511598990470325    0.21923870619384137    
  0.21357561221575333    0.2101057219890425    0.21089272276230572    0.21528186314058292    0.21889359551024487    
  0.21650249370421573    0.20431755547212999    0.18265946687827345    0.15575136431540304    0.12885302279553057    
  0.10690168587349141    0.09289919585897292    0.08808808984556252    0.08796079910216371    0.09285624174368742    
  0.10757723528940855    0.13193599326658828    0.16500216139640492    0.20431757864191935    0.24508024428998895    
  0.2801506098183077    0.3037614078291513    0.31458764483741325    0.3164392652494613    0.31585710952918766    
  0.3128555938797655    0.3020273361139093    0.28188345156711436    0.2559722598978154    0.23036900398805615    
  0.20938342477488506    0.1936365715566692    0.18225899886169236    0.17504626529434583    0.17254907305673106    
  0.17504627448929558    0.1822589546723942    0.1936366053631304    0.20938336432819712    0.23036901443744046    
  0.255972226775178    0.2818834876877973    0.3020272093367513    0.3128554936124293    0.31585710736821676    
  0.31643924261721784    0.31458767026703793    0.30376143778227843    0.28015078260221793    0.2450802524362615    
  0.2043175983164188    0.16500219701876015    0.1319359166544747    0.10757714226065214    0.09285632234701585    
  0.08796079910216371    0.08318152413031987    0.08778634542572879    0.10202139581518545    0.12706578908508123    
  0.16479891102929206    0.21650241662445996    0.2801507030060215    0.3469222553103883    0.3992687311151002    
  0.42057060586855544    0.41837069910308133    0.41859676153246983    0.42072633873869214    0.39833957639295076    
  0.34564759671927325    0.28189308594180185    0.2247594401947776    0.18139856708782023    0.15171259616522548    
  0.1328059419066814    0.12219812390490951    0.11877920246569222    0.12219812645644262    0.13280595833679232    
  0.15171265532415318    0.18139840004585725    0.22475950499723846    0.2818930560601156    0.3456476816534294    
  0.39833941670454925    0.42072631193675014    0.41859682932354    0.4183706293017099    0.420570715235959    
  0.39926888050466525    0.3469223049028129    0.2801507149548544    0.21650240992496583    0.16479897294690785    
  0.12706579841170412    0.10202136552745522    0.08778634093933453    0.08318152413031987    0.07579888193233235    
  0.07995778695639909    0.09302957438567934    0.11731376191998084    0.15745170834421096    0.21889351244579033    
  0.30376148613450504    0.3992688332848594    0.4576911421545697    0.43229525514778516    0.37559297079712745    
  0.3766540121215771    0.4350497034143789    0.4599608379190523    0.3993239474138615    0.3030196264250904    
  0.21984608936394712    0.16168086728646977    0.12506691655741417    0.10364470760539064    0.0923710790189487    
  0.08880797163984605    0.09237118289235154    0.10364473917924759    0.12506696543128482    0.16168068438425034    
  0.21984603925403537    0.3030195682263076    0.3993238664321902    0.4599609537030257    0.435049704186195    
  0.3766540347702139    0.37559299967341503    0.4322952269154841    0.45769134884352536    0.3992688278119448    
  0.303761427361662    0.2188935135143148    0.15745181555085327    0.11731381305881498    0.09302951500701902    
  0.0799577694173153    0.07579888193233235    0.06887453322214679    0.07251761720869385    0.08422709644384077    
  0.10724748397097547    0.14797776173239727    0.2152819065494609    0.3145876316206166    0.42057062770653475    
  0.43229520739910904    0.3000861676274339    0.18442219472492963    0.18530396804011703    0.3032738372820605    
  0.43700805349107485    0.423769446179715    0.31542066227971627    0.21531360089373086    0.14875976408022212    
  0.10936357612113817    0.08761984468530046    0.07677460993687744    0.07342442692490045    0.07677464152675649    
  0.08761982622805274    0.10936351913893869    0.14875961714033956    0.2153136312954389    0.31542071187963366    
  0.4237693294620663    0.4370080787711577    0.3032739026578529    0.18530401804851776    0.18442216784692247    
  0.30008614218529855    0.4322952554521154    0.4205706240483927    0.31458779845509266    0.21528197891515558    
  0.14797784959879956    0.10724752466805162    0.08422702371901099    0.07251760053044368    0.06887453322214679    
  0.06481251252159552    0.06804972570928117    0.07875301304030323    0.10080868764606195    0.14131735570819434    
  0.21089269408940348    0.316439237933279    0.4183705025108437    0.37559310027942827    0.18442215250227012    
  0.07407879339421054    0.07445748708056986    0.18647745117894046    0.38030306403238057    0.42315209030093914    
  0.3191608886432843    0.2121755073422479    0.14224381256050125    0.10200336135105388    0.08040242980522254    
  0.07005707961006333    0.06694726165661866    0.07005705583483636    0.08040242450518116    0.10200333537051058    
  0.142243727242283    0.2121755156676464    0.319160823580706    0.4231520435164429    0.3803030965451619    
  0.18647749201252767    0.07445749770816489    0.07407874126185877    0.18442218043746736    0.37559312185625127    
  0.4183706563647139    0.3164393812511118    0.210892811301164    0.14131739904833707    0.10080867544733343    
  0.07875296468688672    0.06804976395658233    0.06481251252159552    0.06519446808256335    0.06836121394285213    
  0.0788561595285442    0.10059566466847013    0.14074332197728098    0.21010568520021589    0.31585705077608656    
  0.41859675247470374    0.3766541759622487    0.18530402658237835    0.07445750412978389    0.07463981317771867    
  0.18646964853669798    0.3798490781454271    0.4224168330647104    0.3186879249805838    0.2120182013013282    
  0.14225073257191445    0.10207224989603336    0.08045109205300348    0.07006475089927527    0.06694168747097952    
  0.07006473412159483    0.08045110167956125    0.10207223072720462    0.14225062907341685    0.21201825092060922    
  0.31868793987373206    0.4224166567083174    0.37984895623728915    0.18646972067772827    0.07463987409345688    
  0.07445749730404103    0.18530397987821562    0.37665409151724333    0.41859681138328014    0.3158571094516964    
  0.21010577741929704    0.14074327520993934    0.10059561710958567    0.0788561025489336    0.06836121078831732    
  0.06519446808256335    0.07183711707859382    0.07524768734883605    0.08625599885684004    0.10813252498727675    
  0.1474583117146785    0.21357555139205564    0.31285553257807597    0.42072618099713605    0.43504966502965897    
  0.303273868616143    0.18647750284628786    0.18646960779257565    0.30338678482084147    0.4356490624001651    
  0.4218477424363405    0.3141680151000218    0.21489930474765903    0.14881822315143267    0.109575758064195    
  0.08776099786273436    0.07679224733068772    0.07339283203837615    0.07679231143481056    0.08776102535504673    
  0.10957584327729393    0.14881814503366259    0.21489940692075107    0.314167901281966    0.4218475558914973    
  0.4356490284080722    0.3033868216709809    0.1864696544925209    0.18647741645797256    0.30327381738776354    
  0.4350499201617591    0.42072639781732635    0.3128554620188354    0.2135756641566759    0.14745846282159406    
  0.10813250714938027    0.08625598425642073    0.07524769890174295    0.07183711707859382    0.08770433099667742    
  0.09137041343450589    0.10289624812224572    0.12456388357028991    0.1612666680882306    0.21923864728621395    
  0.3020271475145719    0.3983394152043019    0.4599607448176552    0.4370081244651948    0.3803030514598877    
  0.3798489472466595    0.43564917230298567    0.45815292325416224    0.39693132224588135    0.30141073697509324    
  0.21934193201355515    0.1618760068651185    0.12543382148246693    0.10387066152788271    0.09237509924624843    
  0.08871468246485492    0.09237510777778057    0.10387064330213201    0.12543390813812316    0.1618759509208036    
  0.21934192562799784    0.30141065338184486    0.39693135077419545    0.4581526048559888    0.4356490193019903    
  0.3798490935339501    0.38030306540244196    0.43700819986971723    0.45996081753513757    0.39833951786453525    
  0.3020272712490482    0.21923876775031084    0.1612666832671978    0.12456382543733398    0.10289619899553368    
  0.09137044573735839    0.08770433099667742    0.11847912477726899    0.1220509242206184    0.13299787586203504    
  0.1522119939451002    0.18200041245905807    0.22511597166192734    0.2818835118630206    0.3456476974684335    
  0.3993239138602517    0.4237693875263357    0.423152186978335    0.4224167185066752    0.42184767603065215    
  0.396931409861482    0.34350320162072423    0.2804071182264452    0.22438294262179662    0.18179113861173846    
  0.1522508966402605    0.13310397895174078    0.12215234043198289    0.11857003209200687    0.12215231305633446    
  0.13310398234133816    0.15225090282642104    0.1817909756241755    0.22438298722443753    0.28040714806202316    
  0.3435032951241904    0.39693124600233876    0.4218476533025909    0.4224168246428165    0.42315218955191863    
  0.42376942631480125    0.3993240441036324    0.3456476653941874    0.28188340299196873    0.2251160258893444    
  0.18200050547127888    0.15221202115643587    0.13299789932531803    0.12205097682393783    0.11847912477726899    
  0.1730157114769931    0.17569279875667146    0.1832343206807616    0.19480926293681378    0.2103945488972972    
  0.23085429820232423    0.2559722341212436    0.28189308117815504    0.30301963041144164    0.31542063722885244    
  0.31916087785874364    0.3186879372065893    0.31416797372477034    0.3014106451631328    0.28040715315059195    
  0.2549218172136156    0.23022699815694098    0.20996885642538854    0.19435415409020826    0.18261958434940662    
  0.17491263215399533    0.1721693319903702    0.17491265518046864    0.18261962538237111    0.19435421803050543    
  0.20996873007897723    0.2302270040356402    0.2549217992449175    0.28040715924275317    0.3014105936789869    
  0.3141680013875532    0.31868789455934954    0.3191608671690229    0.31542073951975064    0.3030196691339044    
  0.2818931558524214    0.2559722163674466    0.23085433651021833    0.21039455722441844    0.19480924472768574    
  0.1832343280444625    0.17569281104809092    0.1730157114769931    0.26224185733232763    0.2623021783131394    
  0.2606991644435759    0.25559268554419007    0.24731299329009251    0.23796319133149738    0.23036897923759134    
  0.22475948585269703    0.21984604825058585    0.21531348428142144    0.21217550758140416    0.21201824726246363    
  0.21489938516852905    0.21934194945455976    0.22438302141759245    0.23022688961496565    0.23797869580225078    
  0.24727873847407358    0.25526812578906477    0.25994199695421566    0.2611685827915785    0.26095867717207694    
  0.2611685942790078    0.2599420304078478    0.255268112853333    0.24727866957856182    0.2379786706651331    
  0.23022694698754287    0.2243829959358803    0.21934189208926202    0.2148993377369131    0.21201828961397842    
  0.21217552270015372    0.21531362382028701    0.21984613680195259    0.22475949669034828    0.2303690119002708    
  0.2379632595462305    0.24731306554859964    0.25559273492178713    0.2606991060582663    0.26230215657330413    
  0.26224185733232763    0.3784643875747251    0.3765766542314247    0.3635861140669908    0.33291431219377277    
  0.29044019168216545    0.24659469867673114    0.20938340283346582    0.1813984682376336    0.1616807600136081    
  0.14875962493900385    0.14224381827694144    0.14225068046000333    0.14881823730774418    0.16187601985865718    
  0.18179098733466828    0.20996881730479738    0.24727862551222352    0.2910220967507024    0.3331348983735454    
  0.3632745082740349    0.3757841402065871    0.3774820993553286    0.37578397460345386    0.3632744540790497    
  0.3331348670355373    0.2910220271896501    0.2472786564484459    0.20996882150401674    0.18179096060783603    
  0.16187601442589547    0.1488182426020729    0.14225071874868023    0.14224379819289085    0.14875968125021408    
  0.1616807709878791    0.1813985162939889    0.20938339107640788    0.24659480848609316    0.2904402908841102    
  0.33291430126703075    0.3635860325997707    0.3765767368023643    0.3784643875747251    0.4232005884721551    
  0.4384124343476138    0.4492329008380676    0.40941216650929985    0.3322404992603206    0.2544075466709764    
  0.1936365947146148    0.15171264701216475    0.12506694563403337    0.10936354313134505    0.10200337764203628    
  0.10207220464631168    0.10957580411620767    0.12543384966099808    0.15225095486415433    0.1943540852924466    
  0.25526817842692695    0.3331350073807585    0.4101611599542204    0.4496499188465444    0.438484950011204    
  0.4231328374135796    0.43848461856979065    0.4496499521563244    0.4101610085422495    0.33313492616404294    
  0.25526810024727414    0.19435414684077384    0.15225090838708158    0.12543381393952444    0.10957584697174055    
  0.10207224829588153    0.10200332881202658    0.10936354078057464    0.12506693221213896    0.1517126101246044    
  0.19363662624627975    0.25440761724640554    0.33224053760543637    0.40941213628359746    0.4492327117071153    
  0.4384126056112386    0.4232005884721551    0.27104654561657376    0.32501250035827145    0.43036529264630313    
  0.44904030594171296    0.36276179934209085    0.25951892782601255    0.18225904592774891    0.1328060314112671    
  0.10364472554008664    0.08761982761636271    0.08040244207921537    0.08045107536418172    0.08776102759974434    
  0.10387064483095258    0.13310398809519355    0.18261959896809105    0.25994206345940385    0.363274587220795    
  0.44964999294136615    0.4309568221306968    0.32544611646481264    0.2713955873936525    0.32544615985555064    
  0.43095683134392093    0.4496498820127987    0.3632743606729709    0.2599422273039883    0.18261962265415074    
  0.13310397191844894    0.10387058141645142    0.08776104889451684    0.08045115057674716    0.08040244443645493    
  0.08761988884349127    0.10364475774480764    0.13280605969250991    0.18225900554394225    0.25951912486736045    
  0.36276189870318254    0.44904036954338394    0.4303650943285072    0.32501247975016667    0.27104654561657376    
  0.09940748865971162    0.15660270412181332    0.3251493003138477    0.43840427865986    0.375958986636367    
  0.2613834038498608    0.17504629971933192    0.12219811367222967    0.09237113884619119    0.07677463324091771    
  0.07005706430045776    0.0700647716615131    0.07679229733708794    0.09237510044728169    0.12215234444681503    
  0.1749127372837731    0.2611686553550147    0.37578420489428715    0.4384847893996515    0.32544604121917475    
  0.15684709693412408    0.09959230715107484    0.15684711270559085    0.32544613466653033    0.43848495422633577    
  0.37578392715865483    0.2611686328315342    0.1749126896091157    0.12215234865965913    0.092375072791914    
  0.07679227575175791    0.07006475976099606    0.07005706899510923    0.07677465662248419    0.09237111728812958    
  0.12219805038702083    0.175046315209498    0.2613834850106029    0.3759590400112352    0.4384042465765422    
  0.32514909354916866    0.15660268896225935    0.09940748865971162    0.05232720189508164    0.0994353673365625    
  0.27123542188687255    0.4233247370612396    0.3780201656055367    0.26150585222292655    0.1725491318093098    
  0.1187792884548447    0.08880795066004488    0.07342440653325547    0.06694725247448782    0.06694170075942028    
  0.07339282727471229    0.08871467749015592    0.11857006846516492    0.1721693658457119    0.2609587128928234    
  0.377482291018659    0.42313278032741247    0.2713955670250546    0.09959232958197665    0.0524377583623189    
  0.09959232219849352    0.27139566856153224    0.4231328368581204    0.3774819997416358    0.26095871872580456    
  0.1721693809299242    0.11857005224928276    0.08871465526770175    0.07339280403968364    0.06694174521090433    
  0.06694726985691753    0.07342444095023307    0.08880796955339701    0.11877924190868655    0.17254909588845463    
  0.26150584725006304    0.3780202314435717    0.42332489695150066    0.27123532483993235    0.09943532668836813    
  0.05232720189508164    0.0994074886826133    0.1566027336418448    0.3251492019067574    0.4384042886267197    
  0.3759589266067885    0.26138335292507753    0.17504633671320777    0.12219813410061607    0.09237111759511299    
  0.07677463292472116    0.07005706164542441    0.07006471758087726    0.07679230408569032    0.09237511355956197    
  0.12215230023508684    0.1749126846021124    0.26116862504405286    0.37578422237036546    0.43848469585642164    
  0.3254460086915441    0.15684708335362701    0.0995923172757784    0.15684710712301855    0.32544608892777616    
  0.4384849154598205    0.3757840667002656    0.2611686285663781    0.17491274381313526    0.1221523001192592    
  0.09237509647529003    0.0767922669263656    0.0700647187488878    0.07005706101133147    0.07677463696926598    
  0.09237113975109226    0.12219813388254047    0.17504629627723067    0.26138348986852245    0.37595909947728956    
  0.4384041569241192    0.3251491079113261    0.15660263428246848    0.0994074886826133    0.2710465269075133    
  0.3250124334097744    0.4303652534322914    0.4490404085925358    0.36276173434515946    0.25951895503792743    
  0.18225897387588486    0.1328060555721335    0.10364471948167421    0.08761986094885021    0.08040243137541628    
  0.08045111753097674    0.08776105573175896    0.10387067051144602    0.1331039850458987    0.18261963244538484    
  0.2599421345755655    0.3632745651269018    0.4496499728210563    0.4309568392594965    0.3254460152163176    
  0.27139554542869415    0.3254460987222242    0.43095700474485876    0.4496498706802084    0.36327444294954225    
  0.2599420885491633    0.18261967046340682    0.13310402420474923    0.10387062331436073    0.08776113488986868    
  0.08045110409483615    0.08040245287209412    0.08761986968999212    0.10364472629910906    0.13280603620993509    
  0.18225891473936912    0.2595191281385416    0.362761927573852    0.44904040579093696    0.4303652117314525    
  0.32501243430361526    0.2710465269075133    0.42320061543879434    0.4384126295202515    0.44923290630927865    
  0.4094121382449725    0.33224057041861643    0.25440755775579005    0.1936366173760171    0.15171262401615662    
  0.12506693173363292    0.10936354507427457    0.10200335836120997    0.10207226480204742    0.10957579147693498    
  0.12543385322522524    0.1522509499565552    0.19435410824439386    0.25526808173059196    0.333134930309706    
  0.4101610907164943    0.44964988053629834    0.438484819896394    0.4231328177143723    0.438484749120255    
  0.44965003437432693    0.4101610171076719    0.33313500587796996    0.2552681683077466    0.19435417213028156    