#     DFTpy    
  CRYSTAL 
    
  PRIMVEC    
  10.443487386721191    1.9428149517241382e-09    -6.308249379310344e-10    
  1.9428149517241382e-09    10.443487389073034    -1.819884524137931e-09    
  -6.308249379310344e-10    -1.819884524137931e-09    10.44348738972779    
  PRIMCOORD    
  63    1    
  Si    2.6108718958688093    2.2876996496071204e-08    2.610871793801014    
  Si    7.832615589229405    2.384840397193327e-08    2.610871793485601    
  Si    2.6108718968402167    5.2217437174135135    2.610871792891072    
  Si    7.832615590200812    5.22174371838492    2.610871792575659    
  Si    2.6108718955533976    2.1967054234002237e-08    7.832615488664908    
  Si    7.832615588913993    2.2938461709864304e-08    7.832615488349496    
  Si    2.610871896524805    5.221743716503571    7.832615487754968    
  Si    7.8326155898854    5.221743717474978    7.832615487439554    
  Si    1.3054359226952454    1.3054358559641699    1.3054358731170352    
  Si    6.527179616055841    1.305435856935577    1.305435872801623    
  Si    1.3054359236666528    6.527179550500686    1.3054358722070931    
  Si    6.527179617027249    6.527179551472093    1.3054358718916808    
  Si    1.3054359223798333    1.3054358550542275    6.527179567980931    
  Si    6.527179615740429    1.3054358560256347    6.527179567665519    
  Si    1.3054359233512405    6.527179549590744    6.527179567070989    
  Si    6.5271796167118366    6.52717955056215    6.527179566755577    
  Si    2.610871910093774    2.610871828353907    3.302749258307639e-08    
  Si    7.832615603454369    2.6108718293253146    3.271208011411088e-08    
  Si    2.610871911065181    7.832615522890423    3.211755032100743e-08    
  Si    7.832615604425774    7.832615523861833    3.1802137852041906e-08    
  Si    2.6108719097783615    2.610871827443965    5.221743727891388    
  Si    7.832615603138954    2.610871828415372    5.221743727575974    
  Si    2.610871910749769    7.832615521980481    5.221743726981446    
  Si    7.832615604110362    7.8326155229518895    5.221743726666032    
  Si    1.3054359261938633    3.9163078188390608    3.916307824779784    
  Si    6.527179619554459    3.9163078198104686    3.916307824464372    
  Si    1.3054359271652707    9.138051513375578    3.916307823869842    
  Si    6.5271796205258665    9.138051514346985    3.91630782355443    
  Si    1.305435925878451    3.916307817929119    9.138051519643678    
  Si    6.527179619239047    3.916307818900527    9.138051519328267    
  Si    1.3054359268498583    9.138051512465635    9.138051518733736    
  Si    6.527179620210453    9.138051513437041    9.138051518418324    
  Si    5.221743646898093    2.624767972873257e-08    5.007216361334044e-08    
  Si    10.443487341230098    5.2217437217556055    4.884680888230596e-08    
  Si    5.221743647869499    5.221743720784197    4.916222135127148e-08    
  Si    10.443487339943276    2.6309144942525675e-08    5.221743744620646    
  Si    5.22174364658268    2.5337737466663605e-08    5.221743744936059    
  Si    10.443487340914684    5.221743720845663    5.221743743710705    
  Si    5.221743647554088    5.2217437198742545    5.221743744026116    
  Si    3.9163077730981244    1.3054358913922435    3.9163078187665588    
  Si    9.138051466458718    1.3054358923636509    3.9163078184511475    
  Si    3.916307774069532    6.52717958592876    3.916307817856617    
  Si    9.138051467430124    6.527179586900168    3.9163078175412047    
  Si    3.9163077727827114    1.3054358904823014    9.138051513630455    
  Si    9.138051466143306    1.3054358914537088    9.138051513315043    
  Si    3.9163077737541188    6.527179585018818    9.138051512720512    
  Si    9.138051467114712    6.5271795859902255    9.1380515124051    
  Si    10.443487322464144    2.6108718194725764    2.610871815288954    
  Si    5.221743629103549    2.6108718185011686    2.6108718156043658    
  Si    10.44348732343555    7.832615514009093    2.6108718143790117    
  Si    5.221743630074956    7.832615513037686    2.610871814694424    
  Si    10.44348732214873    2.610871818562634    7.832615510152849    
  Si    5.2217436287881345    2.610871817591226    7.83261551046826    
  Si    10.443487323120138    7.83261551309915    7.832615509242906    
  Si    5.221743629759543    7.8326155121277425    7.832615509558319    
  Si    3.9163077648195044    3.916307823561536    1.305435871116383    
  Si    9.1380514581801    3.9163078245329426    1.3054358708009706    
  Si    3.916307765790912    9.13805151809805    1.3054358702064408    
  Si    9.138051459151507    9.138051519069458    1.3054358698910282    
  Si    3.916307764504092    3.9163078226515933    6.527179565980278    
  Si    9.138051457864686    3.916307823623    6.527179565664866    
  Si    3.9163077654754996    9.13805151718811    6.527179565070335    
  Si    9.138051458836093    9.138051518159518    6.527179564754924    
  BEGIN_BLOCK_DATAGRID_3D    
  3d_datagrid_density    
  BEGIN_DATAGRID_3D#0    
  45    45    45    
  0.0    0.0    0.0    
  10.443487386721191    1.9428149517241382e-09    -6.308249379310344e-10    
  1.9428149517241382e-09    10.443487389073034    -1.819884524137931e-09    
  -6.308249379310344e-10    -1.819884524137931e-09    10.44348738972779    
  0.04722228219985368    0.04870877482073322    0.052953440168907906    0.058990519195354606    0.06508190596154938    
  0.06939093599084153    0.0703638653689331    0.06775232437698366    0.06298107572575197    0.05778135491872456    
  0.053843453445243564    0.0525178258760407    0.05479288305221258    0.062137985393261035    0.07706467299891016    
  0.1049776577973992    0.15532363520820994    0.23966823991115419    0.35377228445136877    0.40604834943292817    
  0.26700397308500107    0.10099444751127544    0.05425576040352268    0.10099450116166582    0.2670040361367658    
  0.40604825894200564    0.35377224346771047    0.23966824816858998    0.15532365144944701    0.10497765610881253    
  0.07706468644804287    0.06213801879186853    0.05479287016006844    0.052517868769225075    0.05384346591301048    
  0.057781356063815764    0.06298107883627575    0.06775236758202689    0.07036381682919449    0.06939094415100225    
  0.0650818934566439    0.05899050225305073    0.05295345055906358    0.04870875868306782    0.04722228219985368    
  0.04870877372602582    0.05036314350824348    0.05503125612037451    0.061667688363717145    0.06843021656895605    
  0.07319821401388225    0.07430066660067253    0.0714780128025818    0.06617100996744017    0.060412305971974646    
  0.05608866152100446    0.0546085250595355    0.056942251401207136    0.06453170370121576    0.07977293019695232    
  0.10773470505007944    0.15704256610179182    0.23848363519316493    0.3499854427847834    0.4177360487541243    
  0.31743814853489977    0.1569254909188424    0.1010869952993819    0.15692556004195296    0.31743817744713543    
  0.4177360643754231    0.3499852875561072    0.23848361151252467    0.1570425931574689    0.10773464202577591    
  0.07977288023513338    0.06453172049574553    0.056942231646973734    0.054608521786224495    0.05608868718148024    
  0.060412309710236145    0.06617096655484081    0.07147802606525208    0.07430065508757798    0.07319815508560179    
  0.06843019791081448    0.0616676700982445    0.055031300379846285    0.050363143569241944    0.04870877372602582    
  0.0529534133940264    0.0550312611314838    0.06088825183940764    0.06930556421060914    0.07802686464514427    
  0.08425054853938545    0.08594092447522785    0.08270521217754138    0.076133997873856    0.06896908561904963    
  0.06362522085263726    0.061689865881781644    0.0642057649909284    0.07238648788122422    0.08824668152854785    
  0.11579269375142383    0.16154894641438353    0.23364818869980403    0.33291560200358344    0.42100140534660374    
  0.4124435034171829    0.31775401049458    0.26747780611502464    0.3177540136629263    0.41244339918181633    
  0.4210013945970526    0.332915476376997    0.23364821988225282    0.1615489097045718    0.11579262833111044    
  0.08824667894108686    0.07238649415092693    0.06420569370483192    0.06168987948149867    0.06362523258545026    
  0.06896906803839774    0.07613400461753676    0.08270521009917611    0.08594089358393937    0.0842505557880289    
  0.07802688749192543    0.0693055790945416    0.06088825690350182    0.05503125961548665    0.0529534133940264    
  0.05899047091931621    0.06166768786433905    0.0693055230388529    0.08049877665193242    0.09245486439964518    
  0.10150069307984982    0.10487522799873489    0.10175850942426475    0.09407015620714806    0.08537428716853313    
  0.0786887452158047    0.07611591005275702    0.07885627200980554    0.08766558164885738    0.10365322924244759    
  0.12921648448113682    0.16813290416807514    0.22449109663629477    0.29860296605909675    0.3757516830943451    
  0.42103246434822483    0.4181945384888341    0.40677354016419487    0.41819462102090743    0.421032367634679    
  0.37575166685803585    0.2986030121455596    0.22449113059084763    0.1681328578324469    0.12921648754073342    
  0.10365335078967376    0.08766558702902787    0.07885629564631377    0.07611590780885978    0.07868874694338322    
  0.08537433252058592    0.09407013389774505    0.10175856454814106    0.10487524174041665    0.1015006658897375    
  0.09245486462306168    0.08049877922642538    0.0693055628106643    0.06166768415521834    0.05899047091931621    
  0.06508185887811198    0.06843020392724966    0.07802688252365389    0.09245486250794133    0.10872179083346718    
  0.12245077636292281    0.12980624074740768    0.12920038979541199    0.12252270905588752    0.11373718836691542    
  0.10641882347720673    0.10338269339946037    0.10612182977114844    0.11463466508703316    0.12876279045201547    
  0.14899964798259466    0.17656334454278    0.21226668259298387    0.2547439539432738    0.2982188198842636    
  0.332540851909317    0.3499906563954144    0.3540190688524657    0.3499907006757553    0.3325408762854564    
  0.2982187796655879    0.2547439021914236    0.21226671645422282    0.1765632989060339    0.14899965863173775    
  0.12876280425021436    0.11463462809095784    0.10612178090288296    0.10338275251113974    0.10641882806727566    
  0.11373720241204342    0.12252266194517163    0.1292003818977592    0.1298062232584895    0.12245077494829627    
  0.10872173913760638    0.09245484597671681    0.07802689771169484    0.068430163838015    0.06508185887811198    
  0.06939093389716035    0.07319821562440326    0.08425055282908606    0.10150068499149313    0.12245074784891444    
  0.14268723113473464    0.15782420870542738    0.1651507385785848    0.16497106356501517    0.1605273082722678    
  0.15550060819216646    0.15309423725884116    0.15486957058818637    0.16013952731293524    0.16764906528951184    
  0.17657065325664506    0.1867799644890422    0.1987386406232334    0.21170375400708855    0.2236342278113592    
  0.23286028182960905    0.23802006384613544    0.23937740911648758    0.23802007987599869    0.23286025236365632    
  0.22363426959988295    0.21170376048910133    0.1987385863593375    0.18677995977531253    0.17657063427434935    
  0.16764911598224577    0.16013948189808674    0.1548695576437082    0.15309419183466313    0.15550062405782292    
  0.1605273020687702    0.16497104081724093    0.16515084368505697    0.1578241280555965    0.14268724274926495    
  0.1224508092924693    0.10150068070319869    0.08425059278404512    0.07319816841348681    0.06939093389716035    
  0.07036381755368827    0.07430063952274843    0.085940908594324    0.10487525305766736    0.12980619170234217    
  0.1578241231726506    0.18533069628946658    0.20849868996402415    0.22454089957632825    0.23338302129810115    
  0.23657312295774063    0.23686064614597438    0.2360672777110734    0.23249939905223507    0.22448199402728816    
  0.21274693258519498    0.19914957537903127    0.1863043850672617    0.17570245146691285    0.16717259378459243    
  0.16077588383624777    0.1565716560776143    0.1549878089604476    0.1565716765022599    0.16077585637597014    
  0.1671725632630629    0.17570244805629964    0.18630435113184718    0.19914955809232676    0.21274690626015091    
  0.22448208023635524    0.2324993253477407    0.23606719268600768    0.23686064237698493    0.23657310940765747    
  0.23338316340477844    0.22454090066996557    0.20849879476210778    0.18533070784404612    0.15782414639881306    
  0.12980624454958672    0.10487524979232993    0.08594092536273824    0.07430063944160627    0.07036381755368827    
  0.06775233438952188    0.07147801031468709    0.08270520728574367    0.10175855023560378    0.12920033913127413    
  0.16515076679040214    0.20849873968343968    0.25586928013195376    0.30028164025974463    0.3325760832209358    
  0.347523641943541    0.35068634875193627    0.3479740614710057    0.33268564263670986    0.2995362964445465    
  0.2559678518047834    0.21258084652678128    0.1760352506361402    0.14827988801411718    0.12856783965430105    
  0.11541410974353082    0.10763683887715948    0.10498775041570417    0.10763686480214013    0.1154140970719541    
  0.12856788519769374    0.14827981295964313    0.1760352057836058    0.2125806807211557    0.25596779277060056    
  0.29953628452380116    0.3326857013205123    0.3479739485818417    0.3506862413184883    0.34752365932233087    
  0.3325761420488249    0.3002815787185184    0.2558694228236369    0.20849871963850247    0.16515079594930218    
  0.12920034256052665    0.1017585255970043    0.08270523155300027    0.07147800211529937    0.06775233438952188    
  0.062981025041557    0.0661709727159033    0.07613399821681523    0.09407014046893186    0.12252270632826268    
  0.164971001990216    0.22454083232902314    0.3002815681292072    0.37658114534329656    0.419500364278954    
  0.41482242372317535    0.40345582922821704    0.41678506106326    0.42188656886937165    0.37758017963980534    
  0.2999419336020966    0.22465362344342463    0.16754993722024938    0.12861694797633588    0.10366697368295366    
  0.08853521240339388    0.08028720154836788    0.07766378921701596    0.08028720867255681    0.08853517523760192    
  0.10366699149698742    0.12861694046694094    0.16754995729347852    0.2246535272328434    0.29994183315310086    
  0.3775804840729227    0.42188659984318005    0.4167848961636837    0.40345587301632163    0.41482253537442026    
  0.41950031771442514    0.3765811153683111    0.30028161475309606    0.22454084111017766    0.16497102613997344    
  0.12252266463842446    0.09407008957017943    0.07613400013010982    0.06617098424692537    0.062981025041557    
  0.05778132337360437    0.06041231997331027    0.06896904537997067    0.08537430395468594    0.11373716312574882    
  0.16052720603547602    0.23338302860085303    0.33257602870568415    0.4195003063470093    0.4097623418377008    
  0.3151489158858834    0.26578041860216933    0.3174216951282122    0.41381949596174805    0.4231517216721512    
  0.33417780196236696    0.23359499242545906    0.16090178758056012    0.11528686776678765    0.08841621773546784    
  0.07332608689101222    0.0656232240261325    0.06328604241205235    0.06562318843767892    0.07332605777012438    
  0.08841615275389249    0.11528684810874115    0.16090182733391606    0.2335949053444216    0.33417770652861317    
  0.42315190476438824    0.413819549857443    0.3174218254721469    0.2657803350407244    0.31514899312908207    
  0.4097623181436574    0.4195002713306907    0.3325760589856764    0.23338310861123196    0.16052728082715426    
  0.11373720232820013    0.08537435722808821    0.06896905968407635    0.06041230088852789    0.05778132337360437    
  0.05384344824253198    0.05608868498808009    0.06362523150873889    0.0786887198542716    0.10641884809256268    
  0.1555005592179523    0.2365731522975672    0.34752366057697487    0.414822509998216    0.31514895378451374    
  0.15587364356515507    0.10070187160634732    0.15711446740455812    0.31880751273707814    0.4197472513609742    
  0.3509118792073583    0.23816947860849902    0.15631724200405445    0.10730053817505993    0.08005334068167237    
  0.06552563584615757    0.058370605932618475    0.056265523805473915    0.058370631004452694    0.06552564766446904    
  0.08005337206317904    0.10730046922191794    0.15631719160595925    0.238169390686535    0.3509117285375699    
  0.41974729536088307    0.3188076230434353    0.15711445478873357    0.10070189446511249    0.15587356598620286    
  0.31514889077528974    0.41482251041323165    0.34752379438384945    0.23657314337717952    0.15550058387403679    
  0.10641888577248618    0.0786887667327137    0.06362520680433835    0.05608865239945815    0.05384344824253198    
  0.05251782923064559    0.05460852530068366    0.061689855545082675    0.07611593891632035    0.10338269656915715    
  0.15309418461262234    0.23686064998898484    0.3506862676669557    0.4034558833410551    0.2657804088063609    
  0.10070197628102717    0.05423261271606755    0.10129334715024715    0.2681811764438592    0.40757375953483316    
  0.35421768504838014    0.23907865755513752    0.1545215756861168    0.1045929576087894    0.07741650358737139    
  0.06316609735967915    0.05623083124563946    0.05419573746992842    0.056230838756083416    0.06316610101241818    
  0.07741651762563558    0.10459292957764878    0.15452157677896186    0.23907864477702495    0.35421748291976335    
  0.407573834066882    0.26818138308429024    0.10129344240934789    0.054232617396112376    0.1007018829798125    
  0.2657803530973015    0.4034558677564946    0.35068638993858503    0.236860629510005    0.15309418083735835    
  0.10338275357762727    0.07611595395267028    0.061689888517682784    0.054608503325151075    0.05251782923064559    
  0.05479288696916994    0.05694224377221778    0.06420576613122517    0.07885628296351933    0.10612184908003007    
  0.15486956013135025    0.23606720235202477    0.34797410722304034    0.416784954926124    0.31742175344469864    
  0.15711453215138185    0.10129341654929648    0.15743440533519756    0.3185258285082036    0.4187187097624259    
  0.34996653381290294    0.23767237381805248    0.15619944837783148    0.10738499531395222    0.08015481456959556    
  0.065573498087823    0.058367835772697545    0.056243279195573606    0.058367885993893774    0.06557345522229867    
  0.08015486471715812    0.10738497334199801    0.15619940241357122    0.23767235636965714    0.34996640470945295    
  0.4187186905008492    0.3185259109345311    0.15743445246769963    0.10129338024448138    0.1571144776632731    
  0.31742171733944236    0.41678501009089974    0.347974169952576    0.23606720944123305    0.1548695040938935    
  0.10612185376165074    0.07885630629809048    0.06420575894850304    0.056942245740411596    0.05479288696916994    
  0.06213801381108987    0.06453167943125518    0.07238653725546078    0.08766559726384439    0.11463469212404623    
  0.16013944211051137    0.2324993430100968    0.33268568470372917    0.42188645213706577    0.4138195980065464    
  0.31880764327059885    0.26818123097639296    0.3185258767378939    0.4133356586547292    0.42148134456940584    
  0.33258376022024944    0.2327674194385727    0.1607445554840898    0.11546457211420687    0.08862506583880124    
  0.07342183159435624    0.0656076397267385    0.06322725846503564    0.06560760592641247    0.07342181236623857    
  0.08862507206163514    0.11546454242326112    0.16074459477627467    0.23276738538105465    0.3325837412360169    
  0.4214813630234329    0.413335848722649    0.31852578812992083    0.268181253780071    0.3188075576344279    
  0.4138195047789194    0.42188663550428673    0.3326857077448134    0.23249940925045992    0.16013952681308652    
  0.11463465019978115    0.08766557651115064    0.07238651219461185    0.06453168549627579    0.06213801381108987    
  0.07706461339240499    0.07977289321665582    0.08824664747378451    0.10365326099087999    0.12876275489282535    
  0.16764903106459744    0.22448202341147017    0.2995362732053524    0.377580335084764    0.42315161341399476    
  0.4197471709227917    0.4075737644117868    0.4187186038173198    0.42148132230739277    0.37585932348143225    
  0.2982185739693191    0.22375754531375375    0.1674459410983276    0.12890658326113152    0.10399169453899673    
  0.08867687743883101    0.08023836337661304    0.07753962773579767    0.08023837107179521    0.08867687766341403    
  0.10399167534963535    0.12890665608983393    0.16744597261861147    0.22375752241281213    0.2982184163141786    
  0.37585935253732344    0.42148137347580145    0.4187185026583243    0.4075736741883652    0.4197472272527763    
  0.42315177275316623    0.3775803038303312    0.2995362960252008    0.22448203035373426    0.16764911503992805    
  0.12876281868054484    0.10365321040320707    0.08824665811570064    0.0797728633360378    0.07706461339240499    
  0.10497760245927673    0.10773465058834807    0.11579265593718818    0.12921648105008451    0.1489996775312532    
  0.1765706001586662    0.21274689316385606    0.25596777643875207    0.29994191537415293    0.3341777058181974    
  0.35091172618836913    0.3542174985112137    0.34996642849794324    0.3325837281340593    0.2982184983640784    
  0.25457189645531486    0.211828707540115    0.17604098407588326    0.14870273891554575    0.1290139159448636    
  0.11559988165998701    0.1075223905184543    0.1047536200961736    0.10752237235042893    0.11559987236085284    
  0.12901387544818532    0.14870275290104384    0.17604100926658184    0.21182876739505996    0.25457182169816256    
  0.29821852591895326    0.3325836259943037    0.34996650140755603    0.3542174869063758    0.3509117304957125    
  0.3341777530936985    0.2999418757267185    0.25596784357077024    0.21274686196752987    0.1765705918819977    
  0.14899963052283596    0.12921652273451795    0.11579267160715011    0.10773459936446132    0.10497760245927673    
  0.1553235636013669    0.15704255515633736    0.16154894182080504    0.1681328797765093    0.17656335644132215    
  0.1867799209133336    0.19914952976057304    0.21258077904413306    0.22465368739152666    0.23359495775604294    
  0.23816944360490727    0.23907864466443093    0.23767235900346984    0.23276746383881988    0.22375756317715684    
  0.21182874798447804    0.1986171703405904    0.1864201754275478    0.17625168939386654    0.1677402550041045    
  0.16100419481996905    0.15636064686073892    0.15458890714298143    0.1563606148773779    0.16100418899449997    
  0.167740295629124    0.17625165498120896    0.1864201372749863    0.1986171686709831    0.21182880115238822    
  0.22375757020054454    0.23276743171223765    0.23767232974226263    0.2390786577539732    0.23816948317875986    
  0.2335949341752738    0.22465361390351987    0.21258084098770558    0.19914953646222647    0.18677992501646667    
  0.1765633390292268    0.16813288707266438    0.16154902529410714    0.15704254129669493    0.1553235636013669    
  0.2396681784199657    0.2384835690264219    0.23364814070496143    0.22449115921012827    0.21226675205101786    
  0.19873854736141047    0.1863043710346189    0.17603523233440804    0.16754995816939808    0.16090182019733257    
  0.15631720974074748    0.1545214772758754    0.1561994655555215    0.16074460325115922    0.16744587737523764    
  0.17604096851815057    0.18642018021694007    0.19888942744079743    0.21231936152657604    0.22430319638149196    
  0.23314669288271045    0.237717521409688    0.23879792715607415    0.23771755287852053    0.23314666101490789    
  0.22430316437329792    0.2123193711079104    0.1988893886026892    0.1864202000387776    0.1760410245262726    
  0.1674459990604124    0.16074451186732577    0.15619944435911715    0.15452156979964743    0.15631723490399568    
  0.16090183972877012    0.16754997915586076    0.17603526754482401    0.18630436584999988    0.19873862056479932    
  0.21226673643425695    0.22449113744746782    0.23364818267228374    0.23848355330985713    0.2396681784199657    
  0.3537721689124791    0.3499852776127125    0.3329155186624088    0.29860294304906604    0.2547438998310699    
  0.2117036891250127    0.17570247758536217    0.14827983537237877    0.1286169478039896    0.11528684670315388    
  0.10730049260020777    0.10459291152101502    0.10738498915607893    0.11546449753382398    0.12890662368960992    
  0.1487027328643009    0.1762517122532303    0.21231935552013495    0.2553008621754035    0.29894425682934644    
  0.33293020711266297    0.3497002853227908    0.3533680600361573    0.3497001835526223    0.3329301981250459    
  0.2989441496495966    0.25530085720448825    0.21231937404418993    0.17625164689507827    0.14870273163087525    
  0.128906645346658    0.11546453512903236    0.10738495814456511    0.10459293097216879    0.1073005069182219    
  0.11528691024586094    0.1286169385633612    0.1482798155677424    0.17570247050212837    0.21170371938722848    
  0.2547439031614    0.29860298921648465    0.33291558257245096    0.349985309614201    0.3537721689124791    
  0.40604826733085747    0.4177359888790232    0.42100135611518097    0.3757516122552895    0.2982188028344885    
  0.22363417524504195    0.1671725473493038    0.12856791475765772    0.10366700708794571    0.08841616534321907    
  0.0800533518280602    0.07741647514233983    0.0801548625807226    0.08862506577913302    0.10399168486873063    
  0.129013924807232    0.16774025707607138    0.22430312381611014    0.2989442464150774    0.37644982585424497    
  0.4215659985085373    0.41812677873260884    0.4063592375746582    0.41812676979610913    0.4215659969166007    
  0.37644988619017106    0.2989442552048628    0.22430323018372864    0.1677401993847865    0.12901390315859193    
  0.1039917532781604    0.08862503409591449    0.08015481875536153    0.07741648535794733    0.08005333439523331    
  0.08841614637222525    0.10366694445931587    0.1285678151335572    0.16717248081235872    0.22363422392235857    
  0.2982188066175044    0.3757517438762045    0.4210013900328437    0.4177358934218955    0.40604826733085747    
  0.2670040153528601    0.31743814501535045    0.4124435606122555    0.4210325139399828    0.33254091023819365    
  0.2328602356393387    0.16077585080456883    0.11541409139127541    0.08853521821521847    0.07332608238410766    
  0.0655256434994591    0.0631661036638436    0.06557348376172437    0.07342186012224405    0.08867691332122184    
  0.11559991089818794    0.16100416011694446    0.2331466601038398    0.33293023855857246    0.4215661110147284    
  0.4130407052578437    0.317945494333612    0.2674443109477488    0.31794543395014774    0.41304068999587806    
  0.42156605178346024    0.332930188745429    0.23314667968145192    0.16100419263149887    0.11559992995874521    
  0.08867688843228665    0.07342183454870506    0.0655734621136638    0.06316608906595149    0.06552561692181685    
  0.07332610599057561    0.08853521192522879    0.11541416229591692    0.16077587371916677    0.23286024455217105    
  0.33254089368768114    0.42103250367768796    0.41244346999154086    0.3174381133905647    0.2670040153528601    
  0.10099447724231972    0.15692556253615758    0.31775399307314567    0.4181945764634984    0.3499905894172988    
  0.23802009098857532    0.15657165041754947    0.10763684015603625    0.08028723753095621    0.06562319605837064    
  0.05837058628610023    0.056230844578725105    0.05836788826629581    0.06560761160912941    0.08023840239658592    
  0.10752247327548431    0.15636063916766127    0.23771756304226516    0.3497003878182359    0.4181267974572896    
  0.3179454407484557    0.15713279638005437    0.10116386030893003    0.15713277912646534    0.3179454863667083    
  0.41812685582982434    0.34970023282186835    0.23771754237391773    0.1563606191015206    0.10752244379992448    
  0.08023838687054012    0.06560764220817866    0.05836787931582573    0.05623083746024571    0.058370577560201455    
  0.06562325298292031    0.08028727451433383    0.107636879375512    0.1565715974139161    0.23802008891816723    
  0.34999067989779126    0.4181946451135255    0.317753977423781    0.1569255428223023    0.10099447724231972    
  0.054255768548914125    0.10108703778750369    0.2674778486922741    0.4067736242203657    0.3540190561054489    
  0.23937742937264117    0.15498784788959952    0.10498774649223029    0.07766386336023368    0.06328608968412874    
  0.05626551794494521    0.054195730181269275    0.056243309624815115    0.0632272441668577    0.07753964799002336    
  0.10475365955700189    0.1545889675987991    0.23879800182785546    0.3533682150156323    0.4063593936529571    
  0.26744422614738667    0.10116385690457949    0.054322697703185374    0.10116387171901285    0.2674443119174473    
  0.40635938126402243    0.3533681101558258    0.23879795887867553    0.15458894683623506    0.10475364659793186    
  0.0775396640472126    0.06322726379090558    0.056243289738041845    0.0541957515724375    0.05626552823493402    
  0.0632860914143382    0.07766386875994492    0.10498776575614624    0.1549878529585004    0.23937737358255234    
  0.3540190917135747    0.40677363768479025    0.2674778751574851    0.10108698487821219    0.054255768548914125    
  0.1009944272656857    0.15692557679656843    0.31775407100989667    0.4181946620200831    0.34999070125512577    
  0.2380200778432476    0.1565715799861008    0.10763686222591595    0.08028727417967442    0.06562323398247707    
  0.05837058809348652    0.05623084032644663    0.0583678646930365    0.06560760396977622    0.0802383701476931    
  0.1075224076592587    0.15636062823748265    0.2377175722630348    0.34970032153964165    0.4181268290021238    