#     DFTpy    
  CRYSTAL 
    
  PRIMVEC    
  3.4215087082756046    -1.8798436000000002e-10    3.563107903448276e-10    
  -1.8798436000000002e-10    3.4215087080767908    1.7168776758620691e-10    
  6.511130448275862e-10    3.137898896551725e-10    6.268270264560974    
  PRIMCOORD    
  4    1    
  Si    1.7107543540726153    1.7107543549798778    1.9262034068079408    
  Si    6.343918545377567e-10    -5.871212057391444e-10    1.2079317233654574    
  Si    9.730079938337666e-11    4.434167178936375e-10    5.060338537640105    
  Si    1.710754354585538    1.7107543536802128    4.342066861836441    
  BEGIN_BLOCK_DATAGRID_3D    
  3d_datagrid_density    
  BEGIN_DATAGRID_3D#0    
  15    15    27    
  0.0    0.0    0.0    
  3.4215087082756046    -1.8798436000000002e-10    3.563107903448276e-10    
  -1.8798436000000002e-10    3.4215087080767908    1.7168776758620691e-10    
  6.511130448275862e-10    3.137898896551725e-10    6.268270264560974    
  0.4692588022182584    0.4302864682116106    0.3359436892212593    0.23230915080359243    0.15116807294967427    
  0.09989307407179317    0.07373217141870828    0.06599233124861771    0.07373218932043574    0.099893027764447    
  0.15116805809068062    0.2323091732398948    0.3359436248231916    0.4302863886912293    0.4692588022182584    
  0.4302864582934473    0.39568674295704853    0.31155141994105623    0.2181426222073637    0.14420029731375572    
  0.09710846956326245    0.07287669586170208    0.06564779849922016    0.07287670368699453    0.09710847201627189    
  0.14420029779695762    0.21814267172654894    0.31155145955909774    0.395686760179628    0.4302864582934473    
  0.3359436717365488    0.31155141788497187    0.25149655112197633    0.18297522610758557    0.12696053697872361    
  0.0902493537254853    0.07076309233918435    0.06480309433991077    0.07076309455451506    0.09024937131103158    
  0.1269605290401549    0.18297522601799107    0.2514965331023618    0.31155140920869273    0.3359436717365488    
  0.23230914293454522    0.21814265566645685    0.18297521447592702    0.14155898715840168    0.10612723717044514    
  0.08186054858000459    0.06839942005543871    0.06414311549502558    0.06839940717866931    0.08186052470239691    
  0.10612723653612957    0.1415590115388173    0.18297519108079752    0.2181426559611734    0.23230914293454522    
  0.15116809558991487    0.14420031464275807    0.12696049488703703    0.10612719773412396    0.08744967114430642    
  0.07417763179800929    0.06657845063183909    0.06411463361582127    0.06657841227373221    0.07417760198044115    
  0.08744967549255425    0.10612727371110929    0.12696049004214616    0.14420026441500672    0.15116809558991487    
  0.09989309663170685    0.09710848624847584    0.0902493737674074    0.08186052512833214    0.07417762869622188    
  0.06871075069059335    0.06561097993234727    0.06460002706723622    0.06561097467626781    0.0687107478467668    
  0.0741776369801433    0.08186056582194516    0.09024934523125135    0.09710847117229619    0.09989309663170685    
  0.07373220621921532    0.0728766863759277    0.07076308995123928    0.06839941236378529    0.06657845652002847    
  0.06561094444508103    0.06535076994213429    0.06534498381382112    0.06535076364193303    0.0656109735988914    
  0.06657843291741845    0.06839944099174416    0.07076309299075483    0.07287667231178904    0.07373220621921532    
  0.06599232324379839    0.06564776798710938    0.06480310647082024    0.06414312383311532    0.06411463548631875    
  0.0645999746801512    0.065344944869541    0.06573564099014065    0.06534496694437479    0.06459996842404475    
  0.0641146266693441    0.06414312315808159    0.06480310373438197    0.06564775024675902    0.06599232324379839    
  0.07373218986543371    0.07287669037244726    0.07076309076701584    0.0683994083469812    0.06657844420743148    
  0.06561094491308736    0.06535076567132672    0.06534500646440133    0.06535077150054165    0.06561096756415438    
  0.06657843656752312    0.06839943928619312    0.07076310085464785    0.07287668622153434    0.07373218986543371    
  0.0998930746688706    0.0971084791766812    0.09024937071369796    0.08186055079053245    0.07417763334189606    
  0.06871074623662173    0.06561094026863037    0.06460001010125266    0.06561098126831404    0.06871076574014574    
  0.07417761730360714    0.08186055776204247    0.09024935820894589    0.09710848865034    0.0998930746688706    
  0.15116808775441037    0.14420029562130693    0.1269604886608899    0.10612727400860764    0.0874496833631464    
  0.07417761921561843    0.06657840750375905    0.06411464857558553    0.06657842188584169    0.07417761739748326    
  0.08744966697193488    0.1061272574966653    0.12696048655958214    0.1442003086321433    0.15116808775441037    
  0.2323091924052385    0.21814264732423824    0.1829752251200972    0.14155897463092013    0.106127233248791    
  0.0818605510574172    0.068399440923861    0.06414312717960322    0.06839943179817562    0.08186053089799135    
  0.1061272481678657    0.14155899200703012    0.1829752177937828    0.21814263389219485    0.2323091924052385    
  0.33594367143663123    0.31155143156833276    0.25149657766934347    0.18297514602611745    0.1269605152751772    
  0.09024934164101935    0.07076306948887648    0.06480311892680474    0.07076308914043429    0.0902493437920826    
  0.12696051122060562    0.18297523429832577    0.25149652385173155    0.3115514402033631    0.33594367143663123    
  0.4302864471147055    0.3956868065200147    0.3115514189775811    0.2181426308750795    0.14420028317313674    
  0.09710847095699841    0.07287667394038413    0.06564780432494993    0.07287668990287036    0.09710848516126618    
  0.1442002899933231    0.21814264054795318    0.31155143226746235    0.39568668987448596    0.4302864471147055    
  0.4692588022182584    0.4302864682116106    0.3359436892212593    0.23230915080359243    0.15116807294967427    
  0.09989307407179317    0.07373217141870828    0.06599233124861771    0.07373218932043574    0.099893027764447    
  0.15116805809068062    0.2323091732398948    0.3359436248231916    0.4302863886912293    0.4692588022182584    
  0.4881215202560051    0.45114228335854867    0.357406617848209    0.248921917819903    0.16162539831682926    
  0.10635143724265868    0.07805934148978984    0.06958172272293794    0.07805934792736377    0.10635139010371998    
  0.16162538575534294    0.24892189964891576    0.357406619795798    0.4511422602191678    0.4881215202560051    
  0.45114229961380137    0.41741408217452275    0.3324020337214678    0.23414295782568137    0.15458196343430733    
  0.10370672950938482    0.07740143515011594    0.06946668834295096    0.07740146033618267    0.10370671862318298    
  0.1545819528368524    0.23414294580590525    0.33240209196523796    0.41741408973529354    0.45114229961380137    
  0.3574067445826336    0.3324019988108006    0.2697909052293166    0.1970293527396277    0.13679791299640437    
  0.09703504735883    0.0758115464493072    0.0692830260586265    0.07581155927511668    0.09703504622233808    
  0.13679793035628215    0.19702938986476104    0.2697908625433829    0.33240204364845466    0.3574067445826336    
  0.2489218953926142    0.23414292437060083    0.19702937815151095    0.15296702356067138    0.11505675540374091    
  0.08883823045314691    0.07423368976069927    0.0696377467327192    0.0742336805907517    0.08883819966910549    
  0.11505675854906994    0.1529670371213943    0.19702930766172708    0.23414290158029907    0.2489218953926142    
  0.16162544455425779    0.15458198720309332    0.1367978962789328    0.11505676435138751    0.09552856887090896    
  0.08150661019040102    0.07348583412034392    0.07092598695810595    0.0734857913988992    0.08150657071665575    
  0.09552856939502731    0.11505680949992995    0.13679788380984836    0.15458194768817482    0.16162544455425779    
  0.10635145731545301    0.10370675477520448    0.09703506940553502    0.0888382079812749    0.08150658204483563    
  0.07641406764166114    0.07363271706876466    0.07277903934317749    0.07363271177961261    0.07641402663669719    
  0.08150659834327598    0.08883824252546528    0.09703502256007222    0.10370671426748534    0.10635145731545301    
  0.07805935057725116    0.07740143892191477    0.07581156242421103    0.07423366868866517    0.07348582847848906    
  0.07363270141185065    0.07419029422200411    0.07448846668737835    0.07419028010870062    0.0736327076752047    
  0.07348582174784161    0.0742336956251161    0.07581156798384021    0.07740142491892935    0.07805935057725116    
  0.06958171246281906    0.06946664923973893    0.0692830458364401    0.0696377786772443    0.07092599687213522    
  0.0727790166100353    0.07448842811728472    0.07521135987040523    0.07448846004815023    0.07277898727931444    
  0.07092599552225605    0.06963779260062096    0.06928301745183275    0.06946663505292726    0.06958171246281906    
  0.07805935065581095    0.07740144394112038    0.07581155296933526    0.07423369455887475    0.07348581870477806    
  0.07363270206653003    0.07419030448856809    0.07448849219286419    0.07419032035454362    0.07363268856672155    
  0.07348582744993701    0.07423372140816491    0.07581156151976502    0.07740142574153781    0.07805935065581095    
  0.10635144768816326    0.10370672746346678    0.09703506008752111    0.08883820588537793    0.08150658463645322    
  0.07641401444827932    0.07363267981274667    0.07277901891298313    0.07363273093270205    0.0764140385427726    
  0.08150658949824996    0.08883823540962142    0.09703505191800124    0.1037067269374496    0.10635144768816326    
  0.1616254275604313    0.15458197268831592    0.136797874894319    0.11505681223875654    0.09552858134886477    
  0.08150658531249873    0.07348579413783449    0.07092598273861189    0.0734858132348449    0.08150658790439161    
  0.09552854613068266    0.11505681319361692    0.13679786989519352    0.15458197022155215    0.1616254275604313    
  0.24892195169271428    0.23414294343504138    0.19702937113379124    0.15296699264637342    0.1150567766914728    
  0.08883824140400794    0.07423370778530237    0.06963777959589867    0.07423368889089918    0.08883820036953861    
  0.11505679780950012    0.1529670586342342    0.19702932750105018    0.23414291879099536    0.24892195169271428    
  0.35740668227775546    0.33240203811211533    0.26979090248335164    0.19702930414097616    0.13679792461962353    
  0.09703503898300624    0.07581154467116834    0.06928304530793847    0.07581155228964638    0.09703503724538887    
  0.1367978961981464    0.19702938449330915    0.2697908472174384    0.332402045636965    0.35740668227775546    
  0.4511422966083325    0.4174141383316457    0.3324020864212259    0.23414291659062098    0.15458197321735173    
  0.10370670618265097    0.07740143495645352    0.06946669506973932    0.077401444995991    0.10370673873521337    
  0.15458195425330698    0.23414292390872304    0.3324020325860894    0.4174140206192276    0.4511422966083325    
  0.4881215202560051    0.45114228335854867    0.357406617848209    0.248921917819903    0.16162539831682926    
  0.10635143724265868    0.07805934148978984    0.06958172272293794    0.07805934792736377    0.10635139010371998    
  0.16162538575534294    0.24892189964891576    0.357406619795798    0.4511422602191678    0.4881215202560051    
  0.46766341213843193    0.4545536069574703    0.3958786976437796    0.2925564095454916    0.19220841163338637    
  0.12536517001216635    0.09079715724888067    0.0803102274235672    0.0907971651129739    0.1253651459475535    
  0.19220837935623222    0.29255640606797506    0.39587867278059896    0.4545536179292549    0.46766341213843193    
  0.45455365858700114    0.43773391799042155    0.37579126367113624    0.2775421785677272    0.18502059390565373    
  0.12316823311397068    0.0908436244366573    0.08097723701827335    0.09084363960832473    0.12316822765710894    
  0.185020589504365    0.2775421894747622    0.37579128756870883    0.4377339343321008    0.45455365858700114    
  0.3958787561836779    0.3757912746330113    0.3169559760303331    0.23750987142012184    0.16616038106393546    
  0.11756759782285234    0.09138784198025611    0.08328080801584584    0.09138787345093391    0.11756758988570971    
  0.16616036809413212    0.23750986134025331    0.3169558850883636    0.3757912569411135    0.3958787561836779    
  0.29255643572321927    0.2775421835543695    0.2375098530388038    0.18727597391666087    0.14257058172963688    
  0.11094771954105155    0.09320295751755613    0.08762752782926791    0.09320296048886148    0.11094768875880598    
  0.1425705584018812    0.18727601017666548    0.23750982102519333    0.2775421610725064    0.29255643572321927    
  0.19220846654355978    0.18502062486767923    0.16616033344143627    0.14257052684854823    0.12123302076353455    
  0.1056332024348843    0.09666886307994306    0.09387848192322339    0.0966688260343795    0.10563315016166419    
  0.12123301114327303    0.14257059556925616    0.16616032826378727    0.185020565729841    0.19220846654355978    
  0.12536519556943068    0.12316826282110217    0.1175676032163538    0.11094770479685137    0.10563318325495513    
  0.10241183907709654    0.10103437444024593    0.10076914897629606    0.10103439428355485    0.10241180360717812    
  0.10563315290289199    0.11094775147683938    0.11756760086025915    0.12316826454458817    0.12536519556943068    
  0.09079718897643187    0.09084361908753395    0.09138786510703263    0.09320296615010644    0.09666887599106604    
  0.1010343689735645    0.10471848216133783    0.1061999840959632    0.10471845499287366    0.1010343767519726    
  0.09666883715077254    0.09320298039347619    0.09138787444162885    0.09084359669046978    0.09079718897643187    
  0.08031022717844843    0.08097718714728465    0.0832808276426264    0.08762755012921927    0.09387848154553702    
  0.10076910748035203    0.10619991790827238    0.10827732248444419    0.10619995458036467    0.10076907653779411    
  0.09387846975989292    0.08762756138565592    0.08328081168275014    0.08097717648039154    0.08031022717844843    
  0.09079718226322134    0.09084364261098875    0.09138787164433318    0.09320297047331493    0.09666885895406209    
  0.10103437904171685    0.10471851061929095    0.10620002241180558    0.10471848296818694    0.10103438876309363    
  0.09666883992978248    0.09320297599980605    0.09138785866473437    0.0908436091424831    0.09079718226322134    
  0.12536519667801022    0.1231682355330826    0.11756761256481621    0.11094772028523639    0.10563317160138054    
  0.10241181640839814    0.10103435042173313    0.10076910234588124    0.10103441403376583    0.10241184146464491    
  0.10563317529633602    0.11094774885230027    0.11756759924044947    0.12316824480174642    0.12536519667801022    
  0.19220843016545797    0.1850205989066961    0.1661603340629857    0.14257059826484555    0.12123301107997837    
  0.10563315085525572    0.09666885127344504    0.09387848489872327    0.09666881668219773    0.10563314784193703    
  0.12123299636516248    0.14257058762257974    0.16616031459175365    0.1850206178827539    0.19220843016545797    
  0.292556436189261    0.2775421532350953    0.23750986833969048    0.1872759345908668    0.14257055482392603    
  0.11094776679612625    0.09320298281262893    0.08762754810872629    0.09320297073712037    0.11094771052726812    
  0.1425705737945135    0.18727599605211714    0.23750984494555666    0.2775421608038918    0.292556436189261    
  0.3958787451659572    0.3757912657078847    0.31695595798933623    0.23750982890934727    0.16616036378176455    
  0.11756761010851369    0.09138784556103965    0.08328083356791585    0.09138786246957901    0.11756759846248283    
  0.16616034164860727    0.23750984866637784    0.3169559015754699    0.37579121586666825    0.3958787451659572    
  0.45455363594726067    0.43773395571815793    0.37579122683394145    0.2775421285606464    0.1850206223483145    
  0.12316822825790327    0.09084362048058389    0.08097723033859734    0.09084362886309953    0.12316824179152105    
  0.18502059842043206    0.27754214818529555    0.3757912547424363    0.4377338781268602    0.45455363594726067    
  0.46766341213843193    0.4545536069574703    0.3958786976437796    0.2925564095454916    0.19220841163338637    
  0.12536517001216635    0.09079715724888067    0.0803102274235672    0.0907971651129739    0.1253651459475535    
  0.19220837935623222    0.29255640606797506    0.39587867278059896    0.4545536179292549    0.46766341213843193    
  0.28743007950272065    0.3273798203898729    0.3817256459552305    0.34036610345180757    0.2372261531046275    
  0.15478543665206343    0.11090052835570254    0.09761958721369746    0.11090053950391746    0.15478541869637155    
  0.23722616907449048    0.34036611986878534    0.3817256265490632    0.3273798598016458    0.28743007950272065    
  0.3273798521466389    0.3569397879567535    0.385566696296452    0.33030586325433586    0.2308168489732477    
  0.15383425646359866    0.11258156632635108    0.10000198789247466    0.11258156542606595    0.15383422943108851    
  0.23081682078749308    0.3303058443664119    0.385566677977136    0.3569397720394722    0.3273798521466389    
  0.38172573489767336    0.38556665295614345    0.36538939324586145    0.295916656560486    0.21305534403258275    
  0.15181911573722157    0.11822867377941552    0.10777631739165604    0.11822870703801394    0.15181912884311266    
  0.21305537493770277    0.29591667242300196    0.3653892392311575    0.3855666669726158    0.38172573489767336    
  0.34036609899301107    0.33030590841749075    0.2959166287597877    0.24252553553319559    0.18958377534322657    
  0.15055716479626607    0.12830054227133486    0.12121973283405674    0.1283005708701009    0.1505571789941591    
  0.18958372551747651    0.24252554707816298    0.2959165763111115    0.3303058503313525    0.34036609899301107    
  0.23722618904319473    0.23081684150486262    0.21305534778425297    0.18958370039992067    0.1676534228849401    
  0.15139699617724423    0.1419917435790894    0.13903420998213323    0.14199168881337165    0.15139691092564223    
  0.1676534322644372    0.18958377094527207    0.2130553208102472    0.2308168182132057    0.23722618904319473    
  0.15478544650631684    0.1538342944545661    0.15181913361608165    0.15055714143416787    0.15139697566146    
  0.15394742471948458    0.1567257333927757    0.15799053509451175    0.15672575905371122    0.15394739210800826    
  0.1513969504000384    0.15055722468150948    0.15181912827989272    0.15383429208128874    0.15478544650631684    
  0.11090056075392245    0.11258154411735107    0.11822867306834431    0.12830056271277945    0.14199175769624045    
  0.1567257301048552    0.168239278374051    0.17260961995995683    0.16823920057834624    0.15672575231817581    
  0.14199172111250513    0.12830057701903894    0.11822872041694964    0.11258151830529518    0.11090056075392245    
  0.09761958913911248    0.10000193168767152    0.1077763241178852    0.12121972990565302    0.13903419741968842    
  0.15799049854177044    0.17260956945305794    0.17805167355827206    0.17260955687056764    0.15799046885325124    
  0.13903420210578257    0.12121975171449081    0.10777630085110022    0.10000193613478169    0.09761958913911248    
  0.11090054848436093    0.1125815490021573    0.11822868469103974    0.1283005601195013    0.14199173515640498    
  0.15672573889709476    0.1682392974714572    0.17260965278006724    0.1682392832520498    0.15672573969262846    
  0.14199170540348344    0.12830057884855645    0.11822869130189474    0.11258153759818272    0.11090054848436093    
  0.15478547180388771    0.15383424908855273    0.15181917110427237    0.15055719364763406    0.1513969586084213    
  0.1539473996685093    0.1567256962761654    0.15799048380480915    0.15672575985693102    0.15394742163946626    
  0.15139697169956723    0.1505572195241726    0.15181911935764897    0.15383427850378179    0.15478547180388771    
  0.2372262079442898    0.23081682277253665    0.21305530101214146    0.1895837689817092    0.16765341280886062    
  0.15139695215103877    0.1419916762722532    0.13903419577119283    0.14199168878189933    0.15139692803801694    
  0.16765341112748441    0.18958375552637463    0.21305532504166058    0.2308168930420397    0.2372262079442898    
  0.34036617375732564    0.3303058560561257    0.2959166835526821    0.24252551658552324    0.18958372774796184    
  0.1505572102196833    0.1283006004228373    0.1212197200212742    0.12830056364947495    0.15055715384562507    
  0.1895837764892417    0.24252553854050038    0.2959166113419802    0.330305842877291    0.34036617375732564    
  0.38172566471297475    0.3855666405886281    0.36538933194597306    0.2959165965626411    0.2130553551221375    
  0.15181915491357745    0.1182286546676572    0.10777634628801445    0.11822867322695901    0.15181911399136794    
  0.2130553693592941    0.29591664763095815    0.36538929263031494    0.38556664617600284    0.38172566471297475    
  0.32737988912813676    0.356939801928836    0.3855666440071486    0.33030585096498377    0.23081684491273324    
  0.1538342415449497    0.1125815549598037    0.10000198335204662    0.11258154296515498    0.15383428484506323    
  0.23081685117008552    0.33030583866765223    0.38556668878162814    0.3569397697809414    0.32737988912813676    
  0.28743007950272065    0.3273798203898729    0.3817256459552305    0.34036610345180757    0.2372261531046275    
  0.15478543665206343    0.11090052835570254    0.09761958721369746    0.11090053950391746    0.15478541869637155    
  0.23722616907449048    0.34036611986878534    0.3817256265490632    0.3273798598016458    0.28743007950272065    
  0.10529441238789637    0.1610314377830719    0.30736557781033513    0.36839029772834914    0.28373491082441044    
  0.18844106655110104    0.13511933060497802    0.11900751706300285    0.1351193409820135    0.18844103430988968    
  0.28373495093748863    0.3683903310473958    0.3073655616635609    0.16103145510290778    0.10529441238789637    
  0.16103146517532346    0.21781014604335475    0.34222868529670314    0.36984880074696475    0.2804585005263334    
  0.19044641722671923    0.14000220967227447    0.12458197294876612    0.14000223747440685    0.19044637967678743    
  0.28045850351192103    0.3698488221502099    0.34222864618517185    0.21781014761906606    0.16103146517532346    
  0.3073656422496088    0.34222864319477153    0.3884542672780937    0.3553047298897326    0.2695222238871666    
  0.19660977515938147    0.15514227343057047    0.1420689752001008    0.1551423104003282    0.19660977529687054    
  0.2695222164250018    0.3553047539801056    0.3884540946291169    0.34222864663324193    0.3073656422496088    
  0.3683902913645936    0.3698488460526037    0.3553046856610339    0.3093454530326786    0.25240004079898426    
  0.20736805745314046    0.18084688478472086    0.17214442869818902    0.18084690141693305    0.2073680325087327    
  0.25240001833005493    0.30934546641181887    0.3553046845799251    0.3698488007366029    0.3683902913645936    
  0.28373497002551235    0.280458507144345    0.2695221668240592    0.252399994952299    0.23503621046554188    
  0.22217680218004723    0.21466932028326471    0.2121352222809822    0.21466923958715156    0.22217670957840632    
  0.23503624754116403    0.25240004054785664    0.2695221685429881    0.28045847442334243    0.28373497002551235    
  0.1884410902960394    0.19044644168323713    0.1966097664324986    0.2073680361787725    0.22217679543073185    
  0.2376946745428627    0.24888165693117295    0.2527432450660431    0.2488817025846159    0.2376946256749041    
  0.22217675935720935    0.20736807410147434    0.19660978347883787    0.19044642734964534    0.1884410902960394    
  0.13511935753721288    0.14000218250518612    0.15514227694972746    0.1808468977593998    0.21466931445386603    
  0.24888164975535923    0.2725844585918536    0.2804325091806002    0.272584416610246    0.24888165643775184    
  0.21466930921387473    0.18084691539969006    0.15514230176104307    0.1400021722010499    0.13511935753721288    
  0.1190075086475064    0.1245819354425164    0.14206899176166077    0.17214441312684048    0.2121351877770796    
  0.25274320772831194    0.2804324785057252    0.28932596836501445    0.2804324728127864    0.2527431843789611    
  0.21213517595711132    0.1721444186172309    0.1420689583841334    0.12458194393174477    0.1190075086475064    
  0.13511935193920568    0.14000219378850826    0.1551422985189299    0.18084689710696192    0.2146692918218754    
  0.24888166055703576    0.27258455343263793    0.28043258053804    0.27258452794865995    0.24888164225709283    
  0.21466930125966752    0.18084690377669632    0.15514229337459937    0.14000218807648673    0.13511935193920568    
  0.18844112372104116    0.19044640869038615    0.19660980245536538    0.2073680590382269    0.22217676872436495    
  0.23769464394082324    0.24888162442933448    0.2527431846914796    0.248881702826288    0.2376946685668102    
  0.22217677388530066    0.2073680820339956    0.19660979662044908    0.19044642200451053    0.18844112372104116    
  0.2837349575584167    0.28045848694647896    0.2695221628118329    0.25240005875205357    0.2350362210310972    
  0.22217677833050187    0.21466928074941238    0.21213519640037265    0.21466926617666052    0.22217675570510567    
  0.23503620871879596    0.25240005782775304    0.2695221411872182    0.28045849335393874    0.2837349575584167    
  0.36839029916398147    0.36984879302146656    0.35530473688748976    0.30934536877454677    0.2524000022023042    
  0.2073680876542667    0.18084693559212528    0.17214442829733598    0.18084689215990146    0.2073680100626281    
  0.2524000513340678    0.30934543280774457    0.3553046548892688    0.3698488049521819    0.36839029916398147    
  0.30736561552425806    0.34222863605671566    0.3884541921460809    0.35530470274428994    0.269522175358053    
  0.19660979058878555    0.15514226886399088    0.1420690060397016    0.15514228835331592    0.1966097751347857    
  0.26952223627353206    0.35530474623262176    0.38845415841128395    0.3422286051790207    0.30736561552425806    
  0.16103148014950702    0.2178101766574236    0.34222864595864105    0.3698487916227206    0.2804585310152468    
  0.1904463846625797    0.14000220788019932    0.12458200481802889    0.1400022143875693    0.19044643718186788    
  0.28045850157743796    0.36984880009142557    0.3422286294391834    0.21781012559260843    0.16103148014950702    
  0.10529441238789637    0.1610314377830719    0.30736557781033513    0.36839029772834914    0.28373491082441044    
  0.18844106655110104    0.13511933060497802    0.11900751706300285    0.1351193409820135    0.18844103430988968    
  0.28373495093748863    0.3683903310473958    0.3073655616635609    0.16103145510290778    0.10529441238789637    
  0.05534548766902687    0.10446855555816242    0.27128093698113137    0.3860463417034319    0.3173416274554019    
  0.21605567866792977    0.15720053873242673    0.13929885158342123    0.15720053047380764    0.216055674259777    
  0.31734161705371666    0.3860464146043024    0.2712809040241461    0.10446856118995825    0.05534548766902687    
  0.10446856643333467    0.1625590735194691    0.32015164307910216    0.39686305928056576    0.3188882651520425    
  0.2226222323630179    0.16665071096601614    0.1493734689645251    0.1666507435751561    0.22262222178622704    
  0.3188882921479947    0.3968630451999884    0.3201516120080838    0.162559083994374    0.10446856643333467    
  0.27128093425373034    0.32015157464350374    0.40515091069511144    0.4017789609209385    0.3197510963424771    
  0.24159520839453183    0.19557729986819708    0.1807968983636401    0.19557731346001064    0.2415951966001299    
  0.3197511400722201    0.40177896684726694    0.40515079946208044    0.3201515715200924    0.27128093425373034    
  0.38604637535964137    0.39686307329471926    0.4017789494892032    0.36952894941341236    0.31699320025090366    
  0.2723102271136118    0.24489727714101822    0.23552518698012403    0.2448972991345001    0.2723102121172195    
  0.3169932041049535    0.3695289684402783    0.4017788387682664    0.39686303690629343    0.38604637535964137    
  0.31734167380307576    0.31888834188008175    0.31975106396561326    0.3169931172341656    0.31329308279118073    
  0.3105498769618081    0.30757097754813717    0.3056957268351009    0.3075709235208071    0.3105497641261515    
  0.31329305131556345    0.3169932047779499    0.3197510612960628    0.31888824919471237    0.31734167380307576    
  0.2160557086699427    0.22262227614486954    0.24159521519153287    0.2723102247744136    0.31054983984464235    
  0.3433090341758687    0.358111045625805    0.3601010943555305    0.35811109037640954    0.34330899083859473    
  0.31054985145320074    0.27231027733271257    0.24159520897097256    0.22262222881205201    0.2160557086699427    
  0.1572005787026995    0.1666507478893059    0.1955773179041469    0.2448973050157358    0.3075710250252387    
  0.3581110310084107    0.3734577204713869    0.3713802108868646    0.373457633894764    0.3581110900507872    
  0.3075709840812077    0.2448973188674814    0.19557731009668902    0.16665069238937735    0.1572005787026995    
  0.13929881086933843    0.14937338895985686    0.18079692506548606    0.23552517435930304    0.30569567697666705    
  0.36010105089444544    0.3713802039126243    0.3656312463390804    0.37138018138637335    0.36010099177308685    
  0.305695659569957    0.23552519984522932    0.18079691386243926    0.1493733804655941    0.13929881086933843    