#     DFTpy    
  CRYSTAL 
    
  PRIMVEC    
  1.5632893344125236    -2.7076965541330242    0.0    
  1.5632893344125236    2.7076965541330242    0.0    
  0.0    0.0    2.9426159273793098    
  PRIMCOORD    
  1    1    
  Si    0.0    0.0    0.0    
  BEGIN_BLOCK_DATAGRID_3D    
  3d_datagrid_density    
  BEGIN_DATAGRID_3D#0    
  15    15    13    
  0.0    0.0    0.0    
  1.5632893344125236    -2.7076965541330242    0.0    
  1.5632893344125236    2.7076965541330242    0.0    
  0.0    0.0    2.9426159273793098    
  0.06975918414596345    0.11655113733354337    0.271962798179733    0.4013197063915917    0.3482275772946092    
  0.23492005391509196    0.16295721294701768    0.14091088133129295    0.1629572126233414    0.23492001295460505    
  0.3482275970978354    0.40131962690318546    0.2719627443332892    0.11655113090590662    0.06975918414596345    
  0.11655111350082459    0.11656575651717134    0.22239923536022463    0.3747993793077567    0.3858555588856932    
  0.27852871964826464    0.18525000592007299    0.1416624673379274    0.14166220123090836    0.18524891322380638    
  0.2785304832805051    0.38586231301273816    0.3747476695497024    0.2224484197850808    0.11655111350082459    
  0.2719627333056108    0.22239928464692002    0.27198575372057177    0.37478466036027586    0.39488792753567087    
  0.30313857175951414    0.20240172573698273    0.1434284876383263    0.12547395893877927    0.14342782350517808    
  0.2024061241664092    0.30312223505377256    0.39494895900085436    0.3747477064643478    0.2719627333056108    
  0.40131966205697356    0.37479946742941184    0.37478464626451813    0.4013017187427245    0.38583445606910755    
  0.3031683045932414    0.20888707368856985    0.14493923098750117    0.11565315617147663    0.1156586493386528    
  0.14493236423600397    0.20889962627324643    0.3031222812295831    0.3858623259085524    0.40131966205697356    
  0.348227549808265    0.38585563898638003    0.39488787649969176    0.385834455335234    0.34825675368915654    
  0.2785479865784337    0.20237249070174923    0.14493718871436231    0.11237605989338739    0.10210835877042358    
  0.11237636368208634    0.14493233767824248    0.2024061176958456    0.2785304646057198    0.348227549808265    
  0.23491997326240946    0.2785287793969494    0.3031385741683975    0.3031683432532282    0.27854799970930405    
  0.23488141848364008    0.18524553976406472    0.14345218182252237    0.11565598584171535    0.1021071355887518    
  0.10210838734339536    0.11565862661806606    0.1434278450206828    0.18524895071171002    0.23491997326240946    
  0.16295720637083222    0.18525002525249792    0.20240172717195384    0.20888710096564378    0.20237250477529914    
  0.1852455244683711    0.16298680738088273    0.14166243067348833    0.12545217419378973    0.1156559886481826    
  0.11237607408328415    0.11565314012869646    0.12547394548341717    0.14166221801818632    0.16295720637083222    
  0.14091087746167594    0.14166247116631475    0.14342850868848042    0.14493924064031793    0.14493716018207137    
  0.14345220666112196    0.14166241931047183    0.1408856988561612    0.14166241761088733    0.14345219505538911    
  0.14493718504428785    0.1449392215510996    0.1434284929549573    0.1416624516492113    0.14091087746167594    
  0.16295721105068728    0.14166222739887144    0.12547393445968624    0.11565317282337564    0.1123760568939226    
  0.11565597773865541    0.12545216112695162    0.1416624461522242    0.16298681288608313    0.18524554009647567    
  0.20237249539672994    0.20888703075474857    0.20240170917979206    0.18525001169308827    0.16295721105068728    
  0.23492000376391264    0.18524897629501316    0.1434278353466477    0.11565864809721196    0.10210835540050774    
  0.10210713611986372    0.11565598329840658    0.14345219905777948    0.18524554198803997    0.2348814348137829    
  0.27854799501034844    0.3031683016678496    0.3031386070800496    0.27852875938946625    0.23492000376391264    
  0.3482275725982312    0.27853055330372506    0.20240606556628774    0.1449323625643599    0.11237633837297142    
  0.10210836695250738    0.11237607499027404    0.14493716572656903    0.20237250070912946    0.27854799369654853    
  0.34825678381359443    0.385834467404208    0.3948879841595762    0.3858555330246491    0.3482275725982312    
  0.4013196148990603    0.38586239205445166    0.30312221486689406    0.2088996480208692    0.14493233232480343    
  0.11565864746940765    0.11565315599784591    0.14493925410708816    0.2088870319378158    0.3031683084040796    
  0.3858344924554275    0.4013016572642925    0.37478468557201294    0.3747993854266291    0.4013196148990603    
  0.27196271136156136    0.3747476962856996    0.394948877310975    0.30312228876264685    0.20240609520404573    
  0.1434278137755474    0.12547393967860215    0.1434284877123346    0.20240170134698174    0.30313861089478616    
  0.3948879671328701    0.37478462848715505    0.27198578430285164    0.22239925197718258    0.27196271136156136    
  0.11655112194882294    0.2224484533655343    0.37474765982224517    0.3858624494944863    0.27853050071762775    
  0.18524890554392978    0.14166221899305045    0.14166246290667694    0.18525001144272574    0.27852875413689526    
  0.38585559626545074    0.374799360275953    0.22239924623446228    0.11656574975019605    0.11655112194882294    
  0.06975918414596345    0.11655113733354337    0.271962798179733    0.4013197063915917    0.3482275772946092    
  0.23492005391509196    0.16295721294701768    0.14091088133129295    0.1629572126233414    0.23492001295460505    
  0.3482275970978354    0.40131962690318546    0.2719627443332892    0.11655113090590662    0.06975918414596345    
  0.12732232514524378    0.18044823416719455    0.32238674389383837    0.40290999496112295    0.32861095559229114    
  0.21972999862288248    0.1532748963995752    0.13299113944178423    0.15327488365465858    0.2197299756433371    
  0.32861100325366904    0.4029098966050722    0.32238671976393807    0.1804482195524752    0.12732232514524378    
  0.18044819654850622    0.180431106261149    0.2813720984886611    0.39342851334589307    0.3695522853510333    
  0.26056388802574226    0.17380183798318805    0.13366501088520333    0.13366862577399674    0.17379616310851081    
  0.2605709963535745    0.36954985303500654    0.39339596220009054    0.2813998036436159    0.18044819654850622    
  0.3223866779887951    0.28137210544141655    0.32243690102459266    0.39340886646637074    0.3811069514856568    
  0.2839593722179225    0.18961904281747108    0.13532138301009097    0.1187499884306668    0.13532191240434094    
  0.18962112727200872    0.2839501698756021    0.3811482888992018    0.39339594681472906    0.3223866779887951    
  0.4029099009764541    0.39342862973621534    0.3934088462142778    0.4028766281585685    0.36953602609727004    
  0.28398561199402844    0.19560402895469903    0.13678529875826873    0.10979148453933851    0.10979525766061848    
  0.1367798251457266    0.19561345681025005    0.28395020389340403    0.369549899585707    0.4029099009764541    
  0.32861089006125144    0.3695523116028053    0.38110690152919174    0.36953605707228315    0.3286528986544606    
  0.26057519996814044    0.189596638461079    0.1367826737840457    0.10683872812290678    0.09737515588703193    
  0.10683889557417571    0.13677979890769804    0.18962117368817702    0.26057097147444497    0.32861089006125144    
  0.21972995638117127    0.260563929860168    0.28395934386125693    0.2839856686134845    0.26057520174870347    
  0.21968913634875048    0.17379938874873063    0.13533943899188025    0.10979455950537421    0.09737259953241692    
  0.09737518195315069    0.10979525442997377    0.13532190106559588    0.17379617703899763    0.21972995638117127    
  0.1532748650893802    0.17380183584628991    0.189619037449944    0.19560401425509422    0.18959662063632057    
  0.17379935956256412    0.15330466416091665    0.13366636812038785    0.11873271656562738    0.1097945479475663    
  0.10683874866104483    0.10979146523514437    0.1187499888046256    0.13366865255824376    0.1532748650893802    
  0.13299114776467516    0.13366501997153588    0.13532139311416072    0.13678531629385077    0.13678265136528572    
  0.13533946097013885    0.13366636299469067    0.13296502756326367    0.1336663639036166    0.13533944556565636    
  0.1367826772942369    0.13678529978988102    0.13532139342329658    0.13366500065207534    0.13299114776467516    
  0.15327488008886755    0.13366865992696478    0.11874996607001899    0.10979149028190577    0.10683873391345165    
  0.10979454587609486    0.11873271088649122    0.13366637668758116    0.15330466481888433    0.17379940799704277    
  0.18959663898597923    0.1956039913333426    0.18961906874239923    0.1738018359989724    0.15327488008886755    
  0.2197299803976541    0.1737961715753246    0.13532190274818554    0.10979525503161937    0.09737515588024301    
  0.09737259710883492    0.10979455347137228    0.13533943409642263    0.17379938291905234    0.2196891699078175    
  0.26057523445874725    0.28398560457318384    0.28395935859179783    0.2605639626529107    0.2197299803976541    
  0.3286109653826737    0.2605710559357774    0.18962112937779657    0.13677982404618    0.10683886089379038    
  0.09737516188922768    0.10683875454210003    0.13678264919418398    0.18959663663551793    0.2605752423033568    
  0.32865290190115515    0.3695360508974565    0.38110703921334194    0.36955220218981216    0.3286109653826737    
  0.4029098823770919    0.3695499248474342    0.2839501313266642    0.19561347538899218    0.13677981247305232    
  0.10979526813973454    0.10979148322700796    0.13678531463911367    0.19560402062498763    0.28398565206786613    
  0.3695360586753221    0.40287658457291003    0.3934088958846861    0.3934285075432222    0.4029098823770919    
  0.322386691976109    0.3933959522864585    0.38114825513978023    0.28395017313809884    0.1896211375073795    
  0.13532189910545414    0.11874997870254592    0.13532138174080555    0.18961904441780483    0.28395935926796206    
  0.3811070093429501    0.39340882447425757    0.3224369016343723    0.2813720943956369    0.322386691976109    
  0.18044820757152097    0.28139978644060365    0.39339590993201085    0.3695499355578932    0.26057102234170426    
  0.1737961586605495    0.1336686533605975    0.13366500286849514    0.17380183449584355    0.2605639093746792    
  0.36955227920348516    0.39342848919173173    0.28137212918896204    0.18043111832147274    0.18044820757152097    
  0.12732232514524378    0.18044823416719455    0.32238674389383837    0.40290999496112295    0.32861095559229114    
  0.21972999862288248    0.1532748963995752    0.13299113944178423    0.15327488365465858    0.2197299756433371    
  0.32861100325366904    0.4029098966050722    0.32238671976393807    0.1804482195524752    0.12732232514524378    
  0.31028808088897064    0.3456284557546228    0.3994750831387311    0.37215806584546157    0.2726898834240886    
  0.18112661746155223    0.1289028747704903    0.11294722075580076    0.12890286265189185    0.18112659193876363    
  0.2726899066505603    0.372158028691379    0.3994750164969165    0.34562838981565924    0.31028808088897064    
  0.3456283731875766    0.34559656397840943    0.3896424219835301    0.39373244186429524    0.3143918088278965    
  0.21408498004751525    0.1450436718086156    0.11352506015032332    0.11352882168289816    0.14503863522981839    
  0.21408918161681714    0.31438906294691976    0.3937242431916985    0.38964449682238894    0.3456283731875766    
  0.3994749727768963    0.38964246876230124    0.3995132030513172    0.39372050452674684    0.32873964059469407    
  0.2336352108133806    0.15755284765763417    0.11493790779460139    0.10180750555520902    0.11493830775292231    
  0.15755510909507253    0.23363222565606706    0.32875107738455145    0.3937242755209179    0.3994749727768963    
  0.3721580577747499    0.3937325020576407    0.3937204941615675    0.372137014076818    0.31438719695402134    
  0.2336441938717832    0.1622957872283426    0.11616697581254244    0.09481501784197519    0.09481636703031648    
  0.11616362958198459    0.16229903130585965    0.23363225442307026    0.3143891035979688    0.3721580577747499    
  0.2726898446512471    0.31439185735548625    0.3287395751861571    0.3143871836307791    0.2727127666177895    
  0.2140873495905786    0.15754641234757705    0.11616476982925522    0.09253257540088776    0.08499922530950701    
  0.09253379700546252    0.1161636072241383    0.15755512025834445    0.2140891856928347    0.2726898446512471    
  0.1811265690876571    0.21408501711009145    0.23363521754616504    0.23364421973022484    0.21408733316697787    
  0.18110728259359413    0.14504282450187841    0.11494398923339372    0.0948160857816825    0.0849993345434269    
  0.08499925322264405    0.09481635812372476    0.11493832757113853    0.14503862284601207    0.1811265690876571    
  0.128902850661101    0.1450436840489421    0.1575528590004744    0.16229578453422952    0.15754640687207147    
  0.14504277972875787    0.12891638390705631    0.11352611365752405    0.10180203192946234    0.09481607533878521    
  0.09253257782066968    0.09481499223523134    0.1018075083781011    0.11352882565664126    0.128902850661101    
  0.11294723263095359    0.11352507864301797    0.11493791022414741    0.11616701631484327    0.11616475081811624    
  0.11494400146530641    0.11352611123114133    0.11293584144693561    0.1135261096310973    0.11494399040268238    
  0.11616479093750415    0.11616698357710994    0.11493790340839931    0.11352505478862093    0.11294723263095359    
  0.12890286936263148    0.11352884237196156    0.1018074929977206    0.09481502358355388    0.0925325642506833    
  0.09481607574660957    0.10180203280646395    0.11352612073710489    0.1289163777302944    0.14504281019460125    
  0.1575464032713938    0.16229574575712513    0.1575528728066008    0.1450436678284563    0.12890286936263148    
  0.1811266213173394    0.14503865740695018    0.11493831284369063    0.0948163715706171    0.08499922618387008    
  0.08499933835800312    0.09481608947321576    0.11494399774815255    0.14504281731857413    0.18110729065555428    
  0.2140873599087349    0.23364417567999798    0.2336351662828398    0.2140850131530318    0.1811266213173394    
  0.27268987241045495    0.2140892299505427    0.1575550789697737    0.11616362666366249    0.09253377142817479    
  0.0849992306609706    0.09253258505466987    0.11616475891583825    0.1575464182613403    0.21408736138995643    
  0.27271277008885414    0.3143872080953099    0.32873971963359666    0.3143918108841711    0.27268987241045495    
  0.37215798668003813    0.3143891692532542    0.23363221007757468    0.16229901915388248    0.1161636076076591    
  0.0948163734354988    0.0948150117045156    0.1161670087198214    0.1622957572927716    0.23364421692017576    
  0.3143872354289395    0.3721369281435984    0.39372049978744805    0.39373240820759375    0.37215798668003813    
  0.39947497558200773    0.3937242879631667    0.3287510603746171    0.23363223170862701    0.15755511392712004    
  0.11493830658231433    0.10180751048059053    0.11493790339579352    0.15755288139693957    0.23363519398815294    
  0.3287396210047636    0.3937204643161634    0.3995132003384799    0.3896423914378177    0.39947497558200773    
  0.34562839062034095    0.3896444821846853    0.39372421982538447    0.31438916425125235    0.21408917777919417    
  0.14503862475081383    0.11352883707037095    0.1135250667514453    0.145043667331015    0.2140849878425271    
  0.31439185463712854    0.3937323984228665    0.389642412707301    0.34559656104162945    0.34562839062034095    
  0.31028808088897064    0.3456284557546228    0.3994750831387311    0.37215806584546157    0.2726898834240886    
  0.18112661746155223    0.1289028747704903    0.11294722075580076    0.12890286265189185    0.18112659193876363    
  0.2726899066505603    0.372158028691379    0.3994750164969165    0.34562838981565924    0.31028808088897064    
  0.4127326962221155    0.40428655289978266    0.36465025835723514    0.2864817082363994    0.2000573874035377    
  0.1357947440702713    0.10019387794744399    0.08915667243402303    0.10019387270525802    0.13579470784451939    
  0.20005743551274982    0.2864816281230274    0.3646502362014854    0.4042865177921613    0.4127326962221155    
  0.40428649228343044    0.4042795981741238    0.3795017745959178    0.31728225194359233    0.23244206533900524    
  0.1585094222729745    0.11130960731398754    0.08964834596134609    0.08964887623994343    0.11130902400609469    
  0.15850908441454623    0.23244267068125635    0.3172824152965935    0.37949881123985485    0.40428649228343044    
  0.36465020320451463    0.3795018185586367    0.3646552667181775    0.31727858709657153    0.24466779504555855    
  0.1723189795805056    0.11991786639984742    0.09073293365754782    0.0815990549983762    0.09073291004862698    
  0.11991859226060742    0.1723194892572228    0.24466574170085995    0.3172824639187706    0.36465020320451463    
  0.28648166728007884    0.31728232459233563    0.31727856092045703    0.28648296953483615    0.23244105957819636    
  0.17232104827843123    0.12315746469270841    0.0915839190513337    0.07675710251018583    0.07675810713775016    
  0.09158237746123035    0.12315831147041865    0.17231950609345523    0.2324426799051431    0.28648166728007884    
  0.20005737895551018    0.23244213660521945    0.24466775258513465    0.2324410557409433    0.20005957045062586    
  0.1585081469548732    0.119918060158205    0.09158229509737972    0.07516984048183495    0.06988466662735349    
  0.07517026075875155    0.0915823562468962    0.11991860206332387    0.15850907414291923    0.20005737895551018    
  0.13579468143365744    0.1585094848570184    0.17231898017184413    0.1723210615204255    0.15850812697714958    
  0.13579461212956792    0.11130898175582352    0.09073418788843877    0.07675737129060721    0.06988559639140204    
  0.06988467580826063    0.07675809879721349    0.09073291278501734    0.11130904675340594    0.13579468143365744    
  0.10019386318683406    0.11130961844271597    0.1199178728613851    0.1231574571351785    0.11991804876670671    
  0.11130896631258813    0.10019473420610409    0.08964815930469908    0.08159854976726759    0.0767573666050642    
  0.07516985478211334    0.07675708656588397    0.08159905830293374    0.08964888956148545    0.10019386318683406    
  0.08915667193593838    0.08964835292277125    0.0907329438784576    0.09158392291451087    0.09158228032162585    
  0.0907341978077428    0.08964815353976838    0.08915673883675801    0.08964815182921981    0.0907341884497212    
  0.09158230729890537    0.09158390793321884    0.0907329461945513    0.08964833322412671    0.08915667193593838    
  0.1001938723156548    0.08964889941651046    0.0815990464266986    0.07675711133537381    0.07516984236475241    
  0.07675736739463605    0.08159854164182884    0.0896481630726676    0.10019472526132854    0.11130899239141556    
  0.11991804249388875    0.12315742176391996    0.11991786038216773    0.11130960863733637    0.1001938723156548    
  0.1357947058826452    0.11130905874774376    0.0907329143270628    0.07675810619860292    0.06988465862624668    
  0.0698855897426119    0.07675737512183219    0.09073418895485458    0.11130899019640411    0.1357946182821037    
  0.1585081432066616    0.17232102869803909    0.17231899478324317    0.15850945773175687    0.1357947058826452    
  0.2000574121317606    0.15850914410929562    0.11991856453810568    0.0915823772770255    0.07517024046848306    
  0.06988466714825928    0.07516987229318405    0.09158228737303552    0.11991805369270156    0.15850814432181068    
  0.20005959958620734    0.23244105925604502    0.2446678245814645    0.23244207281346277    0.2000574121317606    
  0.28648163511462893    0.23244272108586447    0.17231945252649716    0.12315830990280772    0.09158235837056265    
  0.07675811124711762    0.07675710536989934    0.09158394096490372    0.1231574233851653    0.17232103444171634    
  0.23244107303174388    0.28648290996271214    0.31727855435779445    0.31728228330371616    0.28648163511462893    
  0.36465018926330006    0.3172825184166524    0.24466571024169226    0.17231949859322795    0.11991858062079795    
  0.09073290227911238    0.08159905016540579    0.09073294099670028    0.11991785585014908    0.17231899537247958    
  0.24466778361163546    0.31727853531871414    0.36465525480465566    0.37950175507177086    0.36465018926330006    
  0.4042864971316904    0.37949880034315303    0.31728243450430993    0.23244275004320264    0.15850909034696    
  0.11130902885761358    0.0896489006251509    0.08964834300636033    0.1113096080368673    0.1585094412269379    
  0.23244208902006483    0.31728225015530653    0.37950175672653363    0.40427952962896524    0.4042864971316904    
  0.4127326962221155    0.40428655289978266    0.36465025835723514    0.2864817082363994    0.2000573874035377    
  0.1357947440702713    0.10019387794744399    0.08915667243402303    0.10019387270525802    0.13579470784451939    
  0.20005743551274982    0.2864816281230274    0.3646502362014854    0.4042865177921613    0.4127326962221155    
  0.3216088054086463    0.30390519352596546    0.25652412301987887    0.19524045774399498    0.13898406824489445    
  0.09892304102059897    0.07641881867822242    0.06929650650368033    0.07641880605698691    0.09892303389925686    
  0.13898410547421453    0.19524043577554379    0.2565240870047307    0.30390513084687004    0.3216088054086463    
  0.303905122745801    0.30390371450692993    0.2713973397495501    0.21731000052022928    0.15948382305984427    
  0.11309301689233633    0.08351632137381505    0.06963249274232908    0.06963412838311048    0.083514928435958    
  0.11309369143611601    0.15948388703984367    0.21730948035253259    0.27139670169853847    0.303905122745801    
  0.2565240490293504    0.2713973794321059    0.2565247546888211    0.21730836731173664    0.16736240065954533    
  0.12168633155996515    0.08894175547606027    0.07035481887650791    0.06442551122900066    0.07035419368553998    
  0.08894289449202546    0.12168539120184359    0.16736283828895407    0.21730948891066357    0.2565240490293504    
  0.195240469949972    0.21731009209591387    0.21730833703711108    0.19524249954456774    0.15948339504533843    
  0.12168610172789934    0.09095759692390012    0.07089366064303466    0.06130276844483687    0.06130368379804712    
  0.07089296870777574    0.09095797353486539    0.12168539209867886    0.15948391025922    0.195240469949972    
  0.13898405548152123    0.15948386810559687    0.16736238515576007    0.15948341264214386    0.13898322201218438    
  0.1130938317966037    0.08894195342481202    0.07089333767658895    0.060289290188102466    0.056853688878860456    
  0.060289370998888904    0.07089294783419843    0.08894291210807183    0.11309369708702784    0.13898405548152123    
  0.09892299846297126    0.11309304906607745    0.12168631509620878    0.12168613928272952    0.11309385022518165    
  0.09892321046819508    0.08351550727915259    0.07035490729774516    0.0613028649862535    0.0568543963626906    
  0.05685369982998205    0.061303675023299795    0.07035418562047485    0.08351494604915922    0.09892299846297126    
  0.07641879234732754    0.08351631874789732    0.08894173488014788    0.0909575911405069    0.08894192848670705    
  0.08351548731032822    0.07641864462043833    0.06963311886657055    0.06442559292806055    0.06130286308273254    
  0.06028929779383886    0.061302747277829306    0.06442550446621428    0.06963414664528883    0.07641879234732754    
  0.06929650921266799    0.06963250876796201    0.07035482718760872    0.07089368270358885    0.07089331821928627    
  0.07035491999530347    0.06963312182911856    0.06929702290302757    0.06963311244850307    0.07035491745822216    
  0.07089333887148369    0.07089366676542262    0.07035481925584029    0.06963248273032906    0.06929650921266799    
  0.07641880107134073    0.0696341548544023    0.06442549908966372    0.06130276704578951    0.06028929484064859    
  0.06130286331400678    0.06442559137361477    0.06963311329168191    0.07641863684489136    0.08351551319907953    
  0.0889419442702545    0.09095755779411009    0.0889417584172374    0.083516317195162    0.07641880107134073    
  0.09892302912321026    0.08351495134811503    0.07035419340420457    0.061303676369623174    0.0568536920740717    
  0.05685438570787163    0.06130287973240817    0.07035491211678696    0.08351551121551075    0.09892321984175902    
  0.1130938488399162    0.121686094967782    0.12168630800214478    0.11309305763961743    0.09892302912321026    
  0.13898409428755665    0.11309372927004127    0.08894288839496947    0.07089296441512699    0.060289349856746485    
  0.056853684635618476    0.0602893197342526    0.07089332992471464    0.08894194509447152    0.11309385829010647    
  0.13898321905176814    0.15948339339613887    0.1673624474258821    0.15948380270239512    0.13898409428755665    
  0.1952404117114577    0.15948395307145752    0.1216853737606906    0.09095797209868513    0.07089295346120737    
  0.061303680001805014    0.061302764228590094    0.07089367800138535    0.09095758323053944    0.12168611765575195    
  0.15948339966448027    0.19524243725656054    0.2173083717860736    0.2173100331794063    0.1952404117114577    
  0.2565240892808958    0.21730949546843054    0.16736282164532298    0.12168537829252997    0.08894289915867729    
  0.07035418078675562    0.06442551007501564    0.07035482641453175    0.08894176494449717    0.12168634596871104    
  0.16736243042280477    0.21730832929936544    0.2565247381213897    0.27139731978552484    0.2565240892808958    
  0.3039051357619978    0.2713966622061677    0.21730945038819205    0.1594839339496655    0.11309370425456208    
  0.08351492880970302    0.06963414638673154    0.06963249547280514    0.08351630646979073    0.11309304215701972    
  0.15948384608742178    0.21730998544669092    0.27139737216930515    0.3039037120488784    0.3039051357619978    
  0.3216088054086463    0.30390519352596546    0.25652412301987887    0.19524045774399498    0.13898406824489445    
  0.09892304102059897    0.07641881867822242    0.06929650650368033    0.07641880605698691    0.09892303389925686    
  0.13898410547421453    0.19524043577554379    0.2565240870047307    0.30390513084687004    0.3216088054086463    
  0.22218630321205193    0.2099629394916065    0.17816704303105832    0.13858715791338833    0.10269674065362872    
  0.07667545896975077    0.06178063105095931    0.05703427944915963    0.061780616568753326    0.07667543455441579    
  0.10269675405217395    0.13858713199585856    0.17816702519687777    0.2099628728219137    0.22218630321205193    
  0.20996288741887004    0.20996346987349299    0.18798264715360108    0.15261407032633184    0.11574349070538013    
  0.08594316507363169    0.06648967945384329    0.057230872063941916    0.0572300951040171    0.06649038435789278    
  0.0859429120351859    0.11574360997817283    0.1526136899922322    0.18798295829727332    0.20996288741887004    
  0.17816699103878678    0.18798266456285453    0.17816702892244649    0.15261348461352128    0.12067341131113506    
  0.09149248835356719    0.07010363984287239    0.05768338831917488    0.053682216804940765    0.057683638914548606    
  0.07010289084146952    0.09149278168221181    0.12067352846528712    0.15261369754388937    0.17816699103878678    
  0.13858715904671956    0.15261413654760675    0.15261347599126496    0.13858772379255965    0.11574345336810903    
  0.09149328003587517    0.07145073080501771    0.05804822297593914    0.05153754460833118    0.05153759896689117    
  0.05804829290314446    0.0714512594910796    0.09149279343540763    0.11574365838086172    0.13858715904671956    
  0.10269673149861025    0.11574354281552783    0.12067341081705671    0.11574344213967246    0.10269666679840936    
  0.08594268738873391    0.070103266180388    0.058048239505121724    0.050838827242862386    0.048484607950088694    
  0.05083856209011126    0.0580482788649562    0.07010290517830708    0.0859429197346703    0.10269673149861025    
  0.0766754164184041    0.08594320151555139    0.09149249817107989    0.09149332475955144    0.08594266967345965    
  0.07667604079635783    0.06648987779790026    0.05768359421308631    0.051537742730126956    0.048484160233007584    
  0.0484846164683985    0.05153758544389003    0.057683645692107884    0.06649039053761732    0.0766754164184041    
  0.061780617506554614    0.06648968569255785    0.07010364130952189    0.07145073693661486    0.07010325507036454    
  0.06648986352414295    0.06178041317675637    0.057230735691505864    0.053681824818171034    0.05153773527934908    
  0.05083883614315175    0.05153752348531787    0.053682216615596766    0.05723010818937073    0.061780617506554614    
  0.057034279124733855    0.05723088830763901    0.05768339034654872    0.05804823681775728    0.05804822722831821    
  0.057683602656566704    0.05723073729472106    0.05703407720999282    0.057230742166547076    0.05768359920724328    
  0.05804825277662172    0.05804821937801507    0.05768338123408037    0.057230867537458596    0.057034279124733855    
  0.06178061852699956    0.057230121819687105    0.053682203370022955    0.051537548409970144    0.050838823830056376    
  0.05153773996971248    0.05368182271709642    0.05723074284560073    0.06178040214353459    0.06648987547242655    
  0.07010326500931564    0.07145070615086864    0.0701036442001577    0.06648967372854926    0.06178061852699956    