#     DFTpy    
  CRYSTAL 
    
  PRIMVEC    
  4.620665321668004    1.9331151431073107e-05    -4.846675862068966e-13    
  -2.3103159195648058    4.001623332242337    -9.482758620689655e-12    
  -7.96976551724138e-13    -1.8464342068965514e-11    7.597091739329777    
  PRIMCOORD    
  4    1    
  Si    1.1502612419436097e-05    2.667755142877242    4.2724055795507025    
  Si    2.3103378994853645    1.3338875204837946    0.47385965378711625    
  Si    1.1502614155390726e-05    2.667755142876141    7.123232029440243    
  Si    2.310337899492863    1.3338875205134308    3.3246862158615587    
  BEGIN_BLOCK_DATAGRID_3D    
  3d_datagrid_density    
  BEGIN_DATAGRID_3D#0    
  21    21    33    
  0.0    0.0    0.0    
  4.620665321668004    1.9331151431073107e-05    -4.846675862068966e-13    
  -2.3103159195648058    4.001623332242337    -9.482758620689655e-12    
  -7.96976551724138e-13    -1.8464342068965514e-11    7.597091739329777    
  0.017529999752095612    0.018228747295395455    0.020674127274726617    0.02587601076595695    0.03577227024164244    
  0.05350326406376226    0.08266353155654098    0.12473020443551638    0.1744103511735184    0.21691175485152642    
  0.23395663666614627    0.216911774356595    0.17441036179722555    0.12473021351412014    0.08266352674172102    
  0.05350326420644747    0.0357722738867519    0.02587600921746888    0.020674124271099388    0.01822874747159597    
  0.017529999752095612    0.018228748059103787    0.01822975858766211    0.01980594318618713    0.023679539694813023    
  0.03144529233956921    0.04595996439474118    0.07117443332257153    0.11053147671328474    0.16269078950678226    
  0.21633117960076598    0.2515674895706383    0.2515720054454666    0.21634828586015814    0.16268247665401894    
  0.11052136399208345    0.0711864966817226    0.045959333057631384    0.031445504009036965    0.023678542971706903    
  0.019807637150473418    0.018228748059103787    0.02067412483397888    0.019805941504563832    0.020674364379414167    
  0.02367926573558513    0.030254591210862408    0.04330374092323025    0.06750059467829385    0.10837267022019771    
  0.1682834346666627    0.2388859468564972    0.2982016166018061    0.32153067523954065    0.2981781482193621    
  0.23888832788913208    0.16831153127351897    0.10837148841874071    0.06749332080884518    0.043305572233736433    
  0.030256929043361594    0.023678542490430377    0.02067412483397888    0.0258760133940919    0.023679536277390258    
  0.023679265556348722    0.02587505348336363    0.031446285231603456    0.04330621241265679    0.06675185897055153    
  0.1096486671580609    0.17865772563743412    0.26824572816889924    0.35225772145059664    0.40012932132356155    
  0.400162323050762    0.3522623098962619    0.26822867340562756    0.17865810421703063    0.10965454390604577    
  0.0667606441094546    0.04330558172406135    0.03144550376584402    0.0258760133940919    0.03577226427377901    
  0.03144529103412299    0.030254594406900318    0.03144628169087662    0.03577009503040314    0.0459592399144797    
  0.06749844925572027    0.1096534876951172    0.18333148563759794    0.287029545041978    0.3862856237418293    
  0.43756740541282035    0.447543165685806    0.4375819221660901    0.38632369615529577    0.2870259668887748    
  0.18334128082299253    0.10965453716830634    0.06749332459184425    0.04595934615055486    0.03577226427377901    
  0.053503267811812416    0.0459599659626537    0.04330374224921343    0.043306216933823735    0.04595923944299855    
  0.0535067304900138    0.07117360797101017    0.1083762126520441    0.17866023242182905    0.28702091703199567    
  0.39528387162275336    0.432121324058156    0.41045906724625125    0.4104440945538234    0.43206582075196437    
  0.39531031176224596    0.28702596495011123    0.17865809932047058    0.10837148869065025    0.07118649147900276    
  0.053503267811812416    0.08266351319716929    0.07117441301986462    0.0675005883316789    0.06675184497999263    
  0.06749843564119894    0.07117360396951283    0.08267728967758124    0.11051809689366282    0.1683036982286423    
  0.26822507439988    0.3863280884438869    0.432101717824757    0.37857742072390094    0.3389879309942221    
  0.37862684059200025    0.43206581820577106    0.38632364185005413    0.26822867827400565    0.16831154656813757    
  0.11052137302987414    0.08266351319716929    0.12473021071757895    0.1105314640207923    0.10837266152921939    
  0.10964865192244953    0.10965346490649695    0.10837619528871081    0.11051809783816137    0.12473702750632669    
  0.16269260580103254    0.2388979990290701    0.35225580079137647    0.4375783951480695    0.4104504164397246    
  0.3390111311974276    0.3389878661217013    0.4104440551268784    0.4375819076227173    0.35226226213659895    
  0.23888830544038092    0.16268249682144173    0.12473021071757895    0.17441033886723256    0.1626907921086641    
  0.1682834471392142    0.17865770426027866    0.1833314841449288    0.17866019704389446    0.16830367340929378    
  0.16269258678202123    0.17440460822927234    0.2163564544026393    0.2981887904431659    0.40017364726277377    
  0.4475451094328693    0.41045036660184203    0.3785774198634184    0.4104590468556376    0.4475431552345814    
  0.4001622467687431    0.2981781642107812    0.21634827843176738    0.17441033886723256    0.2169117466263807    
  0.21633118822271624    0.2388859341095548    0.268245690766606    0.28702947402522416    0.28702086710507785    
  0.26822504234052563    0.23889796091468676    0.21635643665957846    0.21690770650906074    0.25158424278197433    
  0.32152194530285333    0.4001736487110288    0.4375784014211245    0.4321017453600846    0.4321213859193681    
  0.43756740715541603    0.40012927328589676    0.32153066876655206    0.2515720370482188    0.2169117466263807    
  0.23395665671284463    0.2515674804493825    0.2982015841652646    0.3522577205000814    0.3862856017037801    
  0.3952838681498036    0.38632804158353967    0.35225572946592076    0.2981887684736312    0.25158419099138046    
  0.2339707828516838    0.2515842515966977    0.2981888228536517    0.3522557866102454    0.38632808863287255    
  0.3952839014369025    0.3862856283154446    0.3522577360710929    0.2982015965730121    0.2515674995373584    
  0.23395665671284463    0.21691176253302782    0.25157201312626565    0.32153065424878435    0.40012926155245326    
  0.4375673395313737    0.4321213187384516    0.4321017851785392    0.43757834656569394    0.40017360607131214    
  0.32152193461620443    0.251584234769934    0.2169076827517141    0.2163564340848126    0.23889796170431468    
  0.2682250706390358    0.287020940183759    0.2870294849125826    0.26824572604119207    0.2388859193540746    
  0.21633120286355698    0.21691176253302782    0.17441033532797184    0.21634827579887295    0.2981781001924488    
  0.40016225425086865    0.447543143659547    0.4104590503639055    0.3785774790864692    0.41045041822557427    
  0.4475450252629174    0.400173607634009    0.2981887766316704    0.21635644381917102    0.17440463612074372    
  0.1626926223323583    0.16830368422348765    0.17866023213341276    0.1833315014215499    0.17865771854143456    
  0.16828346571114347    0.1626907937764554    0.17441033532797184    0.12473021416729464    0.1626824786629899    
  0.23888828334042017    0.35226228144915633    0.43758190508850114    0.4104440631882987    0.3389879540212165    
  0.33901120287423003    0.4104504029783562    0.4375783936468687    0.3522557721392611    0.2388979394581781    
  0.16269259282598042    0.12473703958413729    0.11051810593897912    0.10837621644790683    0.10965346649720921    
  0.10964864754479567    0.10837266637849972    0.11053146753835866    0.12473021416729464    0.08266351789739677    
  0.1105213677734333    0.1683115245571479    0.2682286438128841    0.38632359987723147    0.43206582081550776    
  0.3786269166890638    0.3389879652288021    0.3785774487753698    0.4321017787151116    0.38632808802482854    
  0.2682250469688585    0.16830369078676344    0.1105181022566105    0.08267728905071763    0.07117361095870227    
  0.06749844588541239    0.06675183744929407    0.06750058108636194    0.07117443412733496    0.08266351789739677    
  0.05350327296878098    0.0711864900714609    0.10837149023446284    0.1786580843434393    0.2870259657164241    
  0.3953103028708973    0.43206582301631025    0.41044408731716014    0.4104590625010658    0.43212133492796195    
  0.39528387736351794    0.2870209093165905    0.17866024874200415    0.10837620667880679    0.07117361006044108    
  0.0535067432226234    0.04595923685050446    0.043306212009854156    0.04330375673066621    0.04595996153710484    
  0.05350327296878098    0.03577226815537317    0.0459593335083241    0.06749333171901968    0.10965455555618549    
  0.183341259553428    0.2870259651784835    0.3863236533843906    0.43758186195731014    0.4475431681895352    
  0.4375674279978763    0.3862855975989316    0.2870294759686028    0.1833314870233914    0.10965347678063228    
  0.06749844344098051    0.045959248235388626    0.03577009461917335    0.031446274850879884    0.03025458847669912    
  0.031445295487433904    0.03577226815537317    0.02587601386778913    0.03144550324025993    0.04330558497968222    
  0.06676064692818562    0.10965454507461282    0.17865807257806696    0.2682286681869116    0.35226226140513134    
  0.40016230133118585    0.4001293154963993    0.3522577581733243    0.2682456989005109    0.1786577240788438    
  0.10964866526612649    0.06675184579621417    0.0433062295992159    0.03144628087615703    0.02587504439309744    
  0.023679272166268125    0.023679539355276523    0.02587601386778913    0.020674123995332125    0.023678540639993386    
  0.030256918275440057    0.04330557550300442    0.06749333036273891    0.10837147076104288    0.1683115306581524    
  0.23888827834838927    0.2981781230924071    0.321530639569638    0.29820157541931935    0.23888592911907075    
  0.1682834715390547    0.10837266926488974    0.06750058359963541    0.04330374984757568    0.03025459402657322    
  0.023679263879381574    0.020674367181538745    0.019805940619878264    0.020674123995332125    0.01822874574994893    
  0.019807631960313106    0.02367853785013564    0.03144550604873763    0.04595932853915302    0.07118649088922605    
  0.11052137139861722    0.16268245772903636    0.21634824685145457    0.25157202825715186    0.2515674771763169    
  0.21633117148833964    0.16269078841226103    0.1105314682517849    0.07117442382497731    0.04595996531862084    
  0.03144529121846637    0.023679534624058276    0.019805942030606597    0.01822976415355964    0.01822874574994893    
  0.017529999752095612    0.018228747295395455    0.020674127274726617    0.02587601076595695    0.03577227024164244    
  0.05350326406376226    0.08266353155654098    0.12473020443551638    0.1744103511735184    0.21691175485152642    
  0.23395663666614627    0.216911774356595    0.17441036179722555    0.12473021351412014    0.08266352674172102    
  0.05350326420644747    0.0357722738867519    0.02587600921746888    0.020674124271099388    0.01822874747159597    
  0.017529999752095612    0.017428540730893356    0.018106717121254255    0.02046712785754739    0.02547705642419372    
  0.034983157041301144    0.05195540759599501    0.07972136288903238    0.11958130098162781    0.16642046375095185    
  0.20631099818191867    0.2222781085074098    0.20631499454909696    0.1663949314400222    0.11958314096096598    
  0.07974314280158991    0.05195147592012998    0.0349804842545053    0.025477224790586693    0.020467468433275564    
  0.018107102301707607    0.017428540730893356    0.018107103991844165    0.018106791554023113    0.01978906040219854    
  0.023894693406816034    0.03214924098081261    0.04767199551778706    0.07479890348640512    0.11724018163890478    
  0.17348178142923285    0.2311747910862111    0.26883955579042584    0.26884330331266904    0.23121381736313554    
  0.17348344783578182    0.11721377187734801    0.0748069894334304    0.0476771446139633    0.03214915079230515    
  0.023895031310793242    0.0197889925469967    0.018107103991844165    0.020467469002336067    0.019474426328826518    
  0.020467752790407138    0.02389451785389255    0.03140851259288595    0.046443016618185104    0.07465019356188761    
  0.12284972418977412    0.1936540215902068    0.2759287803546775    0.34295722898020636    0.3685131279241163    
  0.3429003499070813    0.2759304458456971    0.1936980360336727    0.12284837223314996    0.07464420402803668    
  0.04644574723283113    0.031409126295277756    0.023895033342166132    0.020467469002336067    0.0254772288698577    
  0.022843316191797393    0.022843506215448364    0.02547615045449152    0.03214951950140161    0.04644438487211439    
  0.0750658194754747    0.12818366996617753    0.2137484035065059    0.3203851875855238    0.40897960114462784    
  0.4500865440501178    0.4501618777476671    0.40899218696785306    0.3203385692969388    0.2137592092043128    
  0.12819891344181789    0.07506725404654149    0.046445753971951394    0.03214915027529347    0.0254772288698577    
  0.034980482644844484    0.029551780186818907    0.028035966036237963    0.029552296685948058    0.03497951188972159    
  0.04767699783967747    0.07464252586865029    0.12819626243298834    0.22183610541595933    0.34499748743405884    
  0.4324696408071974    0.43727134279022506    0.42111153137667423    0.43729324340465175    0.43253659540911954    
  0.3449989979874169    0.2218281954256029    0.12819889091772096    0.07464421043159483    0.04767715389772231    
  0.034980482644844484    0.05195147803638886    0.041924361845446984    0.03821115146764009    0.038216831240907134    
  0.041918524459746656    0.0519580571277782    0.07479640324674557    0.12285729653907308    0.21374540733499608    
  0.34498866373888903    0.43194638423759996    0.37877105919210124    0.28714444177869103    0.2871126474104508    
  0.37867882649186274    0.4319922963025332    0.34499900376088743    0.21375919610580044    0.12284837260865826    
  0.07480698539273949    0.05195147803638886    0.07974313126629078    0.06310529431575598    0.05672291069903586    
  0.05507477673801062    0.05672316045183398    0.06310449278794086    0.07974827956512083    0.11721076551892214    
  0.193699308851191    0.3203264655375913    0.432554003863851    0.3787277901727597    0.22444409626311604    
  0.1609586835647837    0.22451633271744684    0.37867882976893935    0.4325365568458388    0.32033856719947135    
  0.19369806388362773    0.11721378026012196    0.07974313126629078    0.11958314269173922    0.09577089893901002    
  0.08729531881537511    0.08523227446126011    0.08523223287265266    0.08729854202068353    0.09576724655460016    
  0.11958772917805258    0.1734828598938044    0.27594685875300184    0.40897940840402536    0.4372735313959474    
  0.28714064823039065    0.1609833780835703    0.16095867652915938    0.287112639787165    0.4372932532984641    
  0.40899218356528383    0.2759304254432739    0.1734834603238849    0.11958314269173922    0.1663949222520523    
  0.13856857748826118    0.13141509719732    0.13292788847587236    0.1343889006269669    0.13292971293536424    
  0.13141929536143715    0.13857302588523385    0.16639759959310602    0.23122011048643318    0.3429104628655983    
  0.4501842287790557    0.4210890536668627    0.28714062824241016    0.22444411604618855    0.2871444222782772    
  0.4211115581646058    0.4501617992596627    0.34290035121302376    0.23121379862414426    0.1663949222520523    
  0.2063149829058965    0.18218893662279717    0.1832869739039301    0.19570086067441064    0.20592811027415148    
  0.20592021050454282    0.1957085151944058    0.18328467604475063    0.1822077043001264    0.20630509908142783    
  0.26886560582956437    0.368478728023534    0.4501842175958821    0.4372735227801044    0.3787277966509885    
  0.3787711031022814    0.4372713824945362    0.45008649856988847    0.36851312517226037    0.26884333872481503    
  0.2063149829058965    0.22227811689405655    0.21078215657919747    0.22737146242041342    0.25858183627796655    
  0.2860319270692151    0.2962190968425847    0.2860395490778421    0.2585857003907504    0.22737354353456515    
  0.210792602952866    0.22229189396630986    0.26886563872268093    0.3429104878960297    0.4089794105444831    
  0.432554035162304    0.431946406978576    0.4324696128584882    0.40897960103847875    0.3429572019154367    
  0.2688395468268989    0.22227811689405655    0.20631098245453552    0.21078744847305825    0.24498592202744576    
  0.2982578747299405    0.34667059056997696    0.37074692284067096    0.37075042524455176    0.34667777062683075    
  0.29827051119680337    0.24498983935236474    0.21079260638765943    0.2063050725201675    0.23122009151973    
  0.2759468260809957    0.3203264788135185    0.34498867646129533    0.34499742583411686    0.32038518566258983    
  0.2759287642513546    0.2311747706631423    0.20631098245453552    0.16642046355898396    0.18219444293633547    
  0.22736586685393587    0.2982623447173397    0.3680692679022042    0.4049138924007169    0.4124799389631239    
  0.4049125797990545    0.3680752716995974    0.29827051045117037    0.22737356482525567    0.18220771509404066    
  0.16639762542013586    0.1734828781168938    0.1936992792498866    0.21374538899311837    0.22183611516920032    
  0.2137483954400992    0.19365403647436974    0.17348179294481275    0.16642046355898396    0.11958131058625603    
  0.13854613591203366    0.183284463635218    0.25858829843594927    0.34667467101702404    0.404911930936615    
  0.4198941722769763    0.4198929677455782    0.40491259315256545    0.3466778085085228    0.2585857237741399    
  0.1832846637462727    0.13857301906192446    0.11958773800487811    0.11721076598296225    0.12285730083751828    
  0.12819624212536695    0.12818364291982265    0.12284972757716996    0.11724017278356118    0.11958131058625603    
  0.07972134673289225    0.09576980548945267    0.13144162206331722    0.1957031223703127    0.2860395143606227    
  0.37073965339250725    0.4124862369494235    0.4198941949388384    0.4124799332594018    0.3707504452403026    
  0.28603956167532524    0.19570852237230968    0.13141929983178313    0.09576724158985733    0.07974827650716937    
  0.07479640925202241    0.07464251639411842    0.07506579232294695    0.07465018633009114    0.07479890198352986    
  0.07972134673289225    0.05195541039446479    0.06312511372077502    0.0872963427978065    0.13290865988900138    
  0.20592812873445673    0.2962222294254814    0.37073967779208555    0.4049119653329529    0.4049138990915297    
  0.3707469356269454    0.29621910414781094    0.20592023502737053    0.1329297280728387    0.08729856120233838    
  0.06310449821440768    0.051958063572339785    0.047676995727714964    0.04644438335030617    0.04644302589902768    
  0.047671988064142246    0.05195541039446479    0.03498315773806447    0.041920746513268235    0.05670577318679436    
  0.08523469019938332    0.1344113202870121    0.20592811194314214    0.28603954163041684    0.3466746879779433    
  0.3680692896706379    0.3466706609563693    0.2860319446111215    0.20592812158902257    0.13438890004082604    
  0.08523223466273712    0.05672316408918858    0.041918534597185725    0.034979509958702    0.03214951047483914    
  0.031408510349720954    0.03214924878616672    0.03498315773806447    0.025477058366577984    0.02954923331135885    
  0.03821459682003036    0.055092717143985705    0.08523468324978052    0.13290866515695407    0.19570314230482144    
  0.25858825791349704    0.29826232948299447    0.29825788412222065    0.2585818718852026    0.1957008701779925    
  0.13292790074255584    0.08523228537224334    0.055074771565694326    0.03821683436650469    0.02955229974516285    
  0.025476140951758906    0.02389452386772092    0.023894690569942274    0.025477058366577984    0.020467126938229028    
  0.02284287471774901    0.028039600044438298    0.038214593192272786    0.056705765592853834    0.0872963243655872    
  0.13144161662744466    0.18328447807411175    0.22736585556496502    0.24498594979872546    0.2273714355291058    
  0.1832869890342432    0.13141510680747395    0.08729531784852065    0.056722913549524856    0.0382111501568085    
  0.028035965504582514    0.022843502092846052    0.020467752482473116    0.01978905759229923    0.020467126938229028    
  0.018106715609224663    0.01947560022808888    0.022842874451827345    0.0295492349811366    0.04192073985832778    
  0.06312510831846728    0.09576981102241942    0.1385461318056083    0.18219442554544632    0.2107875047787878    
  0.2107821424412106    0.18218891765423723    0.138568593958741    0.09577089894937627    0.06310529848166764    
  0.041924360963548936    0.02955178018081426    0.022843312382416422    0.01947442870642747    0.018106797273923936    
  0.018106715609224663    0.017428540730893356    0.018106717121254255    0.02046712785754739    0.02547705642419372    
  0.034983157041301144    0.05195540759599501    0.07972136288903238    0.11958130098162781    0.16642046375095185    
  0.20631099818191867    0.2222781085074098    0.20631499454909696    0.1663949314400222    0.11958314096096598    
  0.07974314280158991    0.05195147592012998    0.0349804842545053    0.025477224790586693    0.020467468433275564    
  0.018107102301707607    0.017428540730893356    0.01714699131788972    0.017758878946323626    0.01987753256624341    
  0.024355762083154497    0.03279563708562145    0.04767929794515364    0.07166142749908275    0.10555635779700216    
  0.14482861593407048    0.17795445539697816    0.19115739811917912    0.17796044892449603    0.14479855672305403    
  0.10555613967943463    0.07168741559453806    0.047676187734489194    0.03279163613816739    0.024356693944782133    
  0.019877418491025912    0.01775931717778835    0.01714699131788972    0.017759318118875187    0.017758443664585625    
  0.019400876296121215    0.023397266717744596    0.031411514702231226    0.046418573591553755    0.07250344623425997    
  0.11301380189749971    0.16616745390897475    0.22008127439040764    0.2548982387755844    0.2549030227663927    
  0.2201247829106004    0.16617418366992057    0.11298517862578182    0.07250905555868473    0.04642697360971311    
  0.0314103304147639    0.023398458421138215    0.019400371875885024    0.017759318118875187    0.019877418949305326    
  0.018860399032978946    0.019877910944671687    0.023397339535507353    0.031116452995778976    0.046547255490355974    
  0.07547193783812847    0.12485583389598208    0.19699488737439183    0.2795533709835969    0.3450856651959884    
  0.3694558025027135    0.34501775509242066    0.27955120789446064    0.19704331904910874    0.12485804125450048    
  0.0754633415926154    0.04655119580707951    0.031116390175267    0.023398458502767335    0.019877418949305326    
  0.024356700583254016    0.021573499259059607    0.02157426778437982    0.024354978162928705    0.03141176078644058    
  0.0465472272473907    0.07692962253625933    0.1334180338996439    0.22396459930690282    0.3337597719683141    
  0.41811471850911575    0.45147451125478005    0.45155911782730696    0.4181389808129899    0.33370887622719175    
  0.22396853700598257    0.1334415395928258    0.07692731211300959    0.04655120322920278    0.03141033104074109    
  0.024356700583254016    0.03279162943501463    0.0269448124340041    0.02530039551293111    0.026945029364937693    
  0.03279077635264879    0.04642667282566455    0.07546181672287224    0.13343476336240984    0.2345031383439972    
  0.3623522664648757    0.43649420100279346    0.41476150254149036    0.3864876914419459    0.4147862793158131    
  0.4365515610105754    0.36237220089278155    0.23448335447011745    0.13344151846050273    0.07546334348780817    
  0.04642698184572212    0.03279162943501463    0.04767619395703539    0.036680357452861995    0.0325281574714373    
  0.03253360722502117    0.036674722165336585    0.0476818567215647    0.07249970619211887    0.12486604463142457    
  0.22395474118967743    0.36234777343447017    0.4315151545220506    0.33616031792111195    0.22448684345139114    
  0.22444803222124868    0.3360832027342499    0.4315481079135531    0.3623722055236325    0.22396852425537167    
  0.12485803660002585    0.07250905185818751    0.04767619395703539    0.0716874178761125    0.05297467755966733    
  0.04539285256701757    0.04332553284301858    0.04539264370403103    0.05297476888125586    0.07168971264513667    
  0.11298238302054474    0.19704574142361578    0.33369556246716187    0.43657723418028277    0.33612239392996524    
  0.1594326446755686    0.09947688402484711    0.15948905799220203    0.3360832306230161    0.4365515184855898    
  0.3337088706117958    0.1970433384340462    0.11298519038044749    0.0716874178761125    0.10555615148885024    
  0.0775591918958351    0.0660356338284658    0.06219858726697536    0.06219917365071023    0.06603698152485905    
  0.0775578718490746    0.10555907532602747    0.1661724462514018    0.27956481236769964    0.418123868094802    
  0.4147579209911495    0.2244888700795915    0.09948379161169071    0.09947687261319389    0.22444802867135769    
  0.4147862900733861    0.4181389074575583    0.27955120000666506    0.1661741891599014    0.10555615148885024    
  0.1447985600412495    0.10910777347820534    0.09504522896591373    0.09120973905793028    0.09061728582954885    
  0.09121136879522754    0.09504566276683782    0.10911257667704502    0.14479923513932097    0.22013283123702101    
  0.34502561416007926    0.4515891288949679    0.38645098965163427    0.22448886501396384    0.15943266984573326    
  0.2244868410749969    0.38648770516494546    0.45155903373959366    0.3450177830712057    0.22012478551909082    
  0.1447985600412495    0.1779604458769447    0.1407461844626403    0.128521401370831    0.12877706345424844    
  0.13172677232105592    0.13171722941372974    0.12878783834774213    0.12851527334321133    0.1407623555411773    
  0.17794972925866298    0.2549252259615409    0.3694119838341136    0.45158914060644706    0.41475789526936735    
  0.33612240723383807    0.33616036512371783    0.4147614904396444    0.451474484099695    0.36945582491596474    
  0.2549030442790816    0.1779604458769447    0.19115739899146558    0.16132570822303244    0.1567234214442502    
  0.16669092290573134    0.1795357288092679    0.185042861938324    0.1795395467119662    0.16669419635180932    
  0.1567253491414699    0.16133272834223472    0.19116904294822715    0.2549252509242574    0.3450256520481025    
  0.4181238726991353    0.43657723795382447    0.4315151755094627    0.436494178651864    0.4181147184584967    
  0.3450856733664564    0.254898263709637    0.19115739899146558    0.1779544439219064    0.16133180405278255    
  0.1679867301356673    0.19119245387030578    0.21923944134104062    0.23767642641893075    0.2376812478254853    
  0.21923931444881561    0.19119877342156352    0.16799174750569654    0.16133276259547397    0.17794971251184233    
  0.22013282548419016    0.27956478697374704    0.3336955655969692    0.3623478191830306    0.3623522329229003    
  0.33375976010120884    0.2795533562232907    0.22008130318254032    0.1779544439219064    0.1448286102907241    
  0.1407498925841364    0.15671840992491096    0.1911939847756966    0.23466480879432292    0.2701275508916763    
  0.28344394832766584    0.2701279053444319    0.23466874345019068    0.191198751978979    0.15672534520496081    
  0.14076235360474695    0.14479924935307653    0.1661724664542719    0.19704571183220823    0.22395473393396653    
  0.2345031438210586    0.22396458439593303    0.19699490487495283    0.16616745846315262    0.1448286102907241    
  0.10555635500776621    0.10908065324785256    0.12851923181053335    0.1666958575533378    0.2192392130020396    
  0.27012445366522053    0.3003994826543025    0.3003990296585332    0.27012791678184905    0.21923931682022668    
  0.16669422688342078    0.1285152710093977    0.10911257339975636    0.10555907733867358    0.11298238459678689    
  0.12486604692838235    0.1334347331146642    0.13341801212454052    0.12485584184356294    0.1130137953191278    
  0.10555635500776621    0.07166141645700932    0.07755851655726095    0.09507002782893001    0.12878098053839895    
  0.17953650043252886    0.23767911947063886    0.28344627413483053    0.3003994725345681    0.28344393100846504    
  0.23768126158398345    0.17953957772381413    0.12878785167387669    0.09504565284030148    0.07755786860919106    
  0.07168971564042176    0.07249970882169028    0.07546180164454383    0.07692960446965909    0.07547192197898032    
  0.07250344389181523    0.07166141645700932    0.04767930744067056    0.05299487715294704    0.06603654144818524    
  0.09118722582338544    0.13172501705165143    0.18504262623111165    0.23767912631975555    0.27012449424291507    
  0.27012757035897755    0.2376764540782154    0.18504287727555904    0.13171723334370755    0.0912113862940431    
  0.0660369896188092    0.0529747728179604    0.04768185766493562    0.04642667126756258    0.04654722876788313    
  0.04654726653700747    0.0464185725461917    0.04767930744067056    0.03279563713509567    0.03667733131027343    
  0.04537398733715629    0.062200073374761584    0.09064044568884513    0.13172501855392726    0.17953653877190123    
  0.21923918382985833    0.23466481939186914    0.21923949167686335    0.17953574067753755    0.13172678127007922    
  0.09061728572599632    0.06219917318104374    0.045392645985403775    0.0366747228471577    0.0327907761245131    
  0.031411751303147516    0.031116448769075315    0.031411522029076454    0.03279563713509567    0.024355765010005043    