#     DFTpy    
  CRYSTAL 
    
  PRIMVEC    
  4.344310344827585    0.0    0.0    
  0.0    4.344310344827585    0.0    
  0.0    0.0    4.344310344827585    
  PRIMCOORD    
  4    1    
  Si    0.0    0.0    0.0    
  Si    0.0    2.1721551724137926    2.1721551724137926    
  Si    2.1721551724137926    0.0    2.1721551724137926    
  Si    2.1721551724137926    2.1721551724137926    0.0    
  BEGIN_BLOCK_DATAGRID_3D    
  3d_datagrid_density    
  BEGIN_DATAGRID_3D#0    
  19    19    19    
  0.0    0.0    0.0    
  4.344310344827585    0.0    0.0    
  0.0    4.344310344827585    0.0    
  0.0    0.0    4.344310344827585    
  0.06479048746550516    0.11750257493261365    0.2883474139785998    0.3927525153656218    0.3056170163324164    
  0.19063869493673605    0.12135977522275973    0.08758398450525136    0.07325173248261876    0.0695261615340995    
  0.07325171807980535    0.08758393274909332    0.12135979821154916    0.1906386561908725    0.3056169767480385    
  0.3927525506275665    0.28834742933421253    0.11750257229319723    0.06479048746550516    0.11750258382961498    
  0.1770864356276391    0.3307628072795575    0.38923181071294577    0.2917763453437342    0.18438264240520816    
  0.12079651396480952    0.08980167416904526    0.0766614299223744    0.07325168951360508    0.07666144900723405    
  0.08980166119924415    0.12079652900204366    0.18438266450153135    0.2917762548927394    0.3892318357925828    
  0.3307627478291338    0.17708641953706578    0.11750258382961498    0.2883473557980526    0.3307627925461067    
  0.3926238517514903    0.35736110246280745    0.2546889996248753    0.16985612555805432    0.12172166768932971    
  0.09889154827649593    0.089801647451463    0.08758391486494968    0.08980164731386231    0.09889150720633919    
  0.12172166751383923    0.16985619099102733    0.254689001566074    0.3573611751996536    0.39262385152197943    
  0.33076273426077546    0.2883473557980526    0.39275251564932956    0.38923185271565935    0.357361183788463    
  0.28561522912414683    0.2092665902383164    0.15728618148659596    0.1309623172579133    0.12172173029449221    
  0.12079656680934749    0.12135977451794738    0.12079655624283725    0.12172163723346652    0.13096235775417142    
  0.15728619632063237    0.20926653461662256    0.28561520197457585    0.35736118176606    0.38923187909652585    
  0.39275251564932956    0.30561698858537206    0.2917763032198866    0.25468899521060406    0.20926657648587926    
  0.17343360937203317    0.15638612375168298    0.15728609581328304    0.16985620148513833    0.18438265799886758    
  0.19063862336674284    0.18438267101254224    0.16985616717099195    0.15728614993491952    0.15638613797921114    
  0.17343355983407854    0.20926654159866567    0.25468896196365665    0.2917762900989947    0.30561698858537206    
  0.19063859527317908    0.18438273650565734    0.16985613528172597    0.15728613755398765    0.1563861843491459    
  0.17343356961724618    0.20926652977899673    0.2546890437628226    0.2917763028947505    0.30561697731724086    
  0.291776309042775    0.2546889989202442    0.2092665459974971    0.17343361156549955    0.15638615870071565    
  0.15728619565849253    0.16985614023437098    0.1843826843155028    0.19063859527317908    0.12135977945804771    
  0.12079655863507131    0.12172170197804118    0.13096230469882947    0.15728620084560724    0.20926662340534266    
  0.28561518482709514    0.3573612268439604    0.38923189319506596    0.3927525029051078    0.38923186905098583    
  0.3573610535170383    0.285615267086311    0.20926657357502035    0.15728615496359227    0.13096235061874065    
  0.12172170261031642    0.12079654028329811    0.12135977945804771    0.08758388516061824    0.08980165650260954    
  0.09889155208937855    0.12172167209072367    0.16985615696212863    0.25468898732874234    0.3573610693832818    
  0.3926239306610398    0.33076278592326724    0.2883473810113302    0.33076278205496595    0.39262389073560855    
  0.3573610955706022    0.2546890066055526    0.16985611042909401    0.12172167463007429    0.0988915138321168    
  0.08980164067820798    0.08758388516061824    0.07325170853369493    0.07666149041302732    0.08980165698320736    
  0.12079652450175765    0.18438270575517188    0.2917762796746688    0.3892317651801959    0.3307627665932461    
  0.17708641257995464    0.11750256706717489    0.17708640090610514    0.3307627255440098    0.38923186892556483    
  0.2917763201099223    0.18438268595838614    0.12079654631369575    0.0898016322923257    0.07666143766482827    
  0.07325170853369493    0.06952618784062851    0.07325171433766689    0.08758392306360663    0.12135977713475524    
  0.1906386801324314    0.3056170337608915    0.39275242445594355    0.28834747757367907    0.11750260799854807    
  0.06479048404438542    0.11750258913428539    0.2883474208967791    0.3927524807117058    0.30561703763433157    
  0.19063867149034944    0.12135978951553325    0.08758391882585158    0.07325171399084772    0.06952618784062851    
  0.07325171647068288    0.07666146622865101    0.08980164067998522    0.1207965550312861    0.18438268621136644    
  0.29177629883766804    0.3892317245147875    0.33076279248651363    0.17708635289258895    0.11750255109727434    
  0.17708640423602337    0.33076274411583717    0.3892318386176785    0.2917763239298452    0.1843826612656308    
  0.12079651617398116    0.08980167545278733    0.07666145552815017    0.07325171647068288    0.08758387952154269    
  0.08980166929447825    0.09889151941396827    0.12172167223482115    0.16985617950086884    0.2546889476996632    
  0.357361076747103    0.39262391410122865    0.33076279440366113    0.28834743079324243    0.33076284108615    
  0.39262380165989147    0.3573611401368663    0.254689056559634    0.1698561527314329    0.12172168371855606    
  0.09889150551631992    0.08980166216719732    0.08758387952154269    0.12135976144948601    0.12079654461649006    
  0.12172171653116494    0.13096232142918154    0.15728618993248442    0.2092665433684511    0.28561522479594226    
  0.35736125403042485    0.389231926111654    0.3927524641847239    0.3892319053748842    0.3573611330951113    
  0.28561523075748496    0.20926659732389744    0.15728617872854334    0.1309623229785631    0.12172167524351289    
  0.12079654405461605    0.12135976144948601    0.19063865516459322    0.18438267206669579    0.1698561761322996    
  0.15728613089741444    0.15638618439775967    0.1734335758605441    0.20926650827290605    0.25468905250235757    
  0.2917763225523289    0.3056169850138574    0.2917763730825918    0.2546890068111382    0.20926652245461044    
  0.17343357817682528    0.15638610620412619    0.15728616694141442    0.16985614526071158    0.1843826636510497    
  0.19063865516459322    0.30561696694908647    0.2917763794262615    0.2546889723914931    0.20926653039457804    
  0.17343362879257823    0.15638614314598698    0.15728614721185202    0.1698561758376112    0.1843826790572116    
  0.1906386301323253    0.18438267202867994    0.16985613728219132    0.15728615404209403    0.1563861687802252    
  0.17343360326868262    0.20926657495219622    0.2546889808587153    0.2917763096189334    0.30561696694908647    
  0.3927525171936055    0.3892319358912634    0.35736117008461327    0.2856152057434224    0.2092666200573106    
  0.15728620219486156    0.13096231760789087    0.12172171519131848    0.12079659382733832    0.12135976076516819    
  0.12079654541384327    0.12172162830264774    0.13096236113034376    0.1572861889783274    0.20926655536263392    
  0.285615199963584    0.3573611462887746    0.38923188772022516    0.3927525171936055    0.28834737971219665    
  0.3307627868344708    0.39262389493532723    0.3573611408264839    0.25468904457541386    0.16985612063149955    
  0.12172164134932136    0.09889153880641995    0.08980161478205713    0.0875839040988145    0.08980168539241837    
  0.09889153536474228    0.12172168976861786    0.1698561592843794    0.2546889581697756    0.357361162566157    
  0.392623821493799    0.3307626981391172    0.28834737971219665    0.11750256990476025    0.17708644762892817    
  0.3307627420273063    0.38923180092595344    0.2917763437829212    0.18438267063617675    0.12079648299333873    
  0.08980166994080521    0.07666146185026335    0.07325171358548349    0.07666145408946293    0.089801636073389    
  0.12079650646602519    0.18438267272354783    0.2917763116668666    0.3892318648614529    0.3307627222237651    
  0.17708639396474363    0.11750256990476025    0.06479048746550516    0.11750257493261365    0.2883474139785998    
  0.3927525153656218    0.3056170163324164    0.19063869493673605    0.12135977522275973    0.08758398450525136    
  0.07325173248261876    0.0695261615340995    0.07325171807980535    0.08758393274909332    0.12135979821154916    
  0.1906386561908725    0.3056169767480385    0.3927525506275665    0.28834742933421253    0.11750257229319723    
  0.06479048746550516    0.1175025781325468    0.177086409916277    0.3307627042214965    0.3892318105764409    
  0.29177636324177453    0.18438268434722313    0.12079654421377754    0.08980168279164132    0.07666148055090682    
  0.07325169775265807    0.07666145757667202    0.08980164173537745    0.1207965431462293    0.18438270442856308    
  0.2917762332572241    0.38923188721502316    0.33076277939825277    0.17708640937125983    0.1175025781325468    
  0.17708640990170704    0.2359965402262478    0.36176302221995144    0.3808997070912807    0.2781276451958299    
  0.17832128928554974    0.12000553936769721    0.09164199938330345    0.07972854544109294    0.07666141381886242    
  0.07972856853388346    0.09164199167852553    0.12000556298136386    0.1783213508259127    0.27812758750141164    
  0.3808996688895028    0.3617630223047847    0.2359965243573841    0.17708640990170704    0.3307627158913365    
  0.361763062528936    0.39456779551619126    0.341812491062121    0.24207358558665562    0.16406278371184047    
  0.1201310539276513    0.09953040475927313    0.09164201327903979    0.08980166215376523    0.09164200237283089    
  0.09953036167887694    0.12013101031585564    0.16406283481134654    0.24207355471007433    0.3418124758277426    
  0.3945677631221294    0.3617630424614678    0.3307627158913365    0.3892318052498475    0.3808997763828257    
  0.34181246442233976    0.2700905009744851    0.1988114519518858    0.1514417074153428    0.1278495426276588    
  0.1201311132795016    0.12000555258367426    0.12079652355336122    0.1200055631094558    0.12013108878104296    
  0.12784951669390057    0.15144169226190468    0.19881139675198073    0.27009049384134354    0.3418125435438047    
  0.38089963791726145    0.3892318052498475    0.29177630978633323    0.27812755464734484    0.24207356144443654    
  0.19881140174974946    0.16540129310982174    0.14993920719561105    0.15144160953979383    0.16406284223056247    
  0.17832131195700604    0.1843826211526732    0.17832137527117614    0.1640627959131506    0.15144166876077875    
  0.14993925977803235    0.16540127870958138    0.19881141416120718    0.2420735642194545    0.2781275613927793    
  0.29177630978633323    0.1843826040105773    0.17832140215274936    0.16406278898986806    0.1514416406206919    
  0.14993927219909597    0.16540127989186926    0.19881138160837397    0.24207363657063907    0.27812754110800497    
  0.2917763165978893    0.27812759578908547    0.24207356674441594    0.19881140662954322    0.1654013190942085    
  0.14993927055518155    0.15144169793801932    0.1640627930672268    0.17832136311641433    0.1843826040105773    
  0.1207965307617881    0.12000556441984862    0.12013107271065122    0.12784951468359387    0.1514417342598661    
  0.19881144909736434    0.2700904189008325    0.3418125835243314    0.3808997654303604    0.3892317831783926    
  0.38089972820255896    0.3418124648693503    0.2700904762622758    0.19881146324734783    0.15144167960979388    
  0.12784952978159717    0.12013109815806458    0.12000553901150038    0.1207965307617881    0.089801626719037    
  0.09164200258838989    0.09953038029922809    0.12013108000467602    0.16406280050952918    0.24207355499422142    
  0.3418123873354551    0.3945678311009707    0.36176305960096183    0.33076273388614236    0.3617630465309727    
  0.3945677919054116    0.34181250917792827    0.2420735576672633    0.1640627518906474    0.12013108614539135    
  0.09953038855655384    0.09164199075462154    0.089801626719037    0.07666142786922728    0.07972859249739311    
  0.09164198478012725    0.12000555088237752    0.1783213836624963    0.27812753671927165    0.3808996604659347    
  0.3617630548624999    0.2359965259784262    0.17708636204703604    0.23599647664783377    0.36176301017147044    
  0.3808996274118548    0.278127588589124    0.1783213514979158    0.12000553179440636    0.09164193925614032    
  0.07972857628536845    0.07666142786922728    0.07325172209058668    0.07666146066512385    0.08980164267854109    
  0.12079652089895988    0.18438268279950404    0.29177637335075784    0.3892318023398148    0.33076291210518566    
  0.17708642287397133    0.11750255367072979    0.17708643222272416    0.3307627320597202    0.38923192384663446    
  0.2917763407794687    0.1843826808801387    0.12079650532774422    0.0898016757402739    0.076661456696774    
  0.07325172209058668    0.07666144155330637    0.07972859083417501    0.09164198877752858    0.12000555128956815    
  0.1783213794200649    0.27812749486717203    0.38089960703885556    0.3617630715336599    0.23599640309698094    
  0.17708634399233458    0.23599652396694815    0.3617629918524311    0.38089972541135547    0.2781275473161712    
  0.17832130244524358    0.1200055395349685    0.09164198314581871    0.07972854113901706    0.07666144155330637    
  0.08980165296041262    0.09164201269814805    0.09953037263898618    0.12013103016434362    0.16406282296168304    
  0.24207352653774236    0.34181245646406183    0.3945678071590462    0.3617630578908584    0.33076271746991726    
  0.36176311160245794    0.3945677130596534    0.3418124547531077    0.242073588142433    0.1640628244175487    
  0.1201310606536612    0.09953038598128955    0.0916419825089505    0.08980165296041262    0.12079650014338589    
  0.12000553597356518    0.12013109968182854    0.12784952059256877    0.15144171429018266    0.19881137562421472    
  0.2700904486149588    0.3418126726267894    0.38089971999811584    0.38923183537352046    0.38089979089307896    
  0.34181248758159866    0.2700904914286087    0.19881145385374782    0.1514416596654716    0.1278495299605951    
  0.12013107893209464    0.12000556293432943    0.12079650014338589    0.18438267427691457    0.17832130879858335    
  0.16406281788530985    0.15144166841166595    0.1499392889217849    0.16540123960149872    0.1988113488611619    
  0.24207362127056226    0.2781275567154168    0.29177627528554456    0.27812760565596084    0.24207356004005626    
  0.19881133667162362    0.16540125870307607    0.14993921585110984    0.15144170614322372    0.16406281064817102    
  0.17832131012173427    0.18438267427691457    0.29177623031129957    0.2781275776961466    0.24207349584726293    
  0.1988113642724911    0.165401341825722    0.1499392591723066    0.15144168294666813    0.16406282665091101    
  0.17832131019647007    0.1843826664648178    0.17832135598519697    0.16406279013902778    0.15144163389759557    
  0.14993927544035165    0.16540132743337696    0.19881141535820035    0.24207354214624593    0.2781275990404043    
  0.29177623031129957    0.3892318302356235    0.38089972883784984    0.3418125878341241    0.27009042899190866    
  0.19881144482043395    0.15144170157734    0.12784950520650304    0.12013111429674607    0.12000555748914286    
  0.1207964950453517    0.12000550528911197    0.12013103119379047    0.12784955092705064    0.1514417196503878    
  0.19881139622565547    0.27009045771711593    0.34181256437007346    0.38089970490681446    0.3892318302356235    
  0.33076278550707633    0.36176304534250514    0.39456781704416133    0.34181256610102534    0.24207359926752514    
  0.16406278292064772    0.12013101776075157    0.09953040869720355    0.09164200289767828    0.08980163326755876    
  0.0916420056709913    0.09953040069917107    0.1201310687124176    0.16406277868696675    0.24207353485391425    
  0.3418124837207631    0.3945677867552208    0.36176300811504186    0.33076278550707633    0.1770863603835783    
  0.23599659457991246    0.361763075096502    0.38089965020570293    0.2781276411465788    0.1783213256222901    
  0.12000550024754676    0.09164198512042489    0.07972860725826617    0.0766614490866775    0.07972857565451352    
  0.09164194425767005    0.12000552843562264    0.17832132145317406    0.27812759876329785    0.3808997058356109    
  0.3617629743335677    0.23599648913705595    0.1770863603835783    0.1175025781325468    0.177086409916277    
  0.3307627042214965    0.3892318105764409    0.29177636324177453    0.18438268434722313    0.12079654421377754    
  0.08980168279164132    0.07666148055090682    0.07325169775265807    0.07666145757667202    0.08980164173537745    
  0.1207965431462293    0.18438270442856308    0.2917762332572241    0.38923188721502316    0.33076277939825277    
  0.17708640937125983    0.1175025781325468    0.28834741781266476    0.3307627978125066    0.3926237950841499    
  0.35736108535291106    0.254689015840718    0.16985616730161826    0.12172167042850696    0.09889154102678363    
  0.08980168921681358    0.0875839024660091    0.08980164937461714    0.09889151345753021    0.12172169975450893    
  0.16985617639809159    0.2546890013979947    0.3573611159619046    0.3926238988870178    0.33076276828637236    
  0.28834741781266476    0.3307627460166679    0.3617631068345603    0.3945678239675916    0.34181246365262796    
  0.24207361972136643    0.16406277560663754    0.12013103383893993    0.09953039355555139    0.09164197215314868    
  0.08980160785264965    0.09164196991999485    0.09953040404463255    0.12013107949699581    0.16406282746076079    
  0.24207356683799225    0.34181257613544874    0.394567781133624    0.36176303044647806    0.3307627460166679    
  0.3926238307548237    0.39456780459702856    0.3699992717555073    0.29520187015188354    0.21005609459057498    
  0.15020337415696358    0.11770039708568547    0.10370055133750727    0.09953040270897182    0.09889152638361375    
  0.09953039148404086    0.10370050797328566    0.11770042909437722    0.15020338741192654    0.21005609186986565    
  0.2952018219238115    0.36999926309754794    0.3945678241060539    0.3926238307548237    0.35736112179820445    
  0.341812559101746    0.2952018958608943    0.23050701836165516    0.17335773861742593    0.1374275808227772    
  0.12099082391183924    0.11770049004136081    0.12013107745759896    0.12172163145888837    0.1201310693778596    
  0.11770042292530473    0.12099082016821222    0.13742758483463052    0.17335767335716298    0.23050699032084782    
  0.29520193774467357    0.34181251729991474    0.35736112179820445    0.2546890062625976    0.2420735721326277    
  0.2100560766242075    0.1733576712737891    0.14612939317417453    0.1344487994910453    0.13742752319164878    
  0.15020343072211487    0.16406281154237518    0.1698560834795682    0.16406285269854562    0.1502033727900491    
  0.1374275634572676    0.1344488112524445    0.14612934186643073    0.1733576571530243    0.21005607519594252    
  0.24207355449625    0.2546890062625976    0.1698561328111272    0.16406282264686609    0.1502033813764283    
  0.13742753219047868    0.1344488564929753    0.14612934886203433    0.17335764707354395    0.21005610243991474    
  0.2420735414216067    0.2546890114582698    0.2420735656492144    0.21005606291768775    0.17335768546884778    
  0.14612939685143425    0.13444881247492918    0.13742760231558923    0.15020337805655545    0.16406285253806244    
  0.1698561328111272    0.12172164162581257    0.1201311030203368    0.11770044145276508    0.12099080336385219    
  0.13742761249121596    0.17335769176371058    0.23050697703712011    0.29520194837402436    0.3418125616522313    
  0.35736108612646555    0.3418125134185699    0.29520182680580276    0.2305070031478374    0.1733577116390162    
  0.13742756342877407    0.12099082211551311    0.11770045906106981    0.12013110540063468    0.12172164162581257    
  0.09889151142698342    0.0995304162951211    0.10370050793920135    0.11770045290605456    0.15020338009473524    
  0.21005605912627953    0.2952017938102481    0.36999937220587126    0.3945677749753716    0.3926237976254208    
  0.3945678122456446    0.36999941458133734    0.2952018435498855    0.21005607349818392    0.1502033665255332    
  0.11770045037480387    0.10370052600362259    0.09953039393146342    0.09889151142698342    0.08980162288060338    
  0.09164200182591825    0.0995303992336374    0.12013107774677771    0.164062835134237    0.2420735643203664    
  0.34181245058266707    0.39456780028378263    0.3617630068382931    0.33076268021354344    0.3617630023580234    
  0.39456775171005554    0.3418124375166968    0.24207358142741095    0.16406282115450763    0.12013110348337096    
  0.09953036958014115    0.09164200245841657    0.08980162288060338    0.0875839178029692    0.0898016472273489    
  0.09889151714952635    0.1217216367702462    0.16985614611521924    0.25468902511819697    0.3573611072467655    
  0.39262395364982605    0.33076276003114263    0.28834735631464364    0.33076279658507984    0.39262383122717215    
  0.35736119331377336    0.25468904241388496    0.16985613350133286    0.12172166180160446    0.09889155302446744    
  0.0898016417097524    0.0875839178029692    0.08980164298368248    0.09164199893860511    0.0995303717373148    
  0.12013109349966286    0.1640628647334447    0.24207355939979414    0.3418124815330076    0.3945678589709561    
  0.3617629120956421    0.3307626574914124    0.361763036583463    0.39456775683157047    0.3418125130498517    
  0.24207356070450348    0.16406280019439462    0.12013105078808142    0.09953042423533755    0.09164196957374152    
  0.08980164298368248    0.09889152406056438    0.09953041392035876    0.10370048045155243    0.11770042083372059    
  0.1502033901995421    0.21005602803540752    0.295201869662295    0.3699993599113365    0.3945678119629644    
  0.3926238415964562    0.394567861503369    0.36999928618017813    0.2952018288854881    0.21005609411550732    
  0.15020337239615228    0.11770045657773771    0.10370050875239935    0.0995303985052854    0.09889152406056438    
  0.12172165997880899    0.12013106070385988    0.11770047442876364    0.12099079782972459    0.1374275911947976    
  0.17335765355973393    0.23050695204387714    0.29520195995715065    0.34181255448295095    0.3573610898989794    
  0.3418125937164211    0.2952018071997461    0.23050702237879567    0.17335769783444374    0.13742755611824103    
  0.12099083143514153    0.11770041385174598    0.12013113021345202    0.12172165997880899    0.16985612218493942    
  0.164062817817512    0.1502033947063926    0.1374275703635415    0.13444884364649384    0.14612934550340398    
  0.17335763844223315    0.21005610274883565    0.24207356674147668    0.25468901667524996    0.2420736038852539    
  0.21005602561782286    0.17335765380046986    0.14612935328858764    0.13444876547852141    0.13742759404061583    
  0.15020337456987273    0.16406277812034686    0.16985612218493942    0.25468894674190545    0.24207360665988775    
  0.2100560441096119    0.17335765772151301    0.14612938189244642    0.13444881574788228    0.13742755765846124    
  0.15020341310481194    0.1640627614248027    0.16985616994666827    0.16406282487642215    0.1502033723032897    
  0.1374275401802032    0.13444882833921942    0.14612940129032226    0.17335769876396653    0.21005606651733047    
  0.2420735820117798    0.25468894674190545    0.3573611240920141    0.34181251908820204    0.2952019221863869    
  0.23050695816283626    0.17335773673739105    0.13742759546386962    0.12099081383091892    0.11770050044138024    
  0.12013109935356228    0.12172165662578581    0.12013102613761936    0.11770041537690604    0.12099083065753678    
  0.1374275959712572    0.17335762551895142    0.2305069999220455    0.2952018686868524    0.3418125350294722    
  0.3573611240920141    0.39262382500666676    0.3945677871770738    0.36999931843377676    0.2952019045851453    
  0.21005610767610844    0.150203344101592    0.11770036624387227    0.1037005120340108    0.09953041744893618    
  0.0988915045144174    0.09953041292331792    0.10370053076635462    0.11770047279308817    0.150203387430181    
  0.21005603668845468    0.2952018826477756    0.36999931949146964    0.39456777459308007    0.39262382500666676    
  0.3307626340564786    0.3617631115288357    0.3945677361252352    0.34181252072489826    0.24207362857146125    
  0.16406276114571536    0.12013103363217716    0.09953041112281    0.09164200889964354    0.08980164167221297    
  0.09164199286868568    0.09953037588083015    0.1201310399458078    0.16406284459517004    0.24207358304963733    
  0.3418125336626481    0.39456772298403914    0.3617630472546387    0.3307626340564786    0.28834741781266476    
  0.3307627978125066    0.3926237950841499    0.35736108535291106    0.254689015840718    0.16985616730161826    
  0.12172167042850696    0.09889154102678363    0.08980168921681358    0.0875839024660091    0.08980164937461714    
  0.09889151345753021    0.12172169975450893    0.16985617639809159    0.2546890013979947    0.3573611159619046    
  0.3926238988870178    0.33076276828637236    0.28834741781266476    0.39275249655224304    0.38923183636972813    
  0.3573612051307944    0.2856152260674624    0.20926656761652923    0.15728618386197    0.13096230907296844    
  0.12172175126867268    0.12079657036021423    0.12135979141257941    0.12079655850053313    0.12172168118914709    
  0.13096234638198434    0.15728616785056138    0.20926655717135473    0.2856152413929085    0.3573611940912315    
  0.389231844885989    0.39275249655224304    0.3892318855431998    0.3808998136932887    0.34181250928088747    
  0.2700904432476624    0.1988114382946684    0.1514416524501418    0.12784950433216677    0.12013108249640439    
  0.12000550697808668    0.12079651253473224    0.12000554718455808    0.12013107898162262    0.12784952154936732    
  0.15144165529886902    0.19881139209979928    0.2700904370280977    0.341812515037602    0.38089974376207536    
  0.3892318855431998    0.357361146248578    0.34181256439753943    0.2952018702067854    0.23050695242448305    
  0.17335769051212296    0.13742753021189033    0.12099082821723511    0.11770049364250805    0.12013106727623554    
  0.12172166359511123    0.12013107770395798    0.11770043285860084    0.12099083318949184    0.13742760040527852    
  0.17335766786827497    0.2305069659406222    0.29520187986990015    0.3418125531763382    0.357361146248578    
  0.2856152326342992    0.27009048755622456    0.23050700988301118    0.18345855082581392    0.14544947778805895    
  0.12384864237183707    0.11729334334475854    0.12099087594936932    0.12784955549563015    0.1309623342195275    
  0.12784952388447962    0.12099080720130688    0.11729332914783973    0.12384864340016444    0.14544948089442203    
  0.18345854679022858    0.2305070574690098    0.2700904715844846    0.2856152326342992    0.20926654132933284    
  0.19881138055035597    0.17335769415214788    0.14544948409992267    0.1256157410172241    0.11855081337625088    
  0.12384856294250754    0.13742763650734338    0.15144167279896506    0.1572861534220449    0.15144168370214986    
  0.13742757015211235    0.12384861875537741    0.11855082933491642    0.12561570375297187    0.14544943685970843    
  0.1733576566179264    0.19881137470412819    0.20926654132933284    0.15728614746216088    0.15144173123669535    
  0.13742756069277154    0.12384859337379725    0.11855084722347807    0.12561571923061896    0.14544945143482627    
  0.17335770211483237    0.19881137060931117    0.20926655147332962    0.19881139254349967    0.17335766743306863    
  0.1454494322801477    0.12561574800112923    0.11855083596675153    0.12384863786234368    0.13742755348461302    
  0.15144171013224597    0.15728614746216088    0.13096232124521684    0.12784953654293532    0.12099084681960108    
  0.11729330082349909    0.12384865710136626    0.1454494839772591    0.18345850850732454    0.23050700836204735    
  0.27009047923359913    0.2856152136948932    0.270090440053128    0.2305069001887774    0.18345857849123673    
  0.14544948937616112    0.12384861107353132    0.11729335147062243    0.12099086734474448    0.12784952105389769    
  0.13096232124521684    0.12172164322698144    0.1201310842341889    0.11770049313212393    0.12099081338235147    
  0.13742759582024403    0.17335768637911236    0.2305069483960846    0.29520198761808786    0.341812571156354    
  0.3573611088945977    0.3418125569720173    0.29520192332703793    0.23050698596121452    0.17335766860499927    
  0.13742754266835197    0.12099082668396087    0.11770042938050511    0.12013105925995023    0.12172164322698144    
  0.12079652900837642    0.12000557701867626    0.12013108233824771    0.1278495290089461    0.15144173856597332    
  0.1988113640021937    0.27009040988374733    0.34181258246891416    0.38089978602611535    0.3892318714965021    
  0.38089971464465905    0.34181246150920513    0.270090483919801    0.19881142269421498    0.15144170783679978    
  0.1278495309567888    0.12013104834988983    0.12000555704543121    0.12079652900837642    0.12135980368742619    
  0.12079654734689085    0.12172167482000024    0.13096233400595567    0.15728619011187875    0.20926661907305646    