#     DFTpy    
  CRYSTAL 
    
  PRIMVEC    
  3.35261927119623    -1.8419944e-10    3.491367475862069e-10    
  -1.8419944e-10    3.352619271001419    1.6823096689655175e-10    
  6.380033862068966e-10    3.074719724137931e-10    6.142063480710753    
  PRIMCOORD    
  4    1    
  Si    1.6763096355342408    1.6763096364232357    1.8874207878789218    
  Si    6.216188641779363e-10    -5.752999734088261e-10    1.1836109504117904    
  Si    9.53417228857248e-11    4.3448886451322864e-10    4.958452526815137    
  Si    1.6763096360368361    1.6763096351497386    4.254642696833024    
  BEGIN_BLOCK_DATAGRID_3D    
  3d_datagrid_density    
  BEGIN_DATAGRID_3D#0    
  15    15    27    
  0.0    0.0    0.0    
  3.35261927119623    -1.8419944e-10    3.491367475862069e-10    
  -1.8419944e-10    3.352619271001419    1.6823096689655175e-10    
  6.380033862068966e-10    3.074719724137931e-10    6.142063480710753    
  0.5073704775176164    0.46654714686533716    0.3663458791299056    0.25488575667709623    0.16658142206795054    
  0.11037522721318903    0.08153607974549132    0.0729010373995323    0.08153604368040528    0.1103751944477065    
  0.1665814721116799    0.2548857740776026    0.36634583066748627    0.4665471299291782    0.5073704775176164    
  0.4665470694414341    0.4302590553906856    0.34061454501612026    0.23994858277186978    0.1593570266669089    
  0.10754238452897974    0.08068644180399098    0.07259668091723909    0.08068644422233853    0.10754241937113435    
  0.15935699665175984    0.23994852838187541    0.3406145911650236    0.43025907668491026    0.4665470694414341    
  0.36634587775302957    0.340614601190854    0.27643642377406    0.20239121664397125    0.14107394600145717    
  0.10032799209644315    0.07857881566500881    0.07191022155265482    0.07857884250943782    0.10032800181144877    
  0.1410739457419763    0.2023912202575667    0.27643636057434334    0.34061457219548247    0.36634587775302957    
  0.2548857942571112    0.23994852224834234    0.20239129369413453    0.1575243016046993    0.11845002418576435    
  0.09124704154728923    0.07612246592547656    0.07136644138556357    0.07612246854936558    0.09124702765681404    
  0.11845003978130578    0.15752426604434872    0.20239128762180608    0.23994852739981148    0.2548857942571112    
  0.16658140881649838    0.15935700779986242    0.14107396605964098    0.11845005779979674    0.09778908052478438    
  0.08280194643743188    0.07414532660196138    0.0713437729951912    0.07414534273844009    0.08280191580437214    
  0.0977890428509182    0.11845000856746943    0.1410739873269089    0.15935696828876522    0.16658140881649838    
  0.11037521414360833    0.1075424443513118    0.10032802293856234    0.09124703444984594    0.08280192880426622    
  0.07658513372286493    0.072924287675981    0.07172227800854257    0.07292428129761895    0.07658514200578524    
  0.08280193006922808    0.09124699488599525    0.10032802067555965    0.10754240345243865    0.11037521414360833    
  0.08153608940415218    0.08068646005136788    0.07857882774262347    0.07612247258856907    0.07414528306281529    
  0.072924260839985    0.07240312238955568    0.07232297373088013    0.07240309197643953    0.07292428149966804    
  0.07414530271337492    0.07612245558292859    0.07857880311798222    0.08068641454350085    0.08153608940415218    
  0.07290105203175731    0.07259667237598112    0.07191021316319021    0.07136645853611605    0.07134368699471778    
  0.0717222771489999    0.07232292693435037    0.07267246586158987    0.07232290696387735    0.07172225483835429    
  0.0713437438068677    0.0713664775399458    0.07191025090680281    0.07259666681482096    0.07290105203175731    
  0.08153603453484991    0.08068642852687685    0.0785787813276595    0.07612245587040062    0.07414532184599698    
  0.0729242827595868    0.07240311960497114    0.07232295598556675    0.07240314535781127    0.07292429406181132    
  0.07414532478544822    0.0761224295681973    0.07857881470276586    0.08068643867467327    0.08153603453484991    
  0.11037523530557201    0.10754240721318088    0.10032809461491407    0.09124698947740688    0.0828018797990862    
  0.07658511317059537    0.07292425977642758    0.07172230083937356    0.07292427518589231    0.07658510311791004    
  0.08280194608473276    0.09124701046880779    0.10032802675056611    0.10754239106977037    0.11037523530557201    
  0.1665814318635946    0.15935698532489706    0.14107398168330154    0.11845006878408437    0.09778902933053565    
  0.08280193946813201    0.07414529485252126    0.0713437334098552    0.07414533273018212    0.08280197735310359    
  0.09778908053868363    0.1184500194794425    0.14107401312359935    0.15935699142877016    0.1665814318635946    
  0.254885880995769    0.2399485308204483    0.20239123674480688    0.15752427103690433    0.11845002447269012    
  0.09124698526172964    0.07612245676919323    0.07136650053310299    0.07612250937850218    0.09124702473914098    
  0.1184500223082158    0.1575242716093211    0.20239125032325705    0.23994847058990737    0.254885880995769    
  0.36634593445341546    0.340614594998792    0.27643631825844794    0.20239126370861107    0.1410739788841893    
  0.10032803330201394    0.07857881471388979    0.07191020966964679    0.07857881157716116    0.10032802332738554    
  0.14107395276228338    0.20239127975219237    0.2764363682273974    0.34061457286217856    0.36634593445341546    
  0.4665470197448694    0.4302591087550299    0.34061459160521956    0.23994851926555125    0.15935698407212456    
  0.1075423839221966    0.0806864423159239    0.07259669096186941    0.08068644900999718    0.10754241207407078    
  0.15935702477962618    0.23994854807095578    0.3406145509466133    0.4302590127039463    0.4665470197448694    
  0.5073704775176164    0.46654714686533716    0.3663458791299056    0.25488575667709623    0.16658142206795054    
  0.11037522721318903    0.08153607974549132    0.0729010373995323    0.08153604368040528    0.1103751944477065    
  0.1665814721116799    0.2548857740776026    0.36634583066748627    0.4665471299291782    0.5073704775176164    
  0.5186512089532479    0.4810816337078943    0.384437215968569    0.27056742267061906    0.177187714490305    
  0.11725798002430035    0.08633861874345256    0.0770037738732242    0.08633859957129782    0.11725796450947576    
  0.17718773682845299    0.27056744839488056    0.38443718271465516    0.481081634499538    0.5186512089532479    
  0.481081597068396    0.4468065762593414    0.35886012064855227    0.25526218137379697    0.1699157664077059    
  0.11457094030077562    0.0857021147091879    0.07692576066827822    0.08570210293455503    0.11457099728844491    
  0.16991575798189837    0.2552620914656674    0.35886013728897215    0.44680653775327295    0.481081597068396    
  0.3844371845859366    0.35886013769202574    0.29356674363549706    0.21625968217439936    0.1512050613181987    
  0.10764452191848217    0.08418751584308966    0.07692790802829125    0.08418751255513443    0.10764454319227429    
  0.15120507847707967    0.21625972888089065    0.2935667183082664    0.35886013550971746    0.3844371845859366    
  0.2705674603126157    0.2552620670479748    0.21625973064432916    0.16914559975725738    0.1278858103182681    
  0.09892052012226715    0.08265365020259971    0.07750010174855469    0.0826536540687671    0.0989205203728904    
  0.12788578584385527    0.16914552658453097    0.21625979731464903    0.2552620605501006    0.2705674603126157    
  0.1771876630205916    0.16991573637780283    0.1512050968593991    0.12788579246331808    0.10654043119578153    
  0.09092634073743658    0.0818413224032112    0.07890664127571449    0.08184132439912324    0.09092631375184278    
  0.10654041827492103    0.1278857841894157    0.15120507099659633    0.16991572416791376    0.1771876630205916    
  0.11725793795032026    0.11457101295753827    0.10764459041624247    0.09892049896409248    0.09092630669966932    
  0.08513835766230345    0.08181042719400713    0.08074866454561429    0.08181042436642429    0.08513836624642672    
  0.09092634554854398    0.09892050074737152    0.10764456580137045    0.11457096580586505    0.11725793795032026    
  0.08633862545462222    0.08570210533037863    0.0841874827801182    0.0826536135201468    0.08184129849468542    
  0.08181040108889222    0.08213096574941565    0.08232977075128005    0.08213099658929246    0.08181041338480302    
  0.0818412876785696    0.0826536086239883    0.08418748592400212    0.08570207457732568    0.08633862545462222    
  0.07700376718051258    0.07692574703953316    0.0769279030394435    0.07750008960551621    0.07890656429912664    
  0.08074867844633878    0.08232972095138591    0.08298547099882131    0.08232966185785803    0.0807486627817757    
  0.07890666072941024    0.07750012193329173    0.07692792628782522    0.07692575513858597    0.07700376718051258    
  0.0863385804428889    0.08570208863438608    0.08418746925286512    0.08265361499502065    0.08184130550863747    
  0.08181043983998622    0.08213098731915246    0.08232972783180634    0.08213100615296727    0.08181045740661515    
  0.08184132921842978    0.08265360440925108    0.08418750251290845    0.08570209700867394    0.0863385804428889    
  0.11725797846473854    0.11457098216843867    0.10764461735862996    0.09892049381343102    0.0909262981479433    
  0.08513837633530738    0.08181041819041547    0.08074868460539283    0.0818104133399735    0.0851383365074585    
  0.09092634032309113    0.09892054730765792    0.10764456309358167    0.11457096193559294    0.11725797846473854    
  0.17718769488816863    0.16991573174320654    0.15120511868763176    0.12788582767174306    0.10654039961392388    
  0.09092634067736795    0.08184128678383563    0.07890658993040771    0.08184134104927107    0.09092637258007609    
  0.10654041818987944    0.12788577651413946    0.15120510762022596    0.16991574365489048    0.17718769488816863    
  0.27056749356897825    0.2552621315914374    0.21625975103660938    0.16914555920816485    0.1278857931116104    
  0.09892049725458586    0.08265364493891234    0.07750013234717722    0.08265367479734195    0.09892051438582426    
  0.12788577724578265    0.16914552851726702    0.2162597158519423    0.2552620812476884    0.27056749356897825    
  0.3844372585039024    0.35886012679987034    0.29356668994414425    0.21625975488022792    0.1512050971869758    
  0.10764456378031183    0.08418748996182412    0.07692787516181923    0.08418750015622527    0.10764457984896403    
  0.15120509108065794    0.21625975111536577    0.2935666920059581    0.3588601176850755    0.3844372585039024    
  0.4810815650814732    0.446806676329119    0.35886017002122356    0.25526211353845263    0.16991574487833902    
  0.11457095647551052    0.08570209542818989    0.07692578452542687    0.08570210296065889    0.11457098664347029    
  0.16991574274364526    0.2552620854722677    0.3588601463865042    0.4468065904385767    0.4810815650814732    
  0.5186512089532479    0.4810816337078943    0.384437215968569    0.27056742267061906    0.177187714490305    
  0.11725798002430035    0.08633861874345256    0.0770037738732242    0.08633859957129782    0.11725796450947576    
  0.17718773682845299    0.27056744839488056    0.38443718271465516    0.481081634499538    0.5186512089532479    
  0.47494907862418484    0.46419513853053335    0.41091069785533746    0.3102263888220485    0.20779362434876777    
  0.13745367825900756    0.10041614251701572    0.08910267493221947    0.10041614290928208    0.13745366290011748    
  0.20779370740722566    0.3102264311202745    0.41091066771342744    0.4641951100838537    0.47494907862418484    
  0.4641950748409788    0.44970877136439796    0.39236429145908486    0.295633476931178    0.20063989367714663    
  0.13535541344879023    0.10060478155731105    0.08991415600792446    0.10060479609344905    0.13535543760271826    
  0.20063992713110348    0.2956334797400585    0.3923642839751711    0.4497086786234223    0.4641950748409788    
  0.410910632005537    0.3923643707833622    0.33577571600434886    0.25580541176847943    0.18159346468638432    
  0.12990107199063644    0.10153723086378821    0.0926436590577832    0.10153723304584514    0.12990110206292685    
  0.1815935260186139    0.2558054701368557    0.33577574748660527    0.3923642840318877    0.410910632005537    
  0.3102264178191433    0.29563342548825394    0.2558054615546967    0.20432098058389112    0.1572562540797955    
  0.12325069870574103    0.10376930175959485    0.09752716975148026    0.10376931148506523    0.12325069394656823    
  0.1572561961357343    0.20432094069900933    0.25580549204473146    0.2956334110778245    0.3102264178191433    
  0.20779365511449416    0.20063985282958507    0.18159351724319234    0.15725628045288656    0.13458308424488602    
  0.1175134116071114    0.1074151905691134    0.10415753695728734    0.10741520188771057    0.11751337832285257    
  0.13458305239663335    0.1572562546344549    0.1815935239178221    0.20063984532445067    0.20779365511449416    
  0.13745365949985236    0.1353554384022447    0.1299010776229488    0.1232506955028051    0.11751338162518626    
  0.11366055654644201    0.11173067558797126    0.11121696308395801    0.11173066411559783    0.1136605645400479    
  0.11751338340229155    0.12325066074807237    0.1299011190625412    0.13535541465377518    0.13745365949985236    
  0.10041615655038749    0.10060478806196152    0.10153721041359763    0.10376929323585099    0.10741514036457446    
  0.11173058945326206    0.11521719814066252    0.1165418683519487    0.11521716069609425    0.11173062473933561    
  0.10741516651656022    0.10376925294740041    0.1015372088123168    0.10060476410272264    0.10041615655038749    
  0.08910268302197222    0.08991414023951295    0.09264362397271206    0.09752716910289168    0.10415746626060565    
  0.11121697385532743    0.11654184213342222    0.11848304910124045    0.11654175706796434    0.11121696035882084    
  0.1041575515717191    0.09752716602966634    0.09264365587467077    0.08991415313687412    0.08910268302197222    
  0.10041613664595332    0.10060477534853361    0.10153718431924132    0.10376927633364878    0.10741517480479655    
  0.11173066329591531    0.11521726990765957    0.11654183350850048    0.11521722526886799    0.11173069192534543    
  0.10741516740722334    0.10376928011485456    0.10153722117899183    0.10060477904120001    0.10041613664595332    
  0.13745371074117124    0.1353554013420022    0.1299011322113535    0.1232506710386936    0.11751338565440494    
  0.11366055220639888    0.11173066854245359    0.11121700407234042    0.1117306593097181    0.11366055266792115    
  0.11751337400746353    0.12325069402811084    0.12990110097759572    0.13535540945781663    0.13745371074117124    
  0.2077936405252621    0.20063983848981176    0.1815935259994211    0.1572562344760465    0.13458306152419403    
  0.11751335960048362    0.1074151333330282    0.10415749472412258    0.10741520788357525    0.11751343170817657    
  0.1345830955709609    0.15725624757662804    0.18159352565107081    0.20063986081220078    0.2077936405252621    
  0.31022642153333824    0.2956333774683562    0.255805527133387    0.20432100395446817    0.15725621953744076    
  0.12325065633087609    0.10376929007712046    0.09752719871770531    0.10376931410528248    0.12325069972960465    
  0.1572562457468695    0.20432098179559932    0.2558054874991481    0.29563339160241237    0.31022642153333824    
  0.41091072021152053    0.3923643344401044    0.335775711239429    0.25580550118531825    0.18159348529362107    
  0.12990112062220865    0.10153725598299904    0.09264362902666415    0.1015371996710506    0.1299010974259963    
  0.1815935146345187    0.25580549149078524    0.33577570948836777    0.39236430909381487    0.41091072021152053    
  0.46419509376555534    0.44970888763612643    0.3923642900348718    0.29563334939367897    0.20063988520972034    
  0.13535539937736918    0.10060477154328316    0.08991418935265613    0.1006048054259532    0.1353554024676752    
  0.2006398763346417    0.2956333994296987    0.39236433978870855    0.44970875103003294    0.46419509376555534    
  0.47494907862418484    0.46419513853053335    0.41091069785533746    0.3102263888220485    0.20779362434876777    
  0.13745367825900756    0.10041614251701572    0.08910267493221947    0.10041614290928208    0.13745366290011748    
  0.20779370740722566    0.3102264311202745    0.41091066771342744    0.4641951100838537    0.47494907862418484    
  0.2785456372570789    0.31894366608627145    0.38007170321701567    0.3505411480874239    0.25239165878891384    
  0.16872841098793256    0.12270923768798078    0.1086362595227498    0.1227092377148492    0.16872844757633457    
  0.2523917509174875    0.350541182251691    0.3800716535450897    0.31894361800729326    0.2785456372570789    
  0.31894365258939916    0.35000338678377985    0.38678768032467564    0.34237599341825    0.24666209722215543    
  0.16818032238879635    0.12478235858878725    0.11139581199147337    0.12478236620814814    0.16818032593798826    
  0.24666213940211873    0.3423759088972775    0.38678770058564305    0.3500033891590956    0.31894365258939916    
  0.38007163918851006    0.3867877255177797    0.3746013474103812    0.3119443771967266    0.2301640634481263    
  0.16696472603436044    0.1313236347307477    0.12007941695856424    0.13132366229492473    0.16696474629817587    
  0.23016401245330861    0.3119444531419807    0.37460138509413454    0.38678764585433806    0.38007163918851006    
  0.35054119933601857    0.34237588411555775    0.3119444972952352    0.26096273650686513    0.20745273678341528    
  0.16644747547660554    0.14239943684105236    0.13459170283756694    0.1423994681688063    0.16644747520387912    
  0.20745274554003323    0.2609627054364867    0.3119444809650851    0.34237587747297427    0.35054119933601857    
  0.2523917027512426    0.2466621156886116    0.23016406018064994    0.2074527807577103    0.18504740656912522    
  0.1673976278953999    0.15666769957915241    0.15313695975586267    0.15666768297543793    0.16739762722712828    
  0.1850473730542161    0.20745275463754798    0.2301640450750248    0.2466620748840728    0.2523917027512426    
  0.16872840642770304    0.1681803404914697    0.16696472331928058    0.1664475001790741    0.16739764921798342    
  0.16931503096145337    0.17130146513494213    0.17216951785290147    0.1713014894453658    0.16931507586065062    
  0.1673976180725871    0.16644744491340682    0.16696476884190037    0.16818028465807233    0.16872840642770304    
  0.12270927084065189    0.12478242040501147    0.13132365317322903    0.14239944767587012    0.15666766468322912    
  0.17130140698657947    0.18226321255622602    0.18624400538322153    0.1822632476572804    0.17130146636872212    
  0.15666770213792428    0.1423994413774119    0.1313236421969147    0.12478236777247788    0.12270927084065189    
  0.1086363065224527    0.11139579985926867    0.12007940759347231    0.13459168334793373    0.1531368535560931    
  0.17216948564125967    0.1862439936230108    0.19124789974262965    0.18624388751487198    0.17216947314320086    
  0.15313689606496256    0.13459168130851762    0.12007942506227808    0.11139582408933044    0.1086363065224527    
  0.12270924770559655    0.12478240300501635    0.1313236174645805    0.14239946700778378    0.15666769422998428    
  0.17130147355579786    0.18226330318358244    0.18624397188030012    0.18226321737926066    0.17130149936246694    
  0.15666769398042807    0.14239941538892512    0.1313236758194804    0.12478235684621927    0.12270924770559655    
  0.16872843974889587    0.16818027017759463    0.166964770435234    0.16644747018956202    0.16739764228723675    
  0.1693150079435531    0.17130146171270563    0.17216949007052157    0.17130147696417516    0.16931500238063357    
  0.16739759428407747    0.16644749457248942    0.16696473316060728    0.16818032676074143    0.16872843974889587    
  0.2523916810214106    0.2466620570980465    0.23016407376823905    0.20745277591453007    0.18504738248082336    
  0.16739756829892122    0.1566676390647107    0.15313690336281116    0.15666769727703084    0.16739763329602012    
  0.18504744093084094    0.2074527808334803    0.23016409453193426    0.24666209614751955    0.2523916810214106    
  0.35054121694115853    0.3423759196545383    0.31194452478849466    0.26096275165123156    0.20745271700952367    
  0.16644747128071796    0.14239942808980918    0.13459175976516996    0.14239944608955768    0.1664475318136502    
  0.20745279887641505    0.26096272329624826    0.3119444631463577    0.3423758423133388    0.35054121694115853    
  0.3800716233471609    0.3867877127164455    0.37460140254032365    0.31194445818312655    0.2301640372995976    
  0.16696474681227838    0.13132369455515888    0.12007938809368847    0.13132365024616918    0.16696471050663006    
  0.2301640390856884    0.3119444846181539    0.37460134980612325    0.38678766462499    0.3800716233471609    
  0.3189436408015227    0.35000345034574504    0.38678764732424115    0.3423758819066194    0.24666208957796423    
  0.168180319962058    0.1247823575699751    0.11139584528810678    0.12478239988032855    0.1681802988707568    
  0.24666206301512567    0.34237589220457765    0.3867877071634115    0.35000337389093217    0.3189436408015227    
  0.2785456372570789    0.31894366608627145    0.38007170321701567    0.3505411480874239    0.25239165878891384    
  0.16872841098793256    0.12270923768798078    0.1086362595227498    0.1227092377148492    0.16872844757633457    
  0.2523917509174875    0.350541182251691    0.3800716535450897    0.31894361800729326    0.2785456372570789    
  0.10104272323121347    0.15390042461185693    0.2977174808439205    0.37120110450786353    0.2985528263005301    
  0.2047751141860683    0.14979776793415214    0.13297078823898426    0.14979773923774678    0.20477513174235998    
  0.29855293640368713    0.3712011421767201    0.29771749076370235    0.1539003772491713    0.10104272323121347    
  0.15390041465155194    0.20843492269664385    0.334067069256869    0.37586780488347266    0.2968655706051604    
  0.20760743292366618    0.15535215355422377    0.13916716079333147    0.15535216329199872    0.20760746294776483    
  0.29686563065557847    0.3758677164212093    0.3340671099926386    0.20843490966663916    0.15390041465155194    
  0.2977174040886536    0.33406705620030214    0.38908992863658354    0.36898469733966244    0.28891838568365374    
  0.2154194412694422    0.172078415347139    0.15820916688586809    0.17207842101478404    0.21541943377209188    
  0.2889184629557291    0.3689846632692823    0.3890899695466825    0.3340670774682371    0.2977174040886536    
  0.37120101653419213    0.3758677465873273    0.3689847318948841    0.3294323762564691    0.2741258970106102    
  0.2277834653204938    0.19948139447237948    0.1899606075437458    0.1994814104754374    0.22778351604124583    
  0.27412593522062145    0.32943235108377456    0.3689847242667715    0.37586769263895453    0.37120101653419213    
  0.29855277134552466    0.2968655654291811    0.28891846266596144    0.27412594449337596    0.2573109511383086    
  0.24317833213881832    0.23385833959848965    0.2304127381518508    0.23385837236302248    0.24317832799957595    
  0.25731090941694296    0.27412597897699675    0.2889184523593253    0.29686556632891575    0.29855277134552466    
  0.20477507434161535    0.20760752725505052    0.21541944677203198    0.22778352285658765    0.24317831314263205    
  0.25748072123471666    0.2665837506655318    0.2693586959744516    0.2665838887140547    0.25748071365506786    
  0.24317830357792208    0.2277834446038605    0.21541945150854636    0.20760744607741038    0.20477507434161535    
  0.14979777871541705    0.1553522058247129    0.17207839237374178    0.19948147657518564    0.23385831474027557    
  0.2665836788982888    0.2876241079761702    0.2940737706883625    0.2876241642338049    0.2665837303713874    
  0.23385839915456003    0.19948137325777957    0.17207836648631275    0.15535216922953424    0.14979777871541705    
  0.13297079110719745    0.13916717202966966    0.1582091484387824    0.18996063035053276    0.23041260049744436    
  0.2693586803997163    0.29407375040670114    0.30138112183988036    0.29407370611459427    0.26935864567891515    
  0.23041271634996482    0.1899606610706697    0.15820918693643335    0.13916718146981827    0.13297079110719745    
  0.14979775247929752    0.15535218440752027    0.17207830137229377    0.19948146791980306    0.23385837897385064    
  0.2665837541526751    0.2876242328120602    0.29407372839856494    0.28762411071229904    0.26658386233731224    
  0.2338583348558786    0.1994814587257653    0.17207843430131028    0.15535218269088533    0.14979775247929752    
  0.20477512855563823    0.20760744277670948    0.21541948639213754    0.22778348089633724    0.24317834122595006    
  0.25748072760105617    0.266583795620329    0.26935867855933826    0.26658376919006627    0.25748067877352604    
  0.2431782934415025    0.22778353528659778    0.21541941946925658    0.20760741299493812    0.20477512855563823    
  0.2985528576496607    0.2968655482298581    0.2889184524070969    0.2741259218613672    0.2573109000200163    
  0.24317827072875495    0.23385828695160563    0.23041260294074598    0.23385835954712691    0.2431783435490372    
  0.2573108962577628    0.27412593133058916    0.288918445852424    0.296865546465237    0.2985528576496607    
  0.3712010845878638    0.3758677510499466    0.3689847503617569    0.32943240336228313    0.2741259078075902    
  0.22778347244532562    0.199481398303575    0.1899606569745108    0.1994814042958852    0.2277835209281105    
  0.27412595494986264    0.32943244173706526    0.3689847223937833    0.3758676570247441    0.3712010845878638    
  0.29771746371742486    0.3340670766993605    0.38909000895735185    0.36898474695638755    0.2889184183345481    
  0.21541944658899523    0.17207842040967747    0.15820913200555087    0.17207837122664782    0.21541940893461453    
  0.28891842330803436    0.3689847735668792    0.38908993279475945    0.33406702181191655    0.29771746371742486    
  0.15390041512061928    0.2084349577468756    0.3340670233315125    0.3758676814455439    0.29686560411907253    
  0.2076074342114448    0.15535214794609056    0.13916720146032524    0.15535215752666834    0.2076074254117857    
  0.2968655623144511    0.3758677162109164    0.3340670502823234    0.20843488340181593    0.15390041512061928    
  0.10104272323121347    0.15390042461185693    0.2977174808439205    0.37120110450786353    0.2985528263005301    
  0.2047751141860683    0.14979776793415214    0.13297078823898426    0.14979773923774678    0.20477513174235998    
  0.29855293640368713    0.3712011421767201    0.29771749076370235    0.1539003772491713    0.10104272323121347    
  0.05379225921481241    0.10009988113292322    0.2609058818242976    0.38653825811089776    0.33345125652651036    
  0.23520698110601485    0.1748131423280108    0.1561724361163396    0.17481313169125237    0.23520698921157332    
  0.3334513565848644    0.38653827982675826    0.2609058912019526    0.10009983847924113    0.05379225921481241    
  0.10009987240167519    0.15520375565899047    0.31029858658564774    0.4012228982693676    0.33716521608260586    
  0.24291948991937215    0.18517805825290481    0.16707764228198724    0.18517802815783885    0.2429195094332851    
  0.33716527309100053    0.40122292886134603    0.3102986578356851    0.1552037296664161    0.10009987240167519    
  0.26090582273601937    0.3102986392715055    0.40336893174261734    0.4157948291041115    0.342238641330201    
  0.2643196564459085    0.21636463240207965    0.20065351106196216    0.21636462548586555    0.26431961311703944    
  0.34223877626915444    0.4157948425088186    0.403368806898795    0.3102986191620549    0.26090582273601937    
  0.3865382730507647    0.4012228537019157    0.41579492284593594    0.39231883760236674    0.3427872088830171    
  0.29712596301205235    0.26755982891578445    0.25702043029947697    0.26755984697290525    0.2971259892465793    
  0.3427872348052765    0.39231873614727264    0.4157948612625453    0.4012227487764333    0.3865382730507647    
  0.333451271380624    0.3371651975755736    0.3422387479542187    0.3427872890128002    0.33989527386554674    
  0.33508041526805654    0.3286557251549271    0.3249683139913266    0.32865571177236913    0.3350803844247228    
  0.3398952495606087    0.3427872605752935    0.3422387037180741    0.3371651754224472    0.333451271380624    
  0.23520702887755474    0.24291949748031835    0.264319622591458    0.2971260481737105    0.3350803755252578    
  0.363503250912152    0.37228746932516266    0.37148243396597613    0.3722875307024473    0.3635032858999056    
  0.33508040361865243    0.29712596677083075    0.264319642957456    0.24291948297360144    0.23520702887755474    
  0.17481314526445432    0.18517810788182934    0.2163645756330812    0.2675599132565955    0.3286556955885871    
  0.3722873983709045    0.37937101172075643    0.37392190858155455    0.3793710080168013    0.372287507605535    
  0.32865572617804256    0.26755985379551084    0.21636456892594422    0.1851780584393452    0.17481314526445432    
  0.1561724470160363    0.1670776257076977    0.20065354217158107    0.25702044836480303    0.32496817197266004    
  0.3714823851313219    0.3739218968157624    0.3647727952594567    0.37392182665433854    0.37148238984894505    
  0.3249682419820202    0.2570204758912513    0.20065357457673935    0.16707763615291968    0.1561724470160363    
  0.17481309501852996    0.18517808446317108    0.21636451293344494    0.26755990776783517    0.32865571378503683    