#     DFTpy    
  CRYSTAL 
    
  PRIMVEC    
  2.0477731254564886    -3.546847095664754    0.0    
  2.0477731254564886    3.546847095664754    0.0    
  0.0    0.0    6.769354551886526    
  PRIMCOORD    
  4    1    
  Si    2.0477731254564886    1.182282365221584    0.4265336456370926    
  Si    2.0477731254564886    -1.1822823652215855    3.811210921580355    
  Si    2.0477731254564886    1.1822823652215844    2.9581436303061697    
  Si    2.047773125456489    -1.1822823652215853    6.3428209062494325    
  BEGIN_BLOCK_DATAGRID_3D    
  3d_datagrid_density    
  BEGIN_DATAGRID_3D#0    
  19    19    29    
  0.0    0.0    0.0    
  2.0477731254564886    -3.546847095664754    0.0    
  2.0477731254564886    3.546847095664754    0.0    
  0.0    0.0    6.769354551886526    
  0.05057851337747289    0.05274957276162089    0.05996147978551868    0.07479894561187116    0.10173872320157679    
  0.14562768122668057    0.20842427749276077    0.28224736949786855    0.3452981025160279    0.37063162748157974    
  0.3452981270187098    0.2822473269736397    0.20842432912475473    0.14562767022466536    0.10173874546256262    
  0.07479892828412571    0.05996148195611116    0.05274956733356416    0.05057851337747289    0.05274955058253903    
  0.052750991645531604    0.057454916300527445    0.06861791731004079    0.08998618336128562    0.12672386253496845    
  0.18316973689868962    0.2568717136577148    0.3312032320461846    0.3789950900738623    0.3789832982317249    
  0.33121271398439656    0.25688933292388666    0.1831547055777354    0.12671713300809306    0.08999449872642344    
  0.0686144140385276    0.05745696394213496    0.05274955058253903    0.059961490353022846    0.05745493566356116    
  0.059962259674845204    0.06861256983034013    0.08669662934499478    0.11938117451319637    0.17249231416176544    
  0.24698092831073512    0.3288558042887049    0.39079097614392255    0.41301372969153455    0.3907904347771251    
  0.3288280768873383    0.2469810275253539    0.17251469889866855    0.11937847594402871    0.08669176162901954    
  0.0686144313772445    0.059961490353022846    0.07479893345595709    0.06861792486430705    0.06861254959456686    
  0.07480464230845472    0.08998609451425402    0.11938080076810294    0.1699435051918823    0.24438650304070297    
  0.32714956131258505    0.3841828923417636    0.4029436301866301    0.40296309687737786    0.3842013608681878    
  0.32715699785534774    0.24437730410646508    0.16993310994586233    0.11937849191598439    0.08999451602497352    
  0.07479893345595709    0.10173873473885596    0.08998618682723547    0.08669663970735915    0.08998608688060042    
  0.10174144136720982    0.12672067959088548    0.17249711078745766    0.24438332183500197    0.32580408677302347    
  0.3670081689817174    0.3493806934165808    0.33034757179754165    0.3493426825931961    0.3670146329376113    
  0.3258078003220652    0.24437726895633416    0.1725146818273218    0.12671710762671498    0.10173873473885596    
  0.14562765487554144    0.12672388789040678    0.1193811692537104    0.11938078958029283    0.12672069737582048    
  0.14562483747941599    0.18317227074711995    0.24697447355736957    0.3271537267991769    0.3670227923460632    
  0.3191104675460989    0.2532557640775729    0.25328265006202794    0.31911291661527547    0.36701462218874364    
  0.3271570613781353    0.2469809997856881    0.18315470715670898    0.14562765487554144    0.20842431802501069    
  0.18316973695006164    0.17249229121543586    0.16994351783170128    0.17249712520703459    0.183172299149846    
  0.20840419446491124    0.25689836579983794    0.32882995077946015    0.38420074709011287    0.3493456645935481    
  0.25328189849025773    0.20802159048155158    0.2532826501640895    0.3493427665328118    0.3842013309231974    
  0.32882807483812176    0.25688936310241484    0.20842431802501069    0.2822473416795684    0.25687170672981074    
  0.24698091638714942    0.24438651812604884    0.24438330039780906    0.2469744489567414    0.25689839888700466    
  0.2822357228705711    0.3312089831534418    0.3907954004494536    0.4029485530751468    0.3303502001839807    
  0.2532818965171907    0.2532557760557158    0.33034760238893796    0.40296318838050316    0.3907904724413558    
  0.3312127407002157    0.2822473416795684    0.345298140034491    0.3312032032959403    0.3288558535470119    
  0.3271495862905745    0.3258040246024658    0.3271536943093519    0.32882997882070275    0.33120895042057    
  0.34531027788682095    0.37897267219948977    0.41302971635108027    0.40294856268770785    0.3493456666669554    
  0.3191104446285836    0.3493807077844669    0.40294363828855567    0.4130136371983532    0.37898326547097627    
  0.345298140034491    0.3706317082319214    0.3789951301883412    0.3907909682044591    0.3841829359136291    
  0.36700810872111245    0.36702270321270736    0.3842007151940811    0.3907954276699629    0.3789726243512155    
  0.37065008787044246    0.3789726107563303    0.3907953496578057    0.384200742220037    0.36702270900439066    
  0.3670081736817622    0.38418298271066365    0.39079096593863893    0.3789950578435319    0.3706317082319214    
  0.3452981638652314    0.3789833278885506    0.41301370013156435    0.40294361335788825    0.3493807210547192    
  0.31911051061906354    0.3493456763003848    0.40294854354489124    0.4130297343492692    0.37897267280598956    
  0.34531032535420686    0.33120899707030116    0.32882997340131    0.3271537152587829    0.3258040905186892    
  0.3271495256388243    0.32885587836317726    0.33120328008709243    0.3452981638652314    0.28224736410087425    
  0.33121275348042667    0.3907903965058262    0.4029632248094627    0.3303476192591587    0.25325581818175535    
  0.2532819009477864    0.33035025610268115    0.4029485785901037    0.3907953498624414    0.3312090715963435    
  0.28223570439390866    0.2568983695939458    0.24697447959941446    0.24438332103229163    0.24438651085706295    
  0.24698091892821572    0.2568716861652108    0.28224736410087425    0.2084243230068062    0.2568893565893647    
  0.32882799064367213    0.38420137667909965    0.34934269361410525    0.25328267782566727    0.20802151039461644    
  0.2532819316359115    0.34934560775428947    0.3842007199093296    0.32882996668807424    0.2568983476321013    
  0.20840427333616512    0.1831722321486712    0.17249711989899216    0.16994348674210716    0.17249233770673    
  0.1831697276499091    0.2084243230068062    0.14562767110329522    0.1831547144090847    0.24698098810778268    
  0.3271570593296637    0.36701466123425375    0.3191129108602396    0.25328265793710814    0.25325579504333073    
  0.31911045684075245    0.36702272315442924    0.32715366929027917    0.24697444072842223    0.18317224607506305    
  0.14562481375079345    0.12672070830888973    0.11938079960414233    0.11938116105126938    0.12672384190448005    
  0.14562767110329522    0.10173872337076514    0.1267171356921403    0.1725146710336171    0.24437728305206624    
  0.3258078173492656    0.36701467855259723    0.3493426264728598    0.3303475819020341    0.34938069567933927    
  0.3670081652598213    0.3258040822626671    0.24438329405758416    0.17249708546696363    0.12672068756896426    
  0.10174144261479642    0.08998609112861171    0.08669663569941763    0.08998619249438619    0.10173872337076514    
  0.07479895529593458    0.08999449462665923    0.11937845379606127    0.16993313753534842    0.24437731771418694    
  0.3271570669606455    0.3842013326628084    0.40296320947092157    0.40294363392514754    0.3841829270179075    
  0.32714950967896994    0.24438645852353605    0.1699435458441139    0.11938080372168304    0.08998610734991846    
  0.07480464168589183    0.0686125799712876    0.06861793017740067    0.07479895529593458    0.059961479665761847    
  0.06861443599590153    0.08669177497974197    0.11937849470824095    0.17251468744570334    0.24698098963900783    
  0.32882811371329973    0.39079046662537764    0.4130136795694557    0.3907909564440023    0.32885580982717727    
  0.24698091668902905    0.1724923240685576    0.11938115462660065    0.08669663761840045    0.06861256924363499    
  0.059962254560601946    0.057454913877272314    0.059961479665761847    0.0527495530353728    0.05745695778542965    
  0.06861442265701165    0.08999451043724654    0.1267171178383216    0.1831546952195608    0.25688933919595164    
  0.33121269626658967    0.3789833348923669    0.37899513071589946    0.33120325579558635    0.2568716802956766    
  0.1831697409432941    0.1267238351316786    0.0899861850782258    0.06861792586411462    0.05745491002845237    
  0.052750999988753905    0.0527495530353728    0.05057851337747289    0.05274957276162089    0.05996147978551868    
  0.07479894561187116    0.10173872320157679    0.14562768122668057    0.20842427749276077    0.28224736949786855    
  0.3452981025160279    0.37063162748157974    0.3452981270187098    0.2822473269736397    0.20842432912475473    
  0.14562767022466536    0.10173874546256262    0.07479892828412571    0.05996148195611116    0.05274956733356416    
  0.05057851337747289    0.049751359234357216    0.05186644599711211    0.05885652691990451    0.07310360477189608    
  0.09875468154164195    0.1402478570453147    0.19910522024698968    0.2676202829539535    0.32563370156137045    
  0.3488373727052623    0.32561429344847403    0.26760867226203844    0.19913260599052174    0.14024677895142432    
  0.09874209165464078    0.0731087445753745    0.05885419772406425    0.05186661214380542    0.049751359234357216    
  0.05186660737436691    0.05186537354047684    0.05598973291300931    0.06565134130162656    0.0840222986371167    
  0.11542921772904605    0.163349420671359    0.22555228288029552    0.28836971426881447    0.3291127452295224    
  0.3291086465970569    0.28839205553595365    0.2255606071183279    0.1633225440674088    0.11543135990183298    
  0.08403232760605325    0.06564897912240943    0.05599012155761476    0.05186660737436691    0.05885421537465236    
  0.05687350937992521    0.05885634750497964    0.06564453404119194    0.0798325229072519    0.10540719402355449    
  0.1467264638230523    0.2051133969117246    0.27170743237123035    0.3259684051003043    0.3469291858469189    
  0.32596888721816814    0.27168490682308516    0.20511045150748855    0.14675062934926386    0.10540688210776931    
  0.07981978985643458    0.06564899728265823    0.05885421537465236    0.07310875747317397    0.06872860393465208    
  0.06872716185213815    0.07311115095605412    0.08402277285959969    0.10540111248561784    0.14224072719711653    
  0.19757365291184625    0.26549846986882314    0.3267031738096629    0.36093900755765507    0.3609399685230445    
  0.3267074646492326    0.26551264279318093    0.1975802878948329    0.14221206582020565    0.10540687680209475    
  0.08403233699587385    0.07310875747317397    0.09874206786280738    0.09124591950152679    0.08924136808168727    
  0.09124349237681541    0.0987533074607323    0.11543558073673789    0.14672651800344896    0.1975809580961946    
  0.2641253061129071    0.32561193217314494    0.35911244104322854    0.36701241161618203    0.3591042695903783    
  0.3256166102201156    0.26410682941843    0.19758024915761147    0.14675058496147958    0.11543134463348365    
  0.09874206786280738    0.14024672667002225    0.12970730925323173    0.1262274992182756    0.12623264667805684    
  0.12969295377113335    0.14024233762519428    0.16334773734580807    0.20510752062875942    0.26549733114706087    
  0.32562144529087117    0.35441871626465477    0.3530201263039719    0.3530233901078539    0.35442235139781164    
  0.32561664367515303    0.26551266560374714    0.2051103773210053    0.16332254539908256    0.14024672667002225    
  0.19913259976025616    0.18831708535123656    0.1859569544659421    0.186093694038636    0.18597134937709045    
  0.18832508889687208    0.19910373600787318    0.2255634405903874    0.27170331026327826    0.3266977827598964    
  0.3591099571421872    0.3530226949931537    0.3420380670384173    0.35302337629995    0.3591043148171826    
  0.32670743685335146    0.27168496444633716    0.22556064121043853    0.19913259976025616    0.26760871688726373    
  0.26365093845966536    0.2673474989661722    0.27098693190863204    0.27096477944237485    0.26733800873884256    
  0.2636822517799188    0.26760781496483094    0.2883708981179742    0.32597933475579344    0.3609359626749271    
  0.3670126340054413    0.35302264664199473    0.35302013874284444    0.36701241103812254    0.36094007439816106    
  0.32596894322215986    0.28839210248082525    0.26760871688726373    0.3256142788915767    0.33785946353474783    
  0.35067230620919904    0.35198005237491387    0.34953458006890054    0.3519973720404307    0.3506375667224957    
  0.3378587370653054    0.32563956667311544    0.32909559651674253    0.3469356790763922    0.36093594664683537    
  0.3591099956606538    0.35441875962587543    0.35911243384615643    0.36093903297701674    0.34692910363000884    
  0.3291085828737725    0.3256142788915767    0.3488374021304078    0.3844338809883413    0.4061034243409237    
  0.3827499545720773    0.34378706141810145    0.34380087906034545    0.3827696047682979    0.4061192017857671    
  0.3843901390252056    0.34886464442363585    0.3290955784279047    0.32597931197481783    0.32669777451818777    
  0.32562137045269257    0.3256118787699573    0.326703174709605    0.32596835748717506    0.32911274329214224    
  0.3488374021304078    0.32563375859581817    0.38441135936489096    0.4234425162020049    0.3721731829948793    
  0.2662821306408042    0.2182822868906561    0.2662501585251186    0.372159988057708    0.42348794007273477    
  0.38439014857607146    0.32563961758115356    0.28837092927120567    0.27170334799606616    0.26549731047886627    
  0.26412534753637157    0.2654984510713889    0.2717074197482493    0.2883697159308899    0.32563375859581817    
  0.26762029424174183    0.33784713068277367    0.40611887212268827    0.3721909565065014    0.2255515113313787    
  0.1240530790879193    0.12406364193495663    0.2255722317640221    0.3721599414559173    0.406119233477116    
  0.3378587967447241    0.26760781304330095    0.22556339042644505    0.2051074788506278    0.19758099427210182    
  0.19757361373131208    0.20511336936279495    0.22555224582891506    0.26762029424174183    0.19910522572815612    
  0.2636802437930502    0.35063993669467186    0.3827685354699734    0.2662500714441013    0.12406388533504241    
  0.07847666835185192    0.12406365096961307    0.266250137907028    0.3827696522108655    0.3506375958137999    
  0.26368219960065786    0.19910382154448986    0.16334775115370886    0.14672653494510987    0.14224074802501582    
  0.14672648041136535    0.16334944134024076    0.19910522572815612    0.14024785154751082    0.18831625128319412    
  0.2673477283336143    0.35199537464613273    0.34377326909200184    0.2183019501645217    0.12406386340306326    
  0.12405310875814612    0.2182823051028574    0.34380086748195304    0.3519973799935291    0.26733801533249296    
  0.18832505414557354    0.14024232347524568    0.11543559731310796    0.10540109671382386    0.10540717688257982    
  0.11542920952912102    0.14024785154751082    0.09875466558813141    0.12969181230741575    0.18597705895684866    
  0.2709475977874561    0.349577135685357    0.34377323886306255    0.26625003827580834    0.22555151970706536    
  0.26628207145872546    0.3437871443781878    0.34953462871849916    0.2709648152983209    0.18597133159574364    
  0.1296929702569036    0.09875329749457538    0.08402279310706535    0.07983251192774383    0.084022319473931    
  0.09875466558813141    0.07310359966514707    0.09125165347126969    0.1262207265948843    0.18611391839867455    
  0.2709476309185914    0.35199537692732924    0.38276847868846103    0.37219099505756004    0.3721732186493457    
  0.3827499402143209    0.35198003963295055    0.2709868500695356    0.18609372424273346    0.12623264945769602    
  0.09124349254265163    0.07311113079572235    0.06564454159272662    0.06565133778328443    0.07310359966514707    
  0.05885652957589104    0.06872756447131491    0.08924264011235032    0.1262207695047201    0.1859770961582251    
  0.2673476894395841    0.35063998961692794    0.4061189268003197    0.42344250754517704    0.4061034618539113    
  0.350672280613508    0.2673475317797034    0.18595698209715514    0.12622750618142642    0.08924138202790291    
  0.0687271684667098    0.05885634969600818    0.05598972075343592    0.05885652957589104    0.05186644342490764    
  0.05687225439357297    0.06872756750672178    0.09125164799689173    0.1296917807023954    0.18831623979014148    
  0.2636802104008357    0.3378471219280318    0.3844113418485426    0.3844338941350025    0.33785948851022995    
  0.2636509235571901    0.1883170759105301    0.1297072999585069    0.09124591239938384    0.06872859321711261    
  0.05687350328876581    0.05186536663565949    0.05186644342490764    0.049751359234357216    0.05186644599711211    
  0.05885652691990451    0.07310360477189608    0.09875468154164195    0.1402478570453147    0.19910522024698968    
  0.2676202829539535    0.32563370156137045    0.3488373727052623    0.32561429344847403    0.26760867226203844    
  0.19913260599052174    0.14024677895142432    0.09874209165464078    0.0731087445753745    0.05885419772406425    
  0.05186661214380542    0.049751359234357216    0.04751499093424136    0.04943384862716424    0.05575238098573288    
  0.06840427336320525    0.09065105190427847    0.12585086982515756    0.1746584228822182    0.23012500483992354    
  0.27624293317183246    0.2945262544830715    0.27622115821465754    0.23011532901238094    0.17468502320656157    
  0.12585198423115762    0.09063753206791947    0.06840999559404978    0.055749181391456945    0.049433406231444064    
  0.04751499093424136    0.04943339927903906    0.04943205878227351    0.052854895909754    0.06069548539161811    
  0.07524845659813595    0.09958991368323    0.1358933661295505    0.18190763051944467    0.22749530909841942    
  0.25686770865599073    0.2568620858301448    0.227518417064734    0.1819100066076374    0.1358713328443575    
  0.09959018431915298    0.07525892836159098    0.060693448757781876    0.05285597439585288    0.04943339927903906    
  0.0557491941784605    0.05427504766430448    0.0557516676707374    0.06068905287396462    0.07085505420763187    
  0.08892723747056494    0.11758501230256908    0.1573680723315353    0.20244504876128952    0.23964967980494517    
  0.25432331641111267    0.23965222982533105    0.20242653977604455    0.15736634227835905    0.11760431318202416    
  0.08892940055353492    0.07084067911549827    0.06069346260827161    0.0557491941784605    0.06840999856391158    
  0.06570138290482296    0.06570057113853456    0.06841165702287032    0.07524886525965227    0.0889235257289582    
  0.1124973644148059    0.14775814187429573    0.19200621029758375    0.23490299319073663    0.26169919019582555    
  0.2616980002551379    0.23490197826781833    0.19202077611313714    0.14776419044970224    0.11247119736553704    
  0.08892941416657964    0.07525894933336533    0.06840999856391158    0.09063751725341036    0.08711182766393544    
  0.0862855021518235    0.08710928479637589    0.09065043319580417    0.09959325672322288    0.11758490224313793    
  0.14776168172773638    0.189566736434775    0.23493272241459945    0.2696692223733188    0.282405859784436    
  0.26966748188548956    0.2349379551136812    0.18954654670112422    0.14776413283655326    0.11760430162082315    
  0.09959017104253966    0.09063751725341036    0.12585197738841458    0.12305254315232371    0.12313623538047783    
  0.12314081006794929    0.12303674288117522    0.12584734562712022    0.13589384354393663    0.15736511291529823    
  0.19200524914524686    0.23494187783109355    0.2728330112060851    0.2932048432343886    0.2932034454529293    
  0.2728356178849718    0.2349379626107323    0.19202079515789666    0.15736626347292762    0.1358712867932376    
  0.12585197738841458    0.17468501158064068    0.17671150496442922    0.1818374033710583    0.18437157556095451    
  0.1818543489008259    0.17672055920122398    0.17465896518488577    0.1819087417944461    0.20244735907867767    
  0.23489203767724606    0.26967307217944264    0.2932027082190172    0.30059807868436067    0.2932034703327917    
  0.2696675484655842    0.23490192415718197    0.20242659239888963    0.1819100359079578    0.17468501158064068    
  0.23011538919637312    0.24397377257955974    0.2598757347142589    0.26947593610404225    0.26945235435721515    
  0.2598625711383691    0.24400178614499343    0.23012013519565416    0.22749600770131717    0.2396602494026737    
  0.26169608879263356    0.2824049395645395    0.29320273447500833    0.29320483493413324    0.28240585601514623    
  0.26169803717826406    0.23965224922496756    0.2275184025152025    0.23011538919637312    0.27622113332216897    
  0.3084607930654561    0.33638594043793724    0.3457946916875078    0.3453801208426656    0.34581543907461093    
  0.3363574835252146    0.3084534125696548    0.27624672094080766    0.25685105252893253    0.25432905911409215    
  0.26169611446024676    0.26967305999916247    0.2728330134829913    0.26966925250108176    0.2616991921977483    
  0.25432327354284945    0.2568620148940407    0.27622113332216897    0.29452630822222975    0.34802476845622143    
  0.3836267741058617    0.36565355460526094    0.3263108463681639    0.3263217840439933    0.36566467267123487    
  0.3836514694349616    0.3479774094830015    0.2945544923794193    0.2568509843777369    0.23966020267057825    
  0.23489204121109758    0.23494184478309896    0.23493270642249162    0.23490302483819983    0.23964964347590575    
  0.2568676765039373    0.29452630822222975    0.27624296693753514    0.34799874061199987    0.3971217906368062    
  0.34593659738265947    0.23673374673758238    0.1885622639517304    0.23671368136785303    0.34591089103243094    
  0.39717357809566584    0.3479774488095094    0.27624675321897185    0.22749601994297516    0.2024473717316955    
  0.19200530689824333    0.18956674927813066    0.19200619301944827    0.20244507066431638    0.22749533711537762    
  0.27624296693753514    0.23012500721675203    0.308446599104228    0.3836481202819859    0.3459488563013125    
  0.1933349973067354    0.09594174234689806    0.09593956150090968    0.1933667821669181    0.3459108781585543    
  0.3836515153182859    0.30845347482136465    0.2301201342098365    0.18190872891485663    0.1573651313611648    
  0.14776171363829932    0.14775808363050127    0.15736807902086478    0.1819075963460686    0.23012500721675203    
  0.17465845628722526    0.24400136168133796    0.33635661353568136    0.3656639555718994    0.23671491000239214    
  0.095940743514004    0.05533620256279515    0.09593958869398621    0.23671369286715113    0.36566465303476386    
  0.3363574594956027    0.24400173615566667    0.17465902076781864    0.13589384200540172    0.11758490429263511    
  0.11249737349114387    0.11758502414979675    0.13589336550971237    0.17465845628722526    0.1258508675757732    
  0.17671465942095385    0.25987352980219414    0.3458167337168016    0.32628724847193924    0.1885883193453857    
  0.09594073014122877    0.09594174964423817    0.1885622427242468    0.32632180437469616    0.3458154466385812    
  0.25986259025417574    0.17672052601083643    0.125847341745686    0.09959326938334682    0.08892351068180947    
  0.08892725027521711    0.09958989452516523    0.1258508675757732    0.09065106383057052    0.12303808502469338    
  0.18185503665388783    0.2694309425796961    0.3454308176656574    0.32628723393980097    0.23671486799916547    
  0.19333502882617182    0.23673373015197677    0.3263108999424316    0.34538018059379466    0.26945238342228106    
  0.18185428881784196    0.12303674665719841    0.09065044828613109    0.0752488656480245    0.07085505562734672    
  0.07524844634659002    0.09065106383057052    0.06840427337045106    0.08711650820856233    0.12312779472440614    
  0.18440014735515753    0.2694309765243164    0.34581678408455785    0.36566393434880967    0.34594883314893543    
  0.34593659565177487    0.3656535337529916    0.3457947158180134    0.2694758958423805    0.18437161437053834    
  0.12314080411170204    0.08710930300469917    0.06841163944055996    0.060689059618972946    0.06069549020345198    
  0.06840427337045106    0.05575238766184442    0.06570138751261466    0.08628762422827137    0.1231278268636461    
  0.18185508251366797    0.2598735371964753    0.3363566681176383    0.38364817816528    0.3971218509159901    
  0.3836267392368507    0.33638588946499043    0.2598757418892697    0.18183739906083707    0.12313624226013407    
  0.08628550550143936    0.06570056997436811    0.05575168017263611    0.05285488517585688    0.05575238766184442    
  0.049433835546818274    0.05427174949691003    0.06570137812253327    0.08711651375914664    0.12303808003449876    
  0.1767146512905155    0.24400138398174812    0.3084465232360323    0.3479987975653037    0.34802484188068966    
  0.3084608410682534    0.24397381722422523    0.17671152901674417    0.12305253295668535    0.08711181746893969    
  0.06570137847508604    0.0542750356351398    0.04943205580641641    0.049433835546818274    0.04751499093424136    
  0.04943384862716424    0.05575238098573288    0.06840427336320525    0.09065105190427847    0.12585086982515756    
  0.1746584228822182    0.23012500483992354    0.27624293317183246    0.2945262544830715    0.27622115821465754    
  0.23011532901238094    0.17468502320656157    0.12585198423115762    0.09063753206791947    0.06840999559404978    
  0.055749181391456945    0.049433406231444064    0.04751499093424136    0.04433754402520964    0.04595885262879464    
  0.05131115666077697    0.06183578228980086    0.07973455732760956    0.10700839007738498    0.14350828131433033    
  0.18380495152721135    0.21660963534897898    0.2294607457241829    0.21659998351206902    0.18379953809551894    
  0.14353051476827333    0.10700331276414997    0.07972886697958009    0.06183887343827087    0.051308253062384034    
  0.045959190709471055    0.04433754402520964    0.04595918337268426    0.04596031981858303    0.04864362722996127    
  0.054745950022055075    0.06572075007316784    0.08334137129069939    0.10862251580551452    0.1395299421249833    
  0.16923218919919403    0.18799064149706526    0.1879831291882818    0.1692472691202479    0.1395281086683728    
  0.1086092775372002    0.08334153944081293    0.0657266681506639    0.05474499088582536    0.048645467792123365    
  0.04595918337268426    0.0513082557877154    0.05027809572155502    0.05130972781239723    0.05474263565725606    
  0.06168433718084651    0.07367105664167325    0.09206193702506404    0.11676120546968626    0.14386762125051739    
  0.16575082778728947    0.1743089981937417    0.1657509268317193    0.14386007012943208    0.11675776004897627    
  0.09207665975798392    0.0736721539305815    0.0616755302175425    0.05474500383040083    0.0513082557877154    
  0.061838890987434725    0.06034489023059005    0.060342116690516465    0.061840939778362206    0.06572043680875653    
  0.07366827542087598    0.08738546751227168    0.10759733069011579    0.1324969954693094    0.15644929941283073    
  0.1715088205534061    0.17151483953008695    0.15644484924149057    0.13250613802083896    0.10760170939967065    
  0.08736683130232654    0.07367216496481857    0.06572666570280493    0.061838890987434725    0.07972885204240927    
  0.07882822165672808    0.0787564750634586    0.0788285573581931    0.07973489355489138    0.08334336760104699    
  0.0920629966896498    0.10760016967092198    0.1295276145095767    0.15391968737534037    0.17358965032347545    
  0.18118192148219783    0.17358565288404923    0.15392560969977057    0.12951445975335918    0.10760169577871549    
  0.09207664609796529    0.08334152078738376    0.07972885204240927    0.10700330696082938    0.10903840194105582    
  0.11119625637708694    0.11120142647808133    0.10902526771687766    0.10700589265464011    0.1086226390636891    
  0.11675690913971441    0.13249738186150004    0.15392746522252287    0.1751015401695821    0.1882125930135534    
  0.1882135358822587    0.17510279173458965    0.15392562877422086    0.13250615723821257    0.11675775098327638    
  0.10860928929121223    0.10700330696082938    0.14353050761936637    0.15285706365481652    0.16207501072497485    
  0.16584690883035336    0.16208429452304599    0.15286210272507936    0.14350769023815796    0.1395337310946741    
  0.1438684026834656    0.15644077611796003    0.17358952291956165    0.18821291308152743    0.19385185738536861    
  0.1882135368718568    0.1735856972820799    0.15644479177193776    0.14386009297380586    0.1395281513424386    
  0.14353050761936637    0.18379956310755363    0.20658998090041394    0.22944109520552744    0.24311310771120262    
  0.24309671811181185    0.22944049800006766    0.20661000772611032    0.18380048418109093    0.1692324445908991    
  0.16575838090919823    0.17151078648962473    0.18118145463862342    0.1882129232729476    0.18821259710348198    
  0.18118190693775246    0.1715148380650709    0.1657509719130403    0.16924727375382392    0.18379956310755363    
  0.21659998452781506    0.2574952401846433    0.2973203892580053    0.32029366655903363    0.3261067052399435    
  0.32029943858281734    0.2972905269595126    0.257501923449007    0.21661059320002551    0.18797968147975733    
  0.17430957779566697    0.17151081605375487    0.17358953697514726    0.17510152489089978    0.17358963753428364    