#     DFTpy    
  CRYSTAL 
    
  PRIMVEC    
  2.6819222223720462    -4.64522555109642    0.0    
  2.6819222223720462    4.64522555109642    0.0    
  0.0    0.0    8.865670800212675    
  PRIMCOORD    
  4    1    
  Si    2.6819222223720462    1.54840851703214    0.5586214842859988    
  Si    2.6819222223720462    -1.5484085170321409    4.991456884392337    
  Si    2.6819222223720462    1.5484085170321407    3.8742139158203384    
  Si    2.6819222223720467    -1.5484085170321407    8.307049315926676    
  BEGIN_BLOCK_DATAGRID_3D    
  3d_datagrid_density    
  BEGIN_DATAGRID_3D#0    
  23    23    41    
  0.0    0.0    0.0    
  2.6819222223720462    -4.64522555109642    0.0    
  2.6819222223720462    4.64522555109642    0.0    
  0.0    0.0    8.865670800212675    
  0.011348519061024246    0.011789111300778211    0.013207280706098775    0.015858630461938066    0.020214731770171898    
  0.027056129458057996    0.03732919103737228    0.05184094988755857    0.07033618736029469    0.09014222239214414    
  0.1060157039548446    0.11216257096248977    0.10601571524631422    0.09014224945855057    0.07033619792592527    
  0.051840958455529405    0.03732918325321454    0.0270561507606631    0.020214725744963222    0.015858637831222024    
  0.01320727427833017    0.011789111217685678    0.011348519061024246    0.011789116670914266    0.011788808314398234    
  0.012719983680194625    0.014776092245704054    0.0183655695243202    0.024202565337029858    0.03335210218591559    
  0.04700626161939749    0.06576260747615657    0.0881754008945915    0.10956266820423174    0.12300001867807626    
  0.12300174684475186    0.10956073092448439    0.08816421873482128    0.06577302434562912    0.047008404633888015    
  0.03334846255553381    0.024203056663167577    0.01836573204259835    0.014776132656922437    0.012719615678682189    
  0.011789116670914266    0.01320727777036684    0.012719980521211701    0.013207248463425563    0.014775837936351734    
  0.017831323384778372    0.023149498754994433    0.032009150317096884    0.0463093474505818    0.06789354909386251    
  0.09675706215366355    0.12873991920881148    0.15488186437102203    0.16511481301385028    0.15488484032982386    
  0.12875562101693913    0.09675369269836816    0.06788168292538801    0.04631168601415765    0.03201134026938498    
  0.023148929381467793    0.017831054106969984    0.014776137640388737    0.01320727777036684    0.015858635632178555    
  0.014776094843211358    0.014775842486830771    0.01585904144216274    0.018365499274535346    0.023148801721013544    
  0.031749134641702016    0.04676997875024771    0.07168179321845297    0.1089742778761083    0.15618120039914074    
  0.20213793108799694    0.2306531680528851    0.23064403857210203    0.20211770049566066    0.15618720375762113    
  0.10898094458662715    0.07168510561889857    0.046769858596153645    0.03174675436547149    0.02314893491328877    
  0.018365741341657194    0.015858635632178555    0.020214726067569556    0.018365568129020883    0.017831331744947124    
  0.018365494264418927    0.020214961759169908    0.024202961995529126    0.03200933248677491    0.04676949020225352    
  0.07348507487349422    0.11768843218948485    0.18039637128017946    0.24901115747117739    0.29912503816380587    
  0.31620855187204755    0.2991538761090861    0.24900418603098748    0.18038631971417363    0.1176956658042503    
  0.07347811759228447    0.046769854744644686    0.032011335454684896    0.024203067281252627    0.020214726067569556    
  0.02705613936290008    0.024202571780622704    0.023149517731558624    0.023148805223598724    0.024202951430539427    
  0.027055301654092596    0.03335236669202355    0.046309922880946146    0.07168207088933355    0.11769357622264953    
  0.1900485451278393    0.27675641145791496    0.3402928588554547    0.36145442293773566    0.36144311415235475    
  0.3403117085785393    0.2767818825475885    0.19003586874314363    0.11769561777111115    0.07168507970003565    
  0.046311693771404844    0.033348461503759974    0.02705613936290008    0.037329175399104055    0.0333521050885084    
  0.03200916257100813    0.03174912377364076    0.03200933327303469    0.03335234979814788    0.03732560274990657    
  0.04700966179058277    0.06788628827487854    0.10898009556367004    0.1803803393221175    0.27677846750045276    
  0.35064412334462264    0.3594766703394903    0.3479402722911534    0.3594668640562813    0.35064981697934455    
  0.2767818877199502    0.1803862980381778    0.10898090817688967    0.06788167953876129    0.04700843290516456    
  0.037329175399104055    0.05184096190612819    0.04700627350814353    0.046309352349810505    0.0467699612782482    
  0.04676949155675636    0.046309925856872644    0.04700967383815692    0.051840816454001126    0.06576576131920993    
  0.09675907707112032    0.15618368527796697    0.24901008093789986    0.3403071427426848    0.35946186934278207    
  0.3256638623604169    0.32568004146826496    0.3594667827625525    0.34031177310229677    0.24900419896233678    
  0.15618720300061087    0.0967537107029835    0.06577302509599044    0.05184096190612819    0.07033620590509582    
  0.06576261502375833    0.06789358964460808    0.07168182488056937    0.07348509893764388    0.07168205722526821    
  0.06788630753546518    0.06576576729682712    0.07034179447771292    0.08816361176168816    0.1287527830759617    
  0.20212021384322312    0.2991563835387979    0.3614059772153662    0.3479772799762239    0.3256639256489719    
  0.3479403128905814    0.3614431150597423    0.2991537351646055    0.20211768031162344    0.12875568122599929    
  0.08816422449066057    0.07033620590509582    0.09014226274964572    0.08817539011187846    0.09675707248485829    
  0.10897423721435634    0.11768847297421109    0.11769356739877969    0.10898005410901211    0.0967590452826411    
  0.08816361754823013    0.09014876780508314    0.10955798294713764    0.1548896129393088    0.23064161272460376    
  0.3162338678020806    0.3614058752372081    0.35946187351114606    0.35947662942576225    0.3614544056225737    
  0.31620855069434994    0.23064391932986814    0.15488481021852796    0.1095607739536798    0.09014226274964572    
  0.10601570257993465    0.10956263761609146    0.12873987643864998    0.15618114191847424    0.18039634896229978    
  0.19004844003842997    0.18038036236532823    0.15618371348841328    0.12875278146395902    0.10955800035049472    
  0.10601781960158654    0.1230015323236905    0.16511690793190917    0.23064166939886083    0.29915631773858553    
  0.3403071748073069    0.3506442450030429    0.3402929348654961    0.29912497583205006    0.2306531643794582    
  0.16511482227182162    0.12300176199489857    0.10601570257993465    0.1121625903385713    0.12300000830469543    
  0.15488179775418354    0.2021379164290763    0.2490111880062901    0.27675635568231055    0.2767785389559133    
  0.24901011882311938    0.2021201719381109    0.15488959558800675    0.12300154680077785    0.11216108922624472    
  0.12300153193039447    0.15488964797844357    0.20212015139277673    0.2490101644437605    0.27677850666268716    
  0.27675639728100343    0.2490111526676815    0.20213792112321122    0.15488179139555378    0.12300003227921077    
  0.1121625903385713    0.1060156908706392    0.12300176896127993    0.16511483459747542    0.23065319425038336    
  0.2991249490093232    0.3402927748622338    0.3506441469266787    0.3403070943755414    0.2991562852458583    
  0.23064165249472124    0.16511689877689367    0.12300153653681437    0.10601781461166479    0.1095579966098292    
  0.1287527831234844    0.15618372857096893    0.18038033279338828    0.19004848519370118    0.18039633332432173    
  0.15618119351299398    0.1287399060981747    0.10956263182429905    0.1060156908706392    0.09014223058042813    
  0.10956074741025228    0.15488477509037016    0.2306439305499788    0.3162085466273693    0.36145436295040256    
  0.35947669727111187    0.3594618074221784    0.36140591617795836    0.3162337786070304    0.2306417024122741    
  0.15488965174941394    0.10955799626785427    0.09014878176851    0.08816359875990981    0.09675907687803105    
  0.1089800893437357    0.11769355442915024    0.11768843336010217    0.10897428022060103    0.09675706320545616    
  0.08817542173771953    0.09014223058042813    0.07033621376075541    0.08816422468195997    0.12875570412878223    
  0.20211771834436768    0.29915383483649044    0.3614430821097423    0.3479402916387895    0.32566396048883106    
  0.34797725654218614    0.3614059855624424    0.2991563194369786    0.20212019752425112    0.1287527840516123    
  0.08816365319863224    0.07034179820214664    0.06576576430471805    0.06788631850186021    0.07168206502644692    
  0.07348505403214178    0.07168182242313745    0.06789355491654044    0.06576263780509016    0.07033621376075541    
  0.0518409553469265    0.06577300896472542    0.09675373111820572    0.1561871795633224    0.24900416680931897    
  0.34031184218838856    0.359466866274356    0.3256800970915261    0.3256639366275529    0.35946171846007013    
  0.34030719833368356    0.24901012649809331    0.15618375510542254    0.09675910511518131    0.06576576831893838    
  0.05184079173787702    0.0470096736337677    0.046309928305827704    0.04676948824147513    0.046769980516942734    
  0.04630936822494264    0.04700627714615727    0.0518409553469265    0.03732917285705699    0.0470084041760158    
  0.06788169043524812    0.10898092899318329    0.1803863683491145    0.2767818166922243    0.35064989670742397    
  0.35946680526597896    0.34794037225833657    0.3594766542600533    0.35064423758205304    0.2767784961657214    
  0.18038028005738985    0.10898008977886145    0.06788631370363174    0.0470096775227802    0.03732559425049139    
  0.03335234665351438    0.032009334349735345    0.03174910816609755    0.032009157603387246    0.0333521008181198    
  0.03732917285705699    0.027056146381254823    0.0333484501045627    0.046311689191795326    0.07168508637991453    
  0.1176956829813963    0.19003584033951043    0.27678190674713954    0.34031182171257324    0.3614430331664262    
  0.3614544345570113    0.3402928955758561    0.27675648477131876    0.1900485017613971    0.11769359739462332    
  0.07168206830766831    0.04630993482120679    0.03335234898463159    0.027055304475444703    0.0242029573509597    
  0.023148799661554125    0.023149514151848773    0.024202575395645572    0.027056146381254823    0.020214730845165826    
  0.024203066903952936    0.03201134950723403    0.0467698593544998    0.07347811737913167    0.11769564846047637    
  0.18038634457130834    0.24900416338918485    0.2991538147648545    0.3162085186870707    0.2991249639916846    
  0.24901116397907033    0.18039631040310028    0.1176884558065628    0.0734850322661812    0.04676949264937326    
  0.03200932465990496    0.024202960905027836    0.02021496775316841    0.01836549733717378    0.017831330684255187    
  0.018365572658556997    0.020214730845165826    0.015858633542640534    0.01836573542839259    0.023148943065665145    
  0.03174675386922757    0.046769878005534025    0.07168508527863869    0.10898095697233606    0.15618723683637775    
  0.20211765109726815    0.23064392744289353    0.23065322461196752    0.20213796114216684    0.1561811948652842    
  0.10897429490061104    0.0716818270021892    0.04676996053529881    0.031749133056776825    0.023148801599449844    
  0.01836549818708845    0.015859033430706576    0.014775841845668776    0.014776095764256734    0.015858633542640534    
  0.01320727513923046    0.01477613378981366    0.017831058460074604    0.023148925026875333    0.032011338230534814    
  0.046311669824121646    0.06788167086393009    0.09675371109740682    0.12875566816327189    0.15488481456734435    
  0.16511486685650403    0.15488184043849237    0.12873988203741862    0.09675704890721365    0.0678935250652684    
  0.04630934837184199    0.03200915616329791    0.023149509507587276    0.017831329279537293    0.014775840424841154    
  0.01320724448677062    0.012719987737949405    0.01320727513923046    0.011789117684989307    0.012719618364648343    
  0.014776142627875126    0.018365734459090885    0.02420305684334498    0.0333484480548743    0.0470084227732219    
  0.06577303769770641    0.08816425476198116    0.10956073605787676    0.12300178893546547    0.12300001547504624    
  0.10956262513386136    0.08817542958271664    0.06576261494830048    0.047006275786143435    0.03335209709678211    
  0.024202571299373355    0.01836556578992424    0.014776095291356817    0.012719983156544379    0.011788812847964247    
  0.011789117684989307    0.011348519061024246    0.011789111300778211    0.013207280706098775    0.015858630461938066    
  0.020214731770171898    0.027056129458057996    0.03732919103737228    0.05184094988755857    0.07033618736029469    
  0.09014222239214414    0.1060157039548446    0.11216257096248977    0.10601571524631422    0.09014224945855057    
  0.07033619792592527    0.051840958455529405    0.03732918325321454    0.0270561507606631    0.020214725744963222    
  0.015858637831222024    0.01320727427833017    0.011789111217685678    0.011348519061024246    0.011209358863429303    
  0.011645719741074787    0.013044742551640053    0.015654301296573428    0.01993021824828549    0.026632205015970117    
  0.03666458700381039    0.05083082199435557    0.06884970181798988    0.08805509986957505    0.10343093189612439    
  0.10939108741550436    0.1034392040484652    0.08805547832991356    0.06882498711088963    0.05083670561503682    
  0.03667577680802754    0.026629571485112136    0.019929901693400486    0.015654040660300978    0.013044976401432817    
  0.011645616459047386    0.011209358863429303    0.01164562132337623    0.011645151978660492    0.012531147136199582    
  0.014474218464512403    0.017812786714669616    0.023150778144662865    0.031365069337194545    0.04331454378514163    
  0.05937678917932089    0.07829636066756558    0.09613897689621109    0.10727427268325472    0.107274346409099    
  0.09613203859579793    0.07829418430741161    0.059398685100456504    0.04331085131170481    0.031354484321268486    
  0.023153389664525695    0.017812966481366287    0.014474523960835142    0.012530595469275442    0.01164562132337623    
  0.013044975236329982    0.012598739201176932    0.013044827684861898    0.014474541478507425    0.017205891770023338    
  0.02183560191940868    0.02929564222954279    0.04092418841704209    0.05790680526261147    0.07995001653535681    
  0.10386519742698092    0.12318748425538496    0.13071765166192076    0.12318807446488075    0.1038725189184575    
  0.07995182492198709    0.057886806057257045    0.0409269020718406    0.029304765540392217    0.02183355853444058    
  0.017205629091393053    0.014474526571048741    0.013044975236329982    0.01565403334225676    0.014704483149615847    
  0.014704645778616186    0.015654000787725112    0.017812644613971085    0.02183227217973095    0.02881861908035525    
  0.04049966134145397    0.0591216997860939    0.08610550057566166    0.11946391111195825    0.1518239948536648    
  0.17215994192503978    0.17215854222143404    0.151822932621934    0.11945942233158453    0.08610261282781287    
  0.05913953083287548    0.0404991083041935    0.028809217164073888    0.02183355999870446    0.017812970258507484    
  0.01565403334225676    0.019929903062015406    0.01841920048655128    0.01797546183639098    0.0184192205297913    
  0.019930515843749455    0.023154193711091165    0.029295296179272762    0.040499171490968905    0.06000010709133747    
  0.09107537325332288    0.13434203891631102    0.18293647753875586    0.22170918231190306    0.23634759008886938    
  0.2217111912920598    0.18293616328449314    0.1343467953315067    0.09108123944165403    0.059981014028453634    
  0.040499120283275555    0.029304762118046595    0.023153401868815666    0.019929903062015406    0.026629567716468402    
  0.024526325036864062    0.02378254903363954    0.023781696662896108    0.02452606141065006    0.02662834013650793    
  0.03136570208599619    0.040925358429429085    0.05912234143023893    0.0910857573394067    0.14050082398399932    
  0.20312325603626277    0.2608424838678276    0.29325256618739187    0.2932553001503457    0.2608512813636152    
  0.20312593036967355    0.14049591673033177    0.09108123864582093    0.05913952259222595    0.04092690852225521    
  0.031354481964353934    0.026629567716468402    0.03667576662061893    0.03423578370302784    0.03369820462191278    
  0.033685654357608966    0.03369935096742262    0.0342363309012297    0.036663274013962896    0.04331321197084136    
  0.057904500370855184    0.08609604274699702    0.1343429124639    0.20312488172353116    0.275078212098739    
  0.32199965001712405    0.3359366688333822    0.32199746249533023    0.2750813051988595    0.20312599727773079    
  0.13434682144864118    0.08610259014259491    0.0578868112085696    0.043310839416893704    0.03667576662061893    
  0.05083671069261333    0.048987340993774615    0.05012545568030287    0.05152111704661843    0.05152009803007494    
  0.05012470321016636    0.04900372219180641    0.050832646555085244    0.05937998708406924    0.07995944297142435    
  0.11946254132489564    0.18293569203792756    0.26084489449030823    0.3219962101634926    0.3467679331087772    
  0.3467638977524868    0.3219973865144969    0.26085131750052065    0.18293615633295524    0.11945942491508857    
  0.07995183830562459    0.059398692384655574    0.05083671069261333    0.06882498326426541    0.06955071280860294    
  0.0754987458372906    0.08193091007379284    0.08468259087962668    0.08193109131819105    0.07547565971588738    
  0.06955598870549519    0.06884778997885514    0.07828596247385905    0.10386915442105749    0.15182268224897835    
  0.2217150935133434    0.29324698809493155    0.33593544552984284    0.3467679732776754    0.33593660732124503    
  0.2932553402965119    0.2217111828082089    0.15182287059317603    0.1038725618372377    0.0782942046285579    
  0.06882498326426541    0.0880554668160618    0.09436375799323049    0.1101234090481593    0.12847239932024174    
  0.14086642753365175    0.1408698074322056    0.12850808088629284    0.1101178771789234    0.09433448106957516    
  0.08806568471837734    0.09613510784463383    0.12318946623554207    0.17215660406938604    0.23635027016575308    
  0.29324692216180076    0.3219962570364517    0.32199961478558936    0.29325254386176197    0.2363475730768672    
  0.17215845632861754    0.12318804971711023    0.09613205980850582    0.0880554668160618    0.103439226142334    
  0.11820372809604021    0.14899687919320093    0.1878870014856176    0.22034803781783127    0.2327786971868439    
  0.22028572396871193    0.18789535462722065    0.1490386318503233    0.11819213507582164    0.10343676706711946    
  0.10727502816110368    0.13071956437428708    0.1721566684652545    0.22171495540894068    0.2608449715647032    
  0.2750783321811611    0.2608425965748279    0.22170914880383427    0.17215994636647786    0.13071761468024826    
  0.1072743652740637    0.103439226142334    0.10939113007638111    0.133222917870882    0.18087482414059558    
  0.2446788960674094    0.3009497947920431    0.3287771025953721    0.32886088434225974    0.30094675284541694    
  0.24461972404058088    0.18089185255853885    0.13323109185687879    0.10938827901573782    0.10727500213952307    
  0.12318947852778105    0.15182267259024068    0.18293572099643096    0.20312487902796647    0.20312328749782363    
  0.1829365381917472    0.15182399064846475    0.12318740964843196    0.1072742828724298    0.10939113007638111    
  0.10343092982500754    0.13323348159060341    0.1933156247328199    0.2785875667997263    0.348740206871928    
  0.36405864249058056    0.3568603557156228    0.36409039559197365    0.3488298378588691    0.2785606219781889    
  0.19331383098060434    0.13323109820213253    0.10343675173682966    0.09613507152209473    0.10386911582332244    
  0.11946254431969777    0.1343428912420364    0.14050073484044392    0.13434201503229334    0.11946392186946282    
  0.10386515811893295    0.09613898095375438    0.10343092982500754    0.08805512250778863    0.11820363246418727    
  0.1808773077413903    0.27856407019267937    0.36080580203372237    0.3445103041066571    0.2808646966520225    
  0.2808253378292121    0.34438200133446345    0.3608825868509901    0.27856076256089163    0.18089199259981037    
  0.11819218727263288    0.08806567593993113    0.07828596095733274    0.07995947290257555    0.08609603406419208    
  0.09108575236405692    0.09107534300030168    0.08610550410369884    0.07995003839693193    0.0782963927047927    
  0.08805512250778863    0.06884969334904312    0.09432972950154785    0.14904557761718681    0.24460969119029405    
  0.3488391468886608    0.34446329192457636    0.2339970936239484    0.17899592839341694    0.23410074648537327    
  0.3443820942421331    0.3488299622644301    0.24461974097258812    0.14903866633077373    0.09433451298701563    
  0.06884779774160582    0.05937997959343093    0.05790454442990571    0.05912238307546242    0.06000008095690604    
  0.059121713697166574    0.0579068158212824    0.059376809061290614    0.06884969334904312    0.05083083420474802    
  0.06956053274443896    0.1101105845039445    0.18790614487433147    0.30092884118424956    0.3640760443322115    
  0.2808515906044864    0.1790449041427163    0.17899588513180617    0.28082538823290515    0.3640904922175516    
  0.3009468064107447    0.18789535938123503    0.11011792409389153    0.06955601181788683    0.05083263762193946    
  0.04331322895360325    0.04092537270165013    0.04049915831709234    0.0404996584443319    0.040924213323152055    
  0.04331454401731281    0.05083083420474802    0.03666457849184741    0.049001620303925394    0.07547736283571481    
  0.12850436468059373    0.22030018883384606    0.32887450935355544    0.3568496479114912    0.28085155119649224    
  0.23399716402583828    0.28086463274026213    0.3568603579335292    0.32886081732458483    0.22028566965083488    
  0.12850807908567496    0.07547568534327123    0.04900369233973257    0.036663277716740765    0.03136568276584096    
  0.0292952949776568    0.02881860296183324    0.029295656213491582    0.031365071394259494    0.03666457849184741    
  0.026632222009185694    0.03423115417809774    0.05013143171452266    0.08192152105506996    0.14088489205738594    
  0.2327309165124921    0.3288745578181097    0.36407602673119377    0.3444632592980366    0.3445102644040708    
  0.3640587434707591    0.32877722819670896    0.23277879540557853    0.14086984464847577    0.08193106774695161    
  0.05012469143414519    0.03423633474060081    0.026628346239825854    0.023154194078839802    0.02183226608725519    
  0.02183561118353262    0.0231507831123342    0.026632222009185694    0.019930223487590656    0.024526612606357377    
  0.03369841544090515    0.051521840070659575    0.08467940980251086    0.14088484620461214    0.220300220906288    
  0.3009287728760193    0.348839113832569    0.3608057427967908    0.34874019624684927    0.3009498119041428    
  0.22034796188198888    0.1408664716167458    0.08468256664498339    0.05152010162601078    0.03369933126126951    
  0.024526063782879942    0.01993052672185328    0.01781264057078774    0.01720590625553686    0.01781278491351255    
  0.019930223487590656    0.01565430212607625    0.018418627692257113    0.02378255554183323    0.03368421381341392    
  0.051521864625258124    0.0819215092661938    0.12850436716908042    0.18790615003526667    0.24460956022907898    
  0.27856406255830246    0.27858742243862034    0.24467894602881224    0.1878870086585515    0.12847239084225337    
  0.08193090826120074    0.05152111172158328    0.03368565276593287    0.02378169462219689    0.01841922964060276    
  0.015654003559005095    0.014474544281021151    0.014474221516121478    0.01565430212607625    0.013044739988350448    
  0.014704970920196023    0.017975134749021793    0.023782533821975264    0.03369840458647438    0.05013141121302137    
  0.07547735920883199    0.1101105436703752    0.14904554306750056    0.18087728138345474    0.193315651974862    
  0.18087485100345024    0.1489968694175168    0.11012339222017083    0.07549869795322212    0.050125454093100694    
  0.03369820195895924    0.023782538190123614    0.017975458825585093    0.014704640321039129    0.013044819653334485    
  0.012531148455820477    0.013044739988350448    0.011645726956169307    0.012598120625372815    0.014704980177047597    
  0.018418620827729944    0.024526604500287357    0.03423115658583095    0.04900161126299131    0.06956056310009673    
  0.09432974655280892    0.11820363471052532    0.13323348546514527    0.13322289376747637    0.11820375653581218    
  0.09436378950771042    0.06955071027180953    0.04898736665018487    0.0342357861077337    0.02452632803886567    
  0.018419198173957832    0.01470448256589005    0.012598738237352362    0.011645155870675297    0.011645726956169307    
  0.011209358863429303    0.011645719741074787    0.013044742551640053    0.015654301296573428    0.01993021824828549    
  0.026632205015970117    0.03666458700381039    0.05083082199435557    0.06884970181798988    0.08805509986957505    
  0.10343093189612439    0.10939108741550436    0.1034392040484652    0.08805547832991356    0.06882498711088963    
  0.05083670561503682    0.03667577680802754    0.026629571485112136    0.019929901693400486    0.015654040660300978    
  0.013044976401432817    0.011645616459047386    0.011209358863429303    0.010817958888767102    0.01123839758425666    
  0.01257799522762899    0.015062389260938525    0.019109101501727357    0.025410436013563974    0.034768614045833396    
  0.047921163720678166    0.06452222575992153    0.08204605421760428    0.09601493368067497    0.10142591405938362    
  0.09602920970099009    0.08204912863137243    0.06448312754542072    0.04792865209438735    0.03478850995964542    
  0.025405198418201987    0.019108741726884405    0.015061925646890616    0.012578268860599286    0.01123830892352731    
  0.010817958888767102    0.011238310860150522    0.011237821309385842    0.012059941867972514    0.013843611592704875    
  0.01684755466021593    0.021548050004820025    0.028626971200711174    0.03862600211766867    0.051713809051308186    
  0.06683801822734416    0.0808738265283546    0.08954434737012394    0.08954438616306426    0.08086227932448097    
  0.06683578621247588    0.05174550325614418    0.03862097130015549    0.028609466642400598    0.021552613199224874    
  0.01684773889396625    0.013844244701854542    0.01205930027268864    0.011238310860150522    0.012578268716706602    
  0.012180670385606069    0.012578067508053792    0.013844481822784867    0.016202430144374506    0.020070047493665068    
  0.026065077965860942    0.03503630273705473    0.04760791867196788    0.06333320628500208    0.07995292231233056    
  0.09315427924586239    0.09825269936377118    0.09315448153413888    0.07996206686988806    0.06333692437890123    
  0.047579806464873906    0.035039394562644606    0.026080652129941484    0.02006665226860156    0.016201891408002145    
  0.013844248774513387    0.012578268716706602    0.015061925908027018    0.014259160724080119    0.014259525848359855    
  0.01506152130617774    0.016847273998448934    0.02006395400090235    0.02543963583456151    0.03396099744425681    
  0.04688201852870176    0.0648541081684172    0.086298185554169    0.10665928468241534    0.11937048113202586    
  0.11936972009722722    0.10666086969101626    0.08628896929987676    0.06484896662552939    0.04690840615934473    
  0.03396020309537568    0.02542383812692184    0.020066651211547125    0.016847750325175034    0.015061925908027018    
  0.019108743421955513    0.0179440353142492    0.017595965800352754    0.01794430405943609    0.01910972614706052    
  0.021554381667724942    0.026064800401614536    0.03396029866043424    0.047048527020563814    0.06692856268981133    
  0.09361372808692432    0.12312293747821595    0.1469780050045686    0.15619643248057002    0.1469771631995417    
  0.12312295856837004    0.09362256016014289    0.06693507780260255    0.04702161478455428    0.033960195953232436    
  0.026080645495148807    0.021552622136249262    0.019108743421955513    0.025405198022241365    0.02403492812803089    
  0.02358303236947646    0.023581842727897446    0.02403401832668897    0.025403318648259007    0.028627589390856505    
  0.03503746962068526    0.0468828179030297    0.06694178506367651    0.09683079445401475    0.1344046884532513    
  0.1708107394435656    0.19339303155526139    0.19339537439416113    0.1708132755187953    0.13440509144120188    
  0.09682388215584005    0.06693504498221896    0.046908378643652736    0.03503940734920862    0.02860946373133491    
  0.025405198022241365    0.03478849387309256    0.03377880115482207    0.03394722525564688    0.03413976619577112    
  0.03394938243394154    0.033780137472360666    0.03476737975994482    0.0386242614173267    0.04760602701705356    
  0.0648407912503507    0.09361613367470799    0.13440583411368054    0.18021411945173194    0.21657196865254252    
  0.23030619104850603    0.21657176532525554    0.1802145798679375    0.13440511742376363    0.09362258737671256    
  0.06484895735775006    0.047579810520110115    0.03862098347853004    0.03478849387309256    0.047928657892283455    
  0.04869556488374744    0.05135918454574582    0.05347074546650067    0.05346824865379692    0.051357561550414    
  0.04872316436639917    0.04792323744218373    0.051717540716044876    0.06334580528841116    0.08629605574862531    
  0.12312070740767163    0.17080974863791068    0.2165706998122457    0.24405304642734169    0.24405023719498245    