#     DFTpy    
  CRYSTAL 
    
  PRIMVEC    
  2.663793103448276    0.0    0.0    
  0.0    2.663793103448276    0.0    
  0.0    0.0    2.663793103448276    
  PRIMCOORD    
  2    1    
  Si    0.0    0.0    0.0    
  Si    1.331896551724138    1.331896551724138    1.331896551724138    
  BEGIN_BLOCK_DATAGRID_3D    
  3d_datagrid_density    
  BEGIN_DATAGRID_3D#0    
  13    13    13    
  0.0    0.0    0.0    
  2.663793103448276    0.0    0.0    
  0.0    2.663793103448276    0.0    
  0.0    0.0    2.663793103448276    
  0.05425966942984609    0.09569072340896514    0.2504449512017724    0.42708696730573353    0.44703643385566466    
  0.387557684969917    0.35919343446182805    0.38755769113405003    0.4470364646061391    0.4270869803179582    
  0.2504449668777734    0.09569070402045836    0.05425966942984609    0.09569071754491663    0.1456128470070381    
  0.30254230597889825    0.44986941162206673    0.4501074279342418    0.38909836863012104    0.36153789391085717    
  0.389098416665389    0.45010738835779246    0.44986931133530034    0.30254229507979735    0.14561284232031202    
  0.09569071754491663    0.25044496397621313    0.30254230856004455    0.42079516870589684    0.4855470509265718    
  0.4493595384088834    0.3898684333334348    0.3655131381888059    0.38986851304085557    0.4493595615331427    
  0.485546977405475    0.42079518762232593    0.3025422995933969    0.25044496397621313    0.42708701527446985    
  0.44986945929103594    0.48554708556002774    0.4788830275299243    0.4312380958597403    0.3849130655758544    
  0.3671366869392144    0.3849130516212813    0.43123808815537035    0.4788830599809661    0.4855471185054198    
  0.44986937725569637    0.42708701527446985    0.44703641209062644    0.45010736029200554    0.4493595440609616    
  0.4312380633065908    0.40095855450242723    0.3752204196319885    0.36551314742383284    0.3752204608421516    
  0.4009585311671926    0.43123803530825083    0.449359588002219    0.4501073367282225    0.44703641209062644    
  0.3875577042921642    0.3890983483133375    0.38986850906409387    0.38491302366441676    0.3752204962706479    
  0.36562844784426324    0.3615378925296224    0.365628466956639    0.37522049096312765    0.3849129982634408    
  0.3898685573159564    0.3890983551634018    0.3875577042921642    0.3591935151257706    0.36153790145955433    
  0.36551315629011355    0.3671366743802972    0.3655131791393694    0.3615378678499813    0.3591934314066946    
  0.3615379114000161    0.3655131675344771    0.3671367443290526    0.36551318745638367    0.36153787933767156    
  0.3591935151257706    0.38755767699105187    0.3890983599591994    0.38986852463664845    0.384913038148867    
  0.37522049732299345    0.365628449461467    0.3615378677091841    0.3656285134563974    0.37522051721169386    
  0.3849129992356838    0.38986850354379277    0.38909834265369125    0.38755767699105187    0.44703644661058556    
  0.45010734911722633    0.4493595376447562    0.4312380463240995    0.40095852550597005    0.3752204109767891    
  0.36551311447197865    0.37522046039320783    0.4009585153553258    0.4312380290591785    0.44935954816521545    
  0.45010732874031556    0.44703644661058556    0.42708702335675375    0.4498694463513747    0.4855471085539449    
  0.47888294951764665    0.4312381579526107    0.3849130972628724    0.36713669943135696    0.38491307827455695    
  0.43123809529797996    0.4788830049992985    0.48554714126621085    0.4498694002638273    0.42708702335675375    
  0.2504449335050456    0.302542302220556    0.4207950995445055    0.4855470530621725    0.449359569060143    
  0.3898684435991805    0.3655131358691932    0.3898685191361431    0.4493595999100414    0.48554701611730033    
  0.4207951503996267    0.3025423057535823    0.2504449335050456    0.09569073888486482    0.1456128423642657    
  0.30254232903681366    0.449869462771726    0.45010740740980043    0.3890983456225417    0.36153791345228314    
  0.3890983579918347    0.45010742258893466    0.44986941534851604    0.3025423071373846    0.14561282641963622    
  0.09569073888486482    0.05425966942984609    0.09569072340896514    0.2504449512017724    0.42708696730573353    
  0.44703643385566466    0.387557684969917    0.35919343446182805    0.38755769113405003    0.4470364646061391    
  0.4270869803179582    0.2504449668777734    0.09569070402045836    0.05425966942984609    0.09569072496128724    
  0.14561285825873282    0.30254229806698757    0.4498693693648013    0.45010736800063206    0.3890983592008768    
  0.36153784067250005    0.3890983991272578    0.45010740178318026    0.44986943240435656    0.3025423253688369    
  0.14561281595733674    0.09569072496128724    0.14561283551750437    0.2003430310190353    0.3511347589033364    
  0.4693974683002332    0.453830687996945    0.39228684818005854    0.36562845968616686    0.392286890351694    
  0.45383067429108814    0.46939747339980753    0.35113479162475075    0.2003430269973156    0.14561283551750437    
  0.30254231387167074    0.3511347913048679    0.45330127546749527    0.49834159649287296    0.4561724083377119    
  0.39842830496160203    0.3752204134753039    0.39842844437092556    0.45617240069048626    0.4983415383700222    
  0.45330128816570797    0.3511347736541474    0.30254231387167074    0.4498694572957919    0.46939758565781387    
  0.4983415802546478    0.48895149787425407    0.4442047756453098    0.4013953154695518    0.38491306302362566    
  0.401395308871799    0.44420481705362125    0.48895155470164026    0.49834159758003654    0.46939752876997354    
  0.4498694572957919    0.4501073595578615    0.4538305942054933    0.4561722841969735    0.44420474280719885    
  0.4203140200172279    0.3984283737950594    0.38986848053780987    0.39842843169863    0.42031401104689364    
  0.44420468827206105    0.45617235161486747    0.45383058132014964    0.4501073595578615    0.38909843142423334    
  0.3922868383204538    0.39842846020399836    0.4013952318313002    0.3984284703467587    0.3922868360464587    
  0.3890983723173469    0.3922868702486176    0.3984284669378944    0.4013952586509379    0.3984284775647875    
  0.3922868560104194    0.38909843142423334    0.36153791690168186    0.3656284588699749    0.3752204876340931    
  0.3849130836555816    0.38986854505263213    0.3890983349416312    0.38755764298666184    0.389098396579905    
  0.38986852061422317    0.38491303511550135    0.3752204968860601    0.3656284340343765    0.36153791690168186    
  0.3890983705486589    0.392286816289834    0.39842843718005294    0.401395277360068    0.3984284811540157    
  0.3922868348650191    0.38909835435144663    0.3922868811936168    0.39842846838450385    0.4013952413868397    
  0.39842843856990845    0.39228684550525633    0.3890983705486589    0.45010738077119955    0.45383063195975804    
  0.4561723536876446    0.44420478007038044    0.42031405433230673    0.39842836191990755    0.38986844566621215    
  0.39842842813929313    0.42031397560740563    0.4442046728181551    0.4561723567635298    0.45383060087138305    
  0.45010738077119955    0.44986946249572696    0.46939758818851257    0.49834164695639516    0.4889514923826812    
  0.44420479949532965    0.4013952662562256    0.3849130466828968    0.40139532626990576    0.44420482671321215    
  0.4889515294250722    0.49834160903149366    0.46939751902063404    0.44986946249572696    0.3025422952247538    
  0.35113477656297054    0.4533011861183881    0.4983415967458574    0.4561724156711972    0.39842835430015033    
  0.3752204447827341    0.3984284772259145    0.45617234006415996    0.4983415747399073    0.4533012063200168    
  0.3511347808512306    0.3025422952247538    0.145612857084217    0.2003430255436634    0.35113479910028667    
  0.4693975144738771    0.45383071136552944    0.39228680094459706    0.3656285092257599    0.39228685693547505    
  0.4538306255074978    0.4693974860402761    0.3511348046094423    0.20034300869815738    0.145612857084217    
  0.09569072496128724    0.14561285825873282    0.30254229806698757    0.4498693693648013    0.45010736800063206    
  0.3890983592008768    0.36153784067250005    0.3890983991272578    0.45010740178318026    0.44986943240435656    
  0.3025423253688369    0.14561281595733674    0.09569072496128724    0.25044498492687445    0.3025423251633922    
  0.42079514375608296    0.48554697169374744    0.44935957962820766    0.38986846417786775    0.36551311976158524    
  0.3898685228050972    0.4493595478020594    0.4855470038827735    0.42079519471180904    0.3025422674744084    
  0.25044498492687445    0.3025422973044272    0.3511347701864097    0.45330126313433033    0.4983415623742968    
  0.45617240034661083    0.39842841853351746    0.37522043569976987    0.3984284423719213    0.45617239029842244    
  0.4983414708637734    0.4533012425635167    0.3511347854818058    0.3025422973044272    0.42079516782849274    
  0.45330123923835364    0.5098087838375771    0.5163229416896745    0.4696625809721988    0.4203138960540409    
  0.4009584370211605    0.42031401787785855    0.469662550541944    0.5163228651420046    0.5098088967263135    
  0.4533012240915973    0.42079516782849274    0.48554706937096676    0.49834158535418044    0.5163229177948512    
  0.50837610028575    0.47631181953814683    0.44420476964728506    0.4312380808692479    0.44420472808791245    
  0.4763118495609194    0.5083760439917923    0.5163229004204668    0.4983415941995757    0.48554706937096676    
  0.4493595384468305    0.45617233953350894    0.46966253810237085    0.476311848912716    0.469662551282167    
  0.45617228835135915    0.44935954208560974    0.4561723414978254    0.4696624917686254    0.47631183389910453    
  0.4696625101058339    0.45617231178810924    0.4493595384468305    0.38986851888587093    0.39842842538860995    
  0.42031398205835296    0.4442047162737202    0.45617240368655454    0.4538305770565448    0.45010736539745966    
  0.4538305778179671    0.45617234862034955    0.4442046124105397    0.4203140425934168    0.3984283872688436    
  0.38986851888587093    0.36551318292580254    0.37522045836921747    0.40095852086805034    0.4312380938717242    
  0.4493595648027945    0.4501073280593673    0.4470364262415532    0.45010738086984137    0.44935955263553184    
  0.4312380672536676    0.40095850727511595    0.37522042362764374    0.36551318292580254    0.3898684758354164    
  0.3984283748231918    0.4203139882505218    0.4442047614052252    0.4561723752376068    0.45383057953959355    
  0.4501073164950261    0.45383065805711964    0.4561723920465981    0.4442046910663786    0.4203140143948522    
  0.39842840754824077    0.3898684758354164    0.4493595677522074    0.4561723290349476    0.469662480648079    
  0.4763118499789683    0.4696625404879214    0.4561722659247609    0.44935953938797335    0.45617238489154166    
  0.4696625731038606    0.47631176027035477    0.4696625167584008    0.4561723106554142    0.4493595677522074    
  0.48554708912877714    0.49834163988827884    0.5163230040010007    0.5083760738546217    0.4763118456074862    
  0.4442047229410749    0.43123800145949825    0.44420477866135555    0.47631185525425535    0.5083760576297278    
  0.5163229281761758    0.4983416034485383    0.48554708912877714    0.420795135949885    0.4533012601257672    
  0.5098087605821101    0.516322922326688    0.46966259019014067    0.420313901519201    0.4009584615302937    
  0.4203139688848369    0.46966252774367206    0.516322879694898    0.5098088320428893    0.4533012679285871    
  0.420795135949885    0.3025423205069695    0.3511347721689888    0.45330122131006806    0.49834160046694853    
  0.45617237520449594    0.3984283471882577    0.37522045465361414    0.3984284033266605    0.4561723055270345    
  0.4983415530795956    0.4533012885099383    0.3511347324682648    0.3025423205069695    0.25044498492687445    
  0.3025423251633922    0.42079514375608296    0.48554697169374744    0.44935957962820766    0.38986846417786775    
  0.36551311976158524    0.3898685228050972    0.4493595478020594    0.4855470038827735    0.42079519471180904    
  0.3025422674744084    0.25044498492687445    0.42708703714130053    0.44986947328855115    0.4855470741666079    
  0.47888298045340266    0.43123812031038106    0.3849130923832556    0.36713669748084066    0.38491308702699567    
  0.4312380923228868    0.47888297409913166    0.4855470780022876    0.44986939595870973    0.42708703714130053    
  0.44986943968245985    0.46939757724064596    0.49834158532491013    0.4889514653071948    0.44420483403923267    
  0.4013953007307335    0.3849130520162219    0.4013953590723666    0.44420476779911733    0.48895144757829573    
  0.4983415740423354    0.4693975493789978    0.44986943968245985    0.48554706899308214    0.49834160435635755    
  0.5163229596327626    0.5083760875570754    0.4763118538796525    0.44420464846533153    0.4312380967900967    
  0.4442047540901449    0.4763118743905676    0.5083760443340709    0.5163229896004369    0.4983415640763517    
  0.48554706899308214    0.4788830005376699    0.4889515610902599    0.5083760746627212    0.517678603786214    
  0.5083761492507429    0.4889515593216379    0.4788829763304255    0.4889515218108042    0.5083761242229737    
  0.5176786102463488    0.5083761227314763    0.48895141787041346    0.4788830005376699    0.4312380844577958    
  0.44420477576447237    0.47631180535348266    0.5083760661467362    0.5163229587337589    0.49834155928723184    
  0.48554708975430816    0.49834164403409975    0.5163229446119838    0.5083760186674952    0.4763118216338673    
  0.44420469990474937    0.4312380844577958    0.384913106372054    0.40139531292768343    0.4442047569554472    
  0.4889514990259285    0.4983416518990911    0.46939752434806215    0.4498694419713506    0.4693975219623803    
  0.4983416329531682    0.4889514593407217    0.4442048309439136    0.4013953086568048    0.384913106372054    
  0.36713675958778125    0.38491306579414464    0.43123812018598306    0.47888293354589057    0.48554708597000396    
  0.44986942054253104    0.42708699946819817    0.44986940893351623    0.4855470647319995    0.47888301651123794    
  0.43123810425209425    0.38491303494408186    0.36713675958778125    0.3849131091774598    0.4013952981059572    
  0.4442047413949829    0.4889515004298008    0.498341609468426    0.46939753553979835    0.44986941186584345    
  0.4693975522038101    0.49834166994001355    0.48895144148169245    0.44420475112221985    0.4013952729940387    
  0.3849131091774598    0.43123810200711343    0.4442047241953848    0.47631176429059435    0.5083761295984236    
  0.5163229652808565    0.4983415245058656    0.48554703238486535    0.4983415996415914    0.516322974609896    
  0.5083760702413784    0.47631184705931356    0.4442047254011637    0.43123810200711343    0.47888301182933757    
  0.48895150606652366    0.5083761102393622    0.5176785367787565    0.5083761554881686    0.48895156127969097    
  0.478882999783572    0.4889515376624584    0.5083761230239455    0.5176786264062627    0.5083761074489966    
  0.4889514437765798    0.47888301182933757    0.4855470726509161    0.49834157252053957    0.5163228556273689    
  0.5083760690869876    0.47631189053984624    0.4442047055614562    0.43123806392994374    0.4442047953543752    
  0.47631188837595395    0.5083760538673183    0.5163229563002244    0.4983415969185201    0.4855470726509161    
  0.4498694889289689    0.469397551704424    0.49834162642663454    0.48895154427123727    0.4442048109213796    
  0.40139527027814237    0.384913087322624    0.40139530568778115    0.44420478111436723    0.48895148480576106    
  0.49834162001586635    0.4693975571668203    0.4498694889289689    0.42708703714130053    0.44986947328855115    
  0.4855470741666079    0.47888298045340266    0.43123812031038106    0.3849130923832556    0.36713669748084066    
  0.38491308702699567    0.4312380923228868    0.47888297409913166    0.4855470780022876    0.44986939595870973    
  0.42708703714130053    0.44703645234185957    0.4501073899620067    0.44935953572413473    0.43123805472053367    
  0.4009585133295037    0.3752204598171817    0.36551311628007654    0.3752204839913066    0.40095852970308693    
  0.43123809690914355    0.44935955299179237    0.4501073225215184    0.44703645234185957    0.4501073474334117    
  0.453830568784528    0.4561723079135415    0.4442046611432747    0.4203140111487946    0.3984283864584686    
  0.38986843997394344    0.3984284404548136    0.4203140504126099    0.4442046861875444    0.4561723323289974    
  0.45383061817744447    0.4501073474334117    0.4493595550488258    0.45617232724631757    0.4696625279742165    
  0.47631183176839276    0.4696626315855822    0.4561722002567941    0.4493594584484357    0.4561723545764827    
  0.4696625420501897    0.4763118018918705    0.4696625611205263    0.4561723105097397    0.4493595550488258    
  0.4312381241501246    0.4442047575322711    0.47631177552054976    0.5083760371611578    0.5163229618411441    
  0.4983416236747351    0.48554703911539915    0.4983415664127787    0.5163230012284966    0.5083761379084928    
  0.47631179469470053    0.44420467539091485    0.4312381241501246    0.4009585031119685    0.4203139885399083    
  0.4696624799890238    0.516322904065472    0.5098088935245529    0.4533011763240773    0.42079515401208595    
  0.4533012733666701    0.5098088585690052    0.5163228684067275    0.46966254747242936    0.42031391738084295    
  0.4009585031119685    0.3752205048745245    0.3984283921212925    0.4561723645776645    0.4983414995398983    
  0.4533013428815855    0.3511347286928996    0.30254228572749237    0.3511347778247269    0.4533012674888221    
  0.4983414956846023    0.4561723763870249    0.3984283844570186    0.3752205048745245    0.3655131703078373    
  0.38986848039705246    0.4493595395747095    0.4855470533052393    0.4207952105574513    0.30254225850949695    
  0.25044492383765693    0.3025423223001506    0.4207951822872929    0.48554700720954497    0.44935955517287335    
  0.3898684437676482    0.3655131703078373    0.3752204732412738    0.3984283822894739    0.4561723595580629    
  0.4983415614927203    0.4533012859887661    0.35113472940004015    0.3025422835249646    0.3511348076640001    
  0.4533012867232993    0.4983415166108416    0.45617234363351333    0.39842838673583775    0.3752204732412738    
  0.40095850675842176    0.4203139927543851    0.4696625047019522    0.5163230031071516    0.5098088425234447    
  0.45330118641239936    0.4207951208248076    0.453301236036137    0.5098088243754714    0.5163229058631587    
  0.4696625334702943    0.4203139207773866    0.40095850675842176    0.43123812855454524    0.44420474982580016    
  0.4763118235018849    0.5083760741497066    0.5163229770073526    0.4983415510766146    0.48554701704915815    
  0.49834159230319885    0.5163229495515811    0.5083760226419599    0.47631185980473306    0.4442046820424896    
  0.43123812855454524    0.449359527340063    0.45617234768982584    0.4696624512561004    0.47631180122663314    
  0.46966260510209085    0.45617227010317    0.44935950603083435    0.4561723263821185    0.4696625069290591    
  0.4763117773865731    0.4696625379434636    0.456172305762743    0.449359527340063    0.4501073487878794    
  0.45383060481330373    0.45617236756691626    0.44420472994070054    0.4203140208969131    0.3984283535476763    
  0.389868521460743    0.3984284044389131    0.42031401104289523    0.44420469034839516    0.4561723767026115    
  0.4538305574245786    0.4501073487878794    0.44703645234185957    0.4501073899620067    0.44935953572413473    
  0.43123805472053367    0.4009585133295037    0.3752204598171817    0.36551311628007654    0.3752204839913066    
  0.40095852970308693    0.43123809690914355    0.44935955299179237    0.4501073225215184    0.44703645234185957    
  0.3875577163013511    0.38909841722564725    0.3898684898643105    0.3849130480240854    0.3752204894726761    
  0.36562844761551333    0.36153786245110886    0.3656285019205867    0.3752204867430209    0.38491307118460916    
  0.3898685121289937    0.3890983238834188    0.3875577163013511    0.3890983684033315    0.3922868823719652    
  0.39842841582406996    0.40139527901547506    0.3984285026702522    0.3922868633640904    0.3890983449121351    
  0.3922868804039192    0.39842846076247984    0.4013952322204238    0.3984284193879978    0.3922868883856076    
  0.3890983684033315    0.3898685025531875    0.3984284285297296    0.4203139465823763    0.4442047555697755    
  0.45617241921826523    0.45383053882847835    0.45010731101133866    0.45383064158536407    0.4561723895745503    
  0.4442047160740323    0.42031406598789456    0.3984284043552027    0.3898685025531875    0.3849131072634109    
  0.4013952747713064    0.4442047496122666    0.48895150148357014    0.4983416478564346    0.46939754912121096    
  0.4498693890463064    0.469397541954905    0.4983416757598082    0.4889514939618854    0.44420473425454293    
  0.40139529458678674    0.3849131072634109    0.37522045142579297    0.39842838365403926    0.456172329268816    
  0.4983416713039116    0.453301321782583    0.3511347516483985    0.30254228261083727    0.35113479064711184    
  0.45330124872164185    0.49834160037389763    0.4561723385036134    0.39842839134451014    0.37522045142579297    
  0.36562851749414954    0.3922868772869541    0.45383062239948474    0.4693975020846789    0.3511348157881353    
  0.20034302152734962    0.14561285228290988    0.20034300584640738    0.3511348050879421    0.46939744376812637    
  0.45383068111548086    0.3922868414810951    0.36562851749414954    0.3615379286142365    0.38909836106793233    
  0.4501073952588491    0.44986943159917386    0.30254233942385156    0.14561281264701775    0.09569071347034319    
  0.14561284747396167    0.30254231822578526    0.4498694089556435    0.45010737289843883    0.3890983342789488    
  0.3615379286142365    0.3656284650575237    0.3922868434804814    0.45383059983163654    0.46939755913336706    
  0.3511348073429943    0.20034300477706363    0.14561283267440722    0.20034306271545352    0.3511348360391844    
  0.46939751632202187    0.4538306540841992    0.39228684900086386    0.3656284650575237    0.37522048628310095    
  0.3984284320433163    0.45617230351611127    0.49834162339551413    0.453301262215772    0.35113469723558655    
  0.3025423009202541    0.3511348033196707    0.45330131311207766    0.4983415551301618    0.45617232328060237    
  0.3984284380906921    0.37522048628310095    0.38491310679537305    0.4013953172080815    0.4442047814317171    
  0.4889515227060527    0.498341628125938    0.46939753823169766    0.44986935598833216    0.4693976064746201    
  0.49834164918515444    0.48895153200201735    0.44420474846369296    0.40139535663004666    0.38491310679537305    
  0.389868466299118    0.39842841717132144    0.42031393275406054    0.4442047595939698    0.45617240696474615    
  0.4538305324264039    0.45010732294486633    0.4538306040159503    0.4561723154561414    0.44420471636313663    
  0.4203140018839146    0.39842843400942646    0.389868466299118    0.38909837484247156    0.3922868757196524    
  0.3984284318069956    0.4013952975070208    0.3984285052690837    0.3922868183678039    0.38909837486522475    
  0.3922868600501326    0.39842840406882096    0.4013952397979378    0.39842845365842616    0.3922868022827991    
  0.38909837484247156    0.3875577163013511    0.38909841722564725    0.3898684898643105    0.3849130480240854    
  0.3752204894726761    0.36562844761551333    0.36153786245110886    0.3656285019205867    0.3752204867430209    
  0.38491307118460916    0.3898685121289937    0.3890983238834188    0.3875577163013511    0.3591934953781264    
  0.361537912324416    0.3655131496803345    0.3671366779329778    0.36551314317349387    0.361537914080438    
  0.35919344717175455    0.3615379046659478    0.36551316960975505    0.3671366777843904    0.365513170203751    
  0.3615378777470783    0.3591934953781264    0.3615378916772658    0.3656284967203861    0.3752204699301038    
  0.38491305114160107    0.3898685448134905    0.38909836147009086    0.38755766216801435    0.3890984183323586    
  0.38986851778204923    0.3849129855435943    0.37522045888496763    0.36562849725089286    0.3615378916772658    
  0.36551316479636703    0.37522046687993016    0.4009585029471775    0.43123809679387626    0.4493595312371219    
  0.45010729782625764    0.44703641408133077    0.4501073846747043    0.4493595780690495    0.431237989381478    
  0.40095853063864245    0.3752204689397614    0.36551316479636703    0.3671367085182329    0.3849130901862299    
  0.43123810323407485    0.4788830251374877    0.48554707871512826    0.4498694277639296    0.42708696921699907    
  0.44986941129840735    0.4855470666664873    0.47888305457832403    0.43123814028046065    0.38491300589140165    
  0.3671367085182329    0.3655131336799823    0.3898684819293133    0.4493595491526049    0.4855470431344492    
  0.42079521707477946    0.3025422646607912    0.2504449568308777    0.3025423009776087    0.4207951996947139    
  0.4855469921128032    0.44935957894689726    0.38986847028087934    0.3655131336799823    0.36153792475455165    
  0.3890983645982611    0.45010739274011075    0.44986937019066614    0.3025423302906704    0.14561282237007347    
  0.09569071864918142    0.1456128324584102    0.3025423180038276    0.44986935954197677    0.45010742354745964    
  0.3890983492549087    0.36153792475455165    0.3591935180459219    0.387557681444684    0.44703643746644844    
  0.4270869673779008    0.25044496902006214    0.09569070818854312    0.05425965243228587    0.09569072762027442    
  0.25044497176316494    0.42708703912746304    0.44703646858992213    0.38755764775580015    0.3591935180459219    
  0.3615379062363186    0.3890983558180583    0.4501074036088176    0.4498693882373052    0.30254233194300006    
  0.1456128256941444    0.09569071022826656    0.1456128582938609    0.3025423514823485    0.4498693627725623    
  0.4501073815267725    0.38909833001651745    0.3615379062363186    0.3655131656728985    0.3898684723451629    
  0.44935953506763443    0.4855470350614961    0.4207951941948929    0.3025422654938926    0.2504449289095618    
  0.3025423022617049    0.42079519089011547    0.48554700437503623    0.44935954420437363    0.3898684562907254    
  0.3655131656728985    0.3671367218031791    0.38491308180296463    0.43123812228257946    0.47888295473236514    
  0.4855471441623036    0.4498694723495789    0.42708699737819494    0.44986943972836085    0.4855470674980921    
  0.478883014452803    0.43123815516071917    0.3849130289008325    0.3671367218031791    0.36551312639313294    
  0.3752204600315413    0.4009584479850963    0.4312380732922121    0.44935958988691316    0.4501073217488229    
  0.4470364263295608    0.45010739423998763    0.449359591161871    0.4312380296732498    0.40095848456299665    
  0.3752204703806544    0.36551312639313294    0.3615379383488822    0.36562848477915477    0.3752204995147217    
  0.3849130958230676    0.389868541634402    0.38909834995856907    0.3875576899713702    0.3890983557888707    
  0.38986854592037595    0.3849130566844841    0.37522046985995483    0.36562845208211026    0.3615379383488822    
  0.3591934953781264    0.361537912324416    0.3655131496803345    0.3671366779329778    0.36551314317349387    
  0.361537914080438    0.35919344717175455    0.3615379046659478    0.36551316960975505    0.3671366777843904    
  0.365513170203751    0.3615378777470783    0.3591934953781264    0.38755768872817525    0.38909841109111226    
  0.38986848341630764    0.38491301563211905    0.375220472014232    0.3656284765170718    0.3615378502543343    
  0.36562850823316895    0.3752205033094599    0.3849130739115819    0.389868515449495    0.38909832363441477    
  0.38755768872817525    0.38909835691401423    0.39228685345064745    0.39842840132841256    0.40139523470265936    
  0.39842850188216156    0.3922868444088288    0.38909834720321157    0.39228689583148457    0.3984284852728145    
  0.4013952479742828    0.39842844087120965    0.39228687418541364    0.38909835691401423    0.3898684998268492    
  0.39842842885696755    0.4203140045452894    0.4442047267823757    0.4561724133339468    0.45383049668884706    
  0.450107298103186    0.45383064157211145    0.4561724072959205    0.44420468104676053    0.4203140335228683    
  0.39842841404646134    0.3898684998268492    0.3849130933650993    0.4013953330771978    0.44420471489360663    
  0.48895148870866084    0.49834164233402195    0.46939754889870133    0.44986942868791857    0.4693975420500826    
  0.4983416865583276    0.48895154618299996    0.4442047343370126    0.4013952886613836    0.3849130933650993    
  0.37522045534207493    0.39842839534963564    0.4561722770240136    0.4983416189216891    0.45330127648261437    
  0.35113473265922573    0.30254230343641075    0.351134793116298    0.4533012660127993    0.4983415503091683    
  0.4561723533564279    0.39842838939623443    0.37522045534207493    0.3656285384381811    0.392286839279045    
  0.4538306596315411    0.46939747281121585    0.35113483070579987    0.20034302024659056    0.14561284480043396    
  0.2003430312469131    0.3511348299450955    0.4693974759894293    0.4538306839623011    0.3922868390213985    
  0.3656285384381811    0.3615379211642461    0.38909834992887316    0.45010739192795657    0.44986943637060645    
  0.302542345812674    0.14561282403468545    0.09569070835086183    0.1456128529042704    0.30254232192352426    
  0.44986938158884193    0.4501073963775372    0.3890983232371737    0.3615379211642461    0.365628480323515    
  0.39228682026447365    0.4538306419158967    0.4693975268230149    0.35113483575330856    0.20034301536808632    