#     DFTpy    
  CRYSTAL 
    
  PRIMVEC    
  1.7703328955559325    -3.066306521413401    0.0    
  1.7703328955559325    3.066306521413401    0.0    
  0.0    0.0    5.852216193243836    
  PRIMCOORD    
  4    1    
  Si    1.7703328955559328    1.0221021738044662    0.3687452162281963    
  Si    1.7703328955559328    -1.0221021738044678    3.294853312850114    
  Si    1.7703328955559328    1.0221021738044667    2.5573628803937214    
  Si    1.770332895555933    -1.0221021738044676    5.48347097701564    
  BEGIN_BLOCK_DATAGRID_3D    
  3d_datagrid_density    
  BEGIN_DATAGRID_3D#0    
  17    17    25    
  0.0    0.0    0.0    
  1.7703328955559325    -3.066306521413401    0.0    
  1.7703328955559325    3.066306521413401    0.0    
  0.0    0.0    5.852216193243836    
  0.09490974620788473    0.10088659994083281    0.1212730028926013    0.16252135852005964    0.2334228529495649    
  0.3397095883138543    0.4699490268239616    0.5848567801131538    0.631888474741146    0.5848569986192005    
  0.4699489517393443    0.3397096456925878    0.23342281693822206    0.16252134100827884    0.12127301706531002    
  0.1008865824078054    0.09490974620788473    0.10088659337713242    0.10089388119730242    0.11405952715943832    
  0.14487023268192792    0.2011644630797669    0.2904892283648853    0.40898581400925005    0.5281649340327154    
  0.6036160682963455    0.6035990196516497    0.5281348930713691    0.40900363764326186    0.29050424495448973    
  0.20115374588099522    0.14486700379998843    0.1140659430717647    0.10088659337713242    0.12127302487319676    
  0.11405954670941071    0.12127142696921768    0.14487180921227039    0.19075601862162692    0.26576157833999875    
  0.365977488643017    0.4625184827681423    0.5197192772908602    0.5352608732173026    0.5197503996993909    
  0.46252550212376947    0.36594524032498926    0.26576157042628185    0.19077120076353055    0.14486699162017574    
  0.12127302487319676    0.16252140166592433    0.1448702683130128    0.14487181493975582    0.16251554861871892    
  0.20117154022951925    0.2657548926010796    0.34997463185589706    0.4157255953795066    0.4200548193874978    
  0.3911967650583249    0.3911996660517183    0.42004189176680135    0.41575486269854106    0.34997285127331096    
  0.26576162310561957    0.20115374136529102    0.16252140166592433    0.2334228542746659    0.2011644413517923    
  0.1907559311403703    0.2011714563975955    0.23340666700208346    0.2905015167783378    0.3659582345387802    
  0.41574690753454085    0.376343830531116    0.2838431382708328    0.2407321846851334    0.283839191468088    
  0.37634916831064397    0.41575474594125833    0.3659452322093455    0.2905042431204789    0.2334228542746659    
  0.3397096740443493    0.29048927303290306    0.26576154768184057    0.26575489393773116    0.2905015246262876    
  0.33972112829014695    0.4089827178388046    0.4625321232860117    0.42005626177064487    0.28382920007415324    
  0.18447736164832723    0.18447970304603342    0.283839307556347    0.42004185558603113    0.46252547320255066    
  0.40900367366428836    0.3397096740443493    0.46994903132563476    0.40898584090693113    0.36597747491489147    
  0.3499746588970247    0.3659582330833528    0.40898262483994424    0.46995840568556146    0.528145492885238    
  0.5197335584071214    0.391186321105065    0.24074800238520852    0.1844773853173487    0.24073224388498263    
  0.39119958560218965    0.5197503785190072    0.5281348546591446    0.46994903132563476    0.5848569518381252    
  0.5281650135322129    0.46251844154643695    0.4157256431718036    0.4157470914428422    0.4625321054798796    
  0.528145489758832    0.5848511650010189    0.6036298841925433    0.5352565681813214    0.3911863309612673    
  0.28382905075391063    0.2838431424961394    0.39119671636442427    0.5352608880337579    0.6035988480663625    
  0.5848569518381252    0.6318884972928323    0.6036160727438649    0.5197191859717964    0.4200547511258031    
  0.3763437745524457    0.42005628254294364    0.5197336100250244    0.6036298031236621    0.6318605392895679    
  0.6036297890876292    0.5197335193100748    0.4200562219088311    0.3763437912690438    0.4200547428644879    
  0.5197192887711437    0.6036160597926107    0.6318884972928323    0.58485685915619    0.6035988878489335    
  0.5352608184794556    0.39119666478184134    0.2838431545161396    0.2838291315969181    0.39118633454386853    
  0.5352565497415538    0.6036298599078481    0.5848513620422935    0.5281456072479292    0.4625320261753586    
  0.4157470331136864    0.415725576992139    0.4625184665869714    0.528165038669779    0.58485685915619    
  0.46994904617004857    0.5281349251027176    0.5197504340020941    0.3911996370752543    0.24073221060656286    
  0.18447738603366387    0.24074802500620515    0.3911862800371299    0.5197335653350185    0.5281456257818661    
  0.46995838809237983    0.4089826610199746    0.365958206195005    0.34997461788995154    0.36597747023319044    
  0.4089858215435277    0.46994904617004857    0.3397096671155479    0.40900374563794517    0.4625254409291395    
  0.4200418899584618    0.283839261889681    0.1844797466803973    0.18447737651436252    0.2838291023283918    
  0.42005629315263987    0.4625320498041105    0.4089826304997794    0.33972108704611254    0.2905015619879528    
  0.2657548503709071    0.2657615673373501    0.2904892170274817    0.3397096671155479    0.23342287525947697    
  0.2905042652263097    0.3659452614173228    0.41575474594102235    0.37634917891735326    0.283839226003701    
  0.24073219350252092    0.28384309975395194    0.37634385489687666    0.415747012708363    0.3659581930789537    
  0.2905014957324825    0.2334066738330614    0.20117147442409924    0.19075600420168334    0.2011644026364055    
  0.23342287525947697    0.16252138824191278    0.20115377085460864    0.2657615660202609    0.3499728801374034    
  0.41575485071798446    0.4200418575184632    0.3911996712907776    0.3911967580933646    0.4200548055058074    
  0.4157256870163481    0.3499746106253804    0.2657548566898024    0.2011715403236596    0.1625155483331409    
  0.14487183729953435    0.14487023557749776    0.16252138824191278    0.12127302764191562    0.1448670112057564    
  0.19077118770568793    0.2657616109780795    0.36594523881943936    0.46252548050463876    0.5197503870973406    
  0.5352608625553557    0.5197192005438583    0.4625184872424108    0.3659774426413399    0.26576157645745524    
  0.19075598283528847    0.1448718045016421    0.12127141556575695    0.1140595187796955    0.12127302764191562    
  0.10088659975613538    0.11406596578696823    0.14486697133109291    0.20115376659046288    0.2905042916290934    
  0.4090037082363318    0.5281348453290382    0.6035988705039109    0.603616089332407    0.5281650766920291    
  0.4089858553065345    0.2904892200406526    0.20116444256401367    0.1448702408231146    0.1140595244996853    
  0.10089388322469511    0.10088659975613538    0.09490974620788473    0.10088659994083281    0.1212730028926013    
  0.16252135852005964    0.2334228529495649    0.3397095883138543    0.4699490268239616    0.5848567801131538    
  0.631888474741146    0.5848569986192005    0.4699489517393443    0.3397096456925878    0.23342281693822206    
  0.16252134100827884    0.12127301706531002    0.1008865824078054    0.09490974620788473    0.09323365645953276    
  0.09890109273450173    0.11807180873853669    0.1565223040744915    0.2221789880224438    0.31973349982615357    
  0.43760249685391994    0.5401380360152047    0.58173740600476    0.5401525785081718    0.4376080360097207    
  0.3197196365059676    0.22219324595969286    0.15652150994805086    0.11806650010227314    0.09890229070253115    
  0.09323365645953276    0.09890230561871606    0.0989051619534569    0.1103347649403232    0.1370741215558363    
  0.18558928947771508    0.2623399345634954    0.3653226940271793    0.472011067234346    0.5422441908516873    
  0.5422242022281263    0.4719818978526243    0.3653355517273431    0.2623524185278648    0.18557241543469444    
  0.13707816205250165    0.11033858279014495    0.09890230561871606    0.1180665109900343    0.11230370418049163    
  0.11806898855209125    0.13708061698524765    0.17394809917233708    0.2343910209270757    0.3189300798958108    
  0.41217877892186067    0.48394039782394505    0.5102306967825957    0.4839693384676205    0.41218777290867437    
  0.31891365430559865    0.23439037965805737    0.17395939075778483    0.13707819660939394    0.1180665109900343    
  0.15652156579433468    0.14325855351390043    0.14325277627708521    0.15651827973710358    0.1855883189722192    
  0.23438406806937367    0.30289786610823094    0.3766116785904086    0.4280715978099331    0.4469983531130296    
  0.4470000026764404    0.42805714741774836    0.37661963154109684    0.3028998349142567    0.2343903921598104    
  0.18557241441238143    0.15652156579433468    0.22219326810308054    0.19942165471676035    0.19206601698151876    
  0.1994306936175344    0.22217696428758263    0.2623480415888162    0.3189248669049508    0.3766164636686897    
  0.4040155713541257    0.39282386806729586    0.3804640892348322    0.3928159491936741    0.40403183537813064    
  0.3766195206309691    0.31891362804790596    0.2623523749163245    0.22219326810308054    0.3197196598141371    
  0.28744885671706083    0.2705876043534443    0.2705871643365872    0.2874561609129147    0.31973606027418655    
  0.36532274885128146    0.4121853287226406    0.4280713398260345    0.3928124292082386    0.34792032751365704    
  0.34792754536395604    0.392816058325243    0.4280571576922844    0.41218777252417227    0.36533565409819413    
  0.3197196598141371    0.4376080847499644    0.400221475636357    0.3688946265810061    0.35592625936987127    
  0.3688724284498821    0.40021285955206815    0.43760906375580116    0.47199649109918723    0.4839528310537989    
  0.4469957182210821    0.38047486567118344    0.3479202954579941    0.3804641433485387    0.44699997446419054    
  0.48396928830737257    0.4719818853876759    0.4376080847499644    0.5401525174586379    0.5067629195026644    
  0.44688555272773284    0.396511057127222    0.39653445827469386    0.4469043237048175    0.5067602031659305    
  0.5401315328589105    0.5422569058754042    0.5102162879889882    0.44699575928777524    0.39281232286604467    
  0.3928239154263718    0.44699827176713874    0.5102307139022638    0.5422241786033168    0.5401525174586379    
  0.5817375149479854    0.5694241400840232    0.4732204580901536    0.3497242768027337    0.2974243238899103    
  0.34973111955177505    0.4732101591973526    0.5694602978013643    0.5817043441141365    0.5422567917888378    
  0.48395277004479953    0.4280712893579691    0.4040155464046624    0.42807147877401164    0.48394040794193177    
  0.5422441279611195    0.5817375149479854    0.5401380652948093    0.5694235172266434    0.47313228880618935    
  0.28584710840156996    0.1680610722924235    0.1680495250140944    0.28585606427410803    0.4731131998362283    
  0.5694603565675433    0.5401317730158    0.471996528178864    0.4121852995697704    0.376616534889418    
  0.3766116862878431    0.4121787769894517    0.47201105367574736    0.5401380652948093    0.43760250948465346    
  0.5067487366188557    0.47322519415998127    0.28585957597374834    0.12143986590764987    0.0745093009003993    
  0.1214360073951555    0.28585604163625483    0.47321012541264507    0.5067602099550087    0.43760904001228385    
  0.3653226682249332    0.3189248715990888    0.3028978615523402    0.3189300583106257    0.365322693989662    
  0.43760250948465346    0.3197335285739415    0.4002250180506228    0.4469019334942355    0.34971565650510217    
  0.1680668941082047    0.07449286673076998    0.07450929582738891    0.16804952439800422    0.34973119673823316    
  0.4469042093461787    0.40021282149265736    0.31973607904393925    0.2623481032261677    0.23438402341389508    
  0.23439105393332485    0.26233991711491433    0.3197335285739415    0.2221790141539382    0.2874632607010756    
  0.3688602051393296    0.39654502068900876    0.29741932280024325    0.16806685513474362    0.12143987933931435    
  0.16806105229628104    0.29742433509150085    0.3965344441287177    0.36887234440455086    0.28745615500900423    
  0.22217698158302784    0.18558824497812818    0.17394812456531633    0.18558921020137165    0.2221790141539382    
  0.15652235987845659    0.19942190241584218    0.27058888979153056    0.3559226370469264    0.39654510527556175    
  0.34971561484059643    0.2858596463640935    0.2858471924075152    0.3497243637351193    0.3965111099017596    
  0.3559262252590882    0.2705871363948251    0.19943082273027887    0.15651826554158105    0.1370806279021598    
  0.13707411404605    0.15652235987845659    0.1180718479111311    0.1432511542278694    0.19207461109757348    
  0.27058891789899203    0.3688602188332807    0.4469020085531363    0.4732252170987576    0.4731321841485353    
  0.47322053350003007    0.4468855986243754    0.3688946484087911    0.27058764450160666    0.19206606100494575    
  0.14325275551205713    0.11806899768135277    0.11033475381121928    0.1180718479111311    0.09890110469059701    
  0.11230652162147654    0.14325114197621447    0.19942194780053513    0.28746327375361963    0.4002250266624628    
  0.5067487243509216    0.5694233912655124    0.5694241314469745    0.5067630342276522    0.40022150660369854    
  0.28744884093171186    0.19942166417769389    0.14325851502145423    0.1123037077155715    0.09890516399134269    
  0.09890110469059701    0.09323365645953276    0.09890109273450173    0.11807180873853669    0.1565223040744915    
  0.2221789880224438    0.31973349982615357    0.43760249685391994    0.5401380360152047    0.58173740600476    
  0.5401525785081718    0.4376080360097207    0.3197196365059676    0.22219324595969286    0.15652150994805086    
  0.11806650010227314    0.09890229070253115    0.09323365645953276    0.08907135792845403    0.09385074845141453    
  0.10980398631299881    0.1412428684992119    0.1938759671289841    0.2702922252874113    0.36025642449631917    
  0.43670851242380765    0.4673090941878505    0.4367269317814989    0.3602471135502221    0.27027995407707106    
  0.19389451213393105    0.14124082193505913    0.10979942462103556    0.09385246740911063    0.08907135792845403    
  0.09385248921149594    0.09385140019103819    0.10251910359067817    0.12276262145911579    0.1589859597167603    
  0.21523014148450342    0.2894518316822537    0.3659470391792563    0.4166654766576056    0.4166494195281733    
  0.36592809997815035    0.2894691533595936    0.21523452492320935    0.1589708056092898    0.12276717549128176    
  0.10252037983467481    0.09385248921149594    0.10979944916684388    0.10595035551852812    0.10980495971553232    
  0.12276652350666553    0.14805462302842284    0.18927487083557282    0.2473666110267896    0.31404263999053483    
  0.3696762034522652    0.3917072650232636    0.36969366809437315    0.31405196810162705    0.24735280824166261    
  0.18927563690466956    0.14806344956174153    0.12276718750709206    0.10979944916684388    0.14124086056006477    
  0.133423929416889    0.13341352917228172    0.1412400731254587    0.15898321851822386    0.18927471208164062    
  0.23354867328254403    0.2874725343959961    0.3373807171213427    0.3670149443159233    0.3670182282375556    
  0.3373683054806526    0.2874680143047671    0.2335601983914079    0.1892756686019186    0.15897081698911747    
  0.14124086056006477    0.1938945292811259    0.18237723456602817    0.17888062096930785    0.18238641542967943    
  0.19387971364066184    0.21523006347101092    0.24736529775101287    0.28746665677442995    0.3254301720310271    
  0.3495916352656013    0.35710693664062093    0.3495855715702614    0.32544653134689355    0.28746790756209534    
  0.24735278427883084    0.21523453513550572    0.1938945292811259    0.27027998647991636    0.2575467327524994    
  0.25110407283489256    0.25110643535447713    0.2575534473867223    0.2702926656649816    0.28945709397271707    
  0.31404959166169794    0.3373798115742034    0.349583532451417    0.35112403478018367    0.35112804083988547    
  0.3495857139757007    0.33736828196693097    0.31405197376525534    0.2894692145768339    0.27027998647991636    
  0.36024715100162386    0.3512698058195241    0.33958141496601896    0.3337234622942346    0.3395569849590949    
  0.3512624337566255    0.3602537467065873    0.3659372609571901    0.36967920121589065    0.367021234392757    
  0.3571086777948273    0.35112399750529455    0.3571069702709521    0.36701817039465484    0.3696936707648343    
  0.3659281006870794    0.36024715100162386    0.43672692500160115    0.4367012719975294    0.40675072645639637    
  0.37323884743829455    0.3732668018946123    0.4067664103440955    0.4366949965375657    0.4367087842529581    
  0.41667391329335624    0.39169421659569353    0.36702125108626427    0.34958344336075925    0.34959168147232766    
  0.3670148647518132    0.39170731414078336    0.416649376082785    0.43672692500160115    0.4673092513384978    
  0.4849400445219152    0.4256802290751989    0.328431010914433    0.284425492833374    0.32843870840229283    
  0.4256732896171892    0.4849717367912582    0.4672846407859399    0.4166739298908057    0.3696791862956067    
  0.337379752841845    0.32543012642805874    0.33738064235857185    0.36967625984755825    0.41666547635850154    
  0.4673092513384978    0.43670863229705    0.48494850872284007    0.4232369940803327    0.2670112066446655    
  0.16203796534953643    0.1620281069382607    0.2670110933424416    0.42322732389225437    0.48497180349594493    
  0.4367089325706263    0.36593726411838096    0.3140495326587037    0.2874667330980446    0.28747255253896925    
  0.31404265464728853    0.3659470402031407    0.43670863229705    0.3602565157511294    0.4366836161215031    
  0.4256872563076676    0.2670161984688542    0.11730675328637714    0.07322666736980764    0.11730721608589709    
  0.26701103011244864    0.42567330514610036    0.4366951013343435    0.36025376640396223    0.28945700758260284    
  0.24736531640422021    0.23354867297468795    0.24736656656043582    0.2894518296568388    0.3602565157511294    
  0.27029222744562215    0.35126817293681    0.40676198681206194    0.3284256951252943    0.16204558993140258    
  0.07321216240625192    0.07322665950993938    0.16202810785774246    0.32843876509484765    0.4067663575362413    
  0.35126245360354386    0.270292704043069    0.21523008659598572    0.18927465415151815    0.18927491025620602    
  0.21523011794612915    0.27029222744562215    0.1938759898744733    0.2575587497860697    0.33955273169799843    
  0.3732784344006429    0.28441386295613497    0.16204556480186766    0.11730672334290765    0.16203792547581375    
  0.2844254983267331    0.37326672402787475    0.3395569417514791    0.257553368751837    0.19387971203857773    
  0.15898314038706562    0.14805463902106672    0.15898590168531151    0.1938759898744733    0.14124288643113406    
  0.1823818522455422    0.2511088786349152    0.3337097657688629    0.37327854279530254    0.32842567872343736    
  0.2670162129555086    0.26701123897832957    0.32843106457769083    0.37323884153189196    0.3337234307448089    
  0.25110640176188836    0.18238649507451896    0.14124004767331785    0.12276653643532773    0.12276261072576537    
  0.14124288643113406    0.1098040072398062    0.13341572972837282    0.1788824644395087    0.25110894471308887    
  0.3395527255480717    0.4067620133221499    0.4256872819201439    0.4232369563194819    0.4256802807047378    
  0.4067507328001474    0.33958137501214386    0.25110406414132336    0.17888064884159613    0.13341350495563437    
  0.10980495419967887    0.10251908970063095    0.1098040072398062    0.09385076077670985    0.10595284967819868    
  0.13341569127058767    0.18238183555822574    0.25755882196049307    0.35126818258929315    0.43668361469393024    
  0.4849483757252979    0.4849400306539298    0.436701401396679    0.351269838337363    0.2575466736456079    
  0.1823772768346788    0.13342391022808897    0.10595035470633468    0.09385140834689226    0.09385076077670985    
  0.08907135792845403    0.09385074845141453    0.10980398631299881    0.1412428684992119    0.1938759671289841    
  0.2702922252874113    0.36025642449631917    0.43670851242380765    0.4673090941878505    0.4367269317814989    
  0.3602471135502221    0.27027995407707106    0.19389451213393105    0.14124082193505913    0.10979942462103556    
  0.09385246740911063    0.08907135792845403    0.08383808267306793    0.08746988789233483    0.09954773451947299    
  0.12295466501413191    0.16097280250403526    0.21450074381266898    0.27617892672941446    0.3279240821877556    
  0.34849718756688713    0.32793398148857117    0.2761564927451332    0.2144973802365954    0.1609911157277598    
  0.12295144136082768    0.09954544765593926    0.08747169895814702    0.08383808267306793    0.08747170708334458    
  0.08747194867406999    0.09329755795739719    0.10696950008611265    0.131192700590182    0.16792244402430595    
  0.2151044995065442    0.26286363308083976    0.29433675707096735    0.29432297197697377    0.2628624900802932    
  0.21511981441863556    0.16792283415638742    0.13117822909184063    0.10697505782708057    0.09329689999219967    
  0.08747170708334458    0.09954545542143707    0.09741976315089744    0.0995466054270414    0.10697707179034234    
  0.12190820140847776    0.1465864885843244    0.1812550682244244    0.22082248214870234    0.25409790701233326    
  0.2674579277496058    0.25410343151153997    0.22082769615375902    0.18124344521581043    0.14658609369739042    
  0.12191849007703283    0.10697504990890326    0.09954545542143707    0.12295152468011007    0.11973827399247068    
  0.11973428398946762    0.12294881231698117    0.13119156306730684    0.14658420726492022    0.1704972651305346    
  0.20098712622359396    0.23089076832775438    0.24999513755996985    0.25000462093561426    0.2308809181111269    
  0.20098218365457965    0.1705101028771023    0.1465861178838318    0.13117825169452382    0.12295152468011007    
  0.1609911641421649    0.1585963630350341    0.15827307230923543    0.15860385652632236    0.16097468626849407    
  0.16792215770606966    0.18125694011198965    0.2009810659423018    0.22331817243482785    0.24152556321008642    
  0.2486856333427426    0.24152038047201724    0.2233303514652046    0.20098211211826647    0.18124344680274376    
  0.16792281917424867    0.1609911641421649    0.21449737963706317    0.21687236561053128    0.21939349010100892    
  0.21938938044573847    0.21688805920946774    0.2145007776711536    0.2151073176382863    0.22082666158304576    
  0.23088797429590224    0.24152059703361672    0.24852886756433484    0.2485304631685494    0.2415204546698827    
  0.2308808606736647    0.22082765878715732    0.21511982573399865    0.21449737963706317    0.27615653302129894    
  0.289320660951242    0.2974400353541793    0.2999097544031497    0.29741575930060254    0.28931635594427063    
  0.2761720497522877    0.2628622985363289    0.25409771471130077    0.2500056593170811    0.24868278371084584    
  0.248528884011506    0.2486856860577172    0.25000458849123064    0.25410341119744423    0.2628625148097853    
  0.27615653302129894    0.3279339508771094    0.3569828895431781    0.36776003172116495    0.36463744176972124    
  0.3646752997009085    0.3677629878964598    0.35697050309006567    0.3279262264916598    0.29433710578228495    
  0.2674482657774264    0.25000566512998246    0.24152045470124398    0.24152558166033994    0.24999511377031047    
  0.26745791458719365    0.2943229117301134    0.3279339508771094    0.3484971994026545    0.39671915726618184    
  0.4043501285352344    0.37208005676040057    0.3512366924646446    0.37208306895492804    0.4043653272906897    
  0.3967247991704066    0.34849039894819256    0.2943370315064765    0.2540977350440953    0.2308879403598956    
  0.2233181650203979    0.23089071016752408    0.2540978863710547    0.2943367239327002    0.3484971994026545    
  0.32792413320073394    0.39671657435044416    0.41232057852463583    0.3466485301809432    0.276533354756351    
  0.27652003840233036    0.3466256495035766    0.41232907375249017    0.39672486754032493    0.3279263696515314    
  0.26286232395935244    0.22082659979431157    0.2009811321067079    0.20098711762339172    0.22082247709896086    
  0.26286368032583785    0.32792413320073394    0.27617897177202405    0.3569629549106018    0.404375955435715    
  0.3466421274730367    0.23827047675489335    0.19194130309385377    0.23829617537838105    0.3466255960140331    
  0.4043653787246265    0.3569705367212354    0.2761720366568753    0.21510727150729753    0.1812569487162001    
  0.17049725703458754    0.18125507129534144    0.21510453241411812    0.27617897177202405    0.21450076599865003    
  0.2893163837588485    0.3677569807149005    0.372073559269124    0.27653444724707305    0.19194463533968223    
  0.19194132394850402    0.2765200396714878    0.37208309834353637    0.36776296480106807    0.2893163560120462    
  0.21450077251423486    0.16792221788571454    0.1465841564014549    0.14658649671015017    0.16792243807576    
  0.21450076599865003    0.16097283935425322    0.2168881354359846    0.29742184510425723    0.36468243832202984    
  0.3512239346448712    0.2765344331363317    0.2382704875304065    0.2765332668301631    0.35123674726230525    
  0.36467522661468726    0.2974157347667288    0.21688801309587022    0.16097467294114207    0.1311915050186285    
  0.12190820930864606    0.1311926422086273    0.16097283935425322    0.12295471239068496    0.15859817987206423    
  0.21939655175948894    0.2998865233095947    0.36468255305377895    0.37207353077161454    0.3466421742088544    
  0.3466486230842328    0.3720800868272241    0.3646375245144413    0.29990974921381636    0.2193893321794819    
  0.15860390188010093    0.12294881522308468    0.10697711740641318    0.10696950336764983    0.12295471239068496    
  0.09954776239046655    0.11973336937445934    0.15827462197303097    0.21939656266085913    0.2974218330247354    
  0.36775702067080535    0.40437592587812765    0.41232062863534197    0.40435014766638355    0.3677600505647096    
  0.2974400241675441    0.2193935215943776    0.15827310458324778    0.1197343050770134    0.09954661034532715    
  0.09329753976887524    0.09954776239046655    0.08746988783221284    0.09742260522806816    0.11973331799327029    
  0.15859819842446066    0.2168881607258014    0.28931638898982304    0.35696293465559575    0.3967165038336941    
  0.39671909448587195    0.3569829333519132    0.28932067406523443    0.21687232114739652    0.15859636893724638    
  0.11973823956858243    0.09741976274440307    0.08747195273721704    0.08746988783221284    0.08383808267306793    
  0.08746988789233483    0.09954773451947299    0.12295466501413191    0.16097280250403526    0.21450074381266898    
  0.27617892672941446    0.3279240821877556    0.34849718756688713    0.32793398148857117    0.2761564927451332    
  0.2144973802365954    0.1609911157277598    0.12295144136082768    0.09954544765593926    0.08747169895814702    
  0.08383808267306793    0.07889473424129789    0.08154599649766042    0.09032566788249495    0.10706794639792891    
  0.1335608632205297    0.16983949798585252    0.21087097537536184    0.24497576026356194    0.25848381976320306    
  0.24497925515708863    0.2108602619166985    0.16983974341709132    0.13356719643907297    0.10706675767051597    
  0.09032573676212728    0.08154642825584921    0.07889473424129789    0.08154644049382748    0.08154951465755393    
  0.08529040761062658    0.0939871318562806    0.10933169717295496    0.13228353981339042    0.16116119139218596    
  0.18981925174455186    0.20840548556423066    0.2084017291879319    0.1898216525725136    0.16116589623791427    
  0.13228362726769677    0.1093271978249227    0.09398848430685437    0.08529076516924897    0.08154644049382748    
  0.09032575387966499    0.08930036832810721    0.09032269427384995    0.09399099978379996    0.10183621777126874    
  0.11551444017462018    0.1350489486097666    0.15731280050415267    0.17588911390238487    0.18328030212169052    
  0.17588784626471762    0.15731467159225518    0.1350454804389386    0.11551258434693086    0.10184124917876071    
  0.09398848423221884    0.09032575387966499    0.10706680294995184    0.10664401008627146    0.10664524013120892    
  0.10706698153709494    0.10933107180769765    0.11551273532781746    0.1269510807673038    0.14259742333230616    
  0.15846371534942452    0.16875124963555055    0.16875521463602894    0.15846208602324424    0.14259367995928582    
  0.12695808934154723    0.11551259193577804    0.10932720756311846    0.10706680294995184    0.13356722739392132    
  0.13632952543085694    0.13770263777776365    0.13633089762195497    0.13356060625321295    0.13228369683837404    
  0.1350510281983976    0.14259374943731865    0.15304978983025877    0.162507278626786    0.16642207053252794    
  0.16250576126285746    0.15305380368029692    0.14259362052915528    0.1350454732688578    0.13228362699267368    
  0.13356722739392132    0.1698397481406547    0.1801489996046628    0.18733471091758158    0.18732990653768553    
  0.18015716283183394    0.1698402864074784    0.16116138995981388    0.15731400521435412    0.15846292448283478    
  0.1625069522289978    0.1661769826379842    0.16617632505050003    0.16250584571095616    0.15846205736801344    
  0.15731466126117324    0.16116591897213065    0.1698397481406547    0.2108603148781729    0.23500473833096938    