#     DFTpy    
  CRYSTAL 
    
  PRIMVEC    
  4.463142640247503    1.8672134905013792e-05    -4.681448275862069e-13    
  -2.2315551495796417    3.8652043550068034    -9.15948275862069e-12    
  -7.698068965517241e-13    -1.7834875862068963e-11    7.338099975488989    
  PRIMCOORD    
  4    1    
  Si    1.1110477905126456e-05    2.5768089448246085    4.126755389338746    
  Si    2.2315763801847273    1.2884140822854833    0.45770534740801    
  Si    1.1110479581900814e-05    2.576808944823545    6.880394573891143    
  Si    2.23157638019197    1.2884140823141093    3.2113446403208235    
  BEGIN_BLOCK_DATAGRID_3D    
  3d_datagrid_density    
  BEGIN_DATAGRID_3D#0    
  19    19    33    
  0.0    0.0    0.0    
  4.463142640247503    1.8672134905013792e-05    -4.681448275862069e-13    
  -2.2315551495796417    3.8652043550068034    -9.15948275862069e-12    
  -7.698068965517241e-13    -1.7834875862068963e-11    7.338099975488989    
  0.02192389139598683    0.023107371690397897    0.027244722256667527    0.03622354102871449    0.053767077296714386    
  0.08534107327682214    0.13492361262396627    0.19824660706582478    0.2556238496536963    0.2791575273246722    
  0.2556238704089525    0.19824663199660197    0.13492360816111654    0.08534108428281385    0.05376704733044851    
  0.03622355678570971    0.02724472958060815    0.023107358972120736    0.02192389139598683    0.02310737152014764    
  0.023107004578921113    0.025775119230131878    0.032433859900579724    0.04615573518726156    0.07222543127589946    
  0.11669890040394491    0.18047328312283598    0.25071739689733114    0.29879820822632785    0.2987681046098693    
  0.25074125910826084    0.18051332003315584    0.11666150592587646    0.07222670447716237    0.04616128758138344    
  0.03243326253188049    0.025775447895053222    0.02310737152014764    0.027244728336796243    0.025775128474464597    
  0.027245224627126093    0.03243257860798199    0.0441513673461073    0.06789889273009721    0.11163709721108574    
  0.1813467934761996    0.26900225502148717    0.34505285507202904    0.3750928003033624    0.34505927782077694    
  0.2689335534247604    0.18136533565781945    0.1116717917116183    0.06789482826999402    0.04414781839698651    
  0.03243324000504448    0.027244728336796243    0.036223549902349994    0.03243387250997244    0.03243257659234369    
  0.036224609347981204    0.046154677608886134    0.06789368461650161    0.11103042164136392    0.1861977103981135    
  0.28970024892135043    0.3850243423012271    0.43299414746393683    0.43303892943981864    0.38508372191751655    
  0.28970579575630684    0.18618954540342067    0.11101130172402994    0.06789483515255072    0.0461612804755948    
  0.036223549902349994    0.05376704999228957    0.04615573301894417    0.04415136798182887    0.046154642341189864    
  0.053774554439334515    0.07222562558443903    0.11164815265175573    0.18619027845510105    0.2977871295464089    
  0.3979625401598158    0.4257043666685677    0.4182923505578826    0.42557945494945143    0.3980062617811522    
  0.2977808238510261    0.18618954756028297    0.11167181054733814    0.07222670086674492    0.05376704999228957    
  0.08534109640414718    0.07222542772582716    0.0678988820348305    0.06789365805324075    0.07222563775843811    
  0.08533344956498315    0.11669896547009534    0.18134417811668413    0.2897077026450589    0.3980058455726816    
  0.4057299218330084    0.3464404067390537    0.3465550215749712    0.4056976822588126    0.3980061924850551    
  0.2897057811099092    0.18136535672245993    0.116661485979095    0.08534109640414718    0.1349236155785783    
  0.11669892852539974    0.111637082187664    0.11103042817678958    0.11164818331691014    0.11669897272194672    
  0.13489586752075966    0.18052848394198823    0.2689475294038844    0.3850841778632352    0.4255842748617555    
  0.3465551342964222    0.2930972894390431    0.34655508094154863    0.4255794566565239    0.3850836959385878    
  0.26893356217318376    0.1805133167481868    0.1349236155785783    0.1982466500460211    0.18047327937094484    
  0.1813467632206605    0.18619764457606147    0.18619026992912746    0.18134411234543896    0.18052841686060464    
  0.19822359724425478    0.2507498463379322    0.34505289078006063    0.43304089540929563    0.41825805711877573    
  0.3465551164117246    0.3464404143435185    0.41829237820041026    0.4330389390070771    0.34505938591406915    
  0.2507412535466812    0.1982466500460211    0.2556238594644972    0.250717424676532    0.2690022007355723    
  0.28970022706843085    0.297787164767048    0.2897076426640483    0.2689475230043907    0.2507499213774777    
  0.25564081425409857    0.29878131671440844    0.37510833453773584    0.43304089385671757    0.4255842529583123    
  0.4057299180185556    0.42570439743646016    0.43299413651591334    0.37509282845783987    0.29876817041125847    
  0.2556238594644972    0.2791575529378239    0.2987982144780101    0.34505282813844934    0.38502429507114333    
  0.39796254427319433    0.39800574279621903    0.3850842055292434    0.3450529055485325    0.2987813278122281    
  0.27918093378286535    0.2987813655619033    0.3450528644766891    0.3850841806174224    0.3980058727055161    
  0.3979625142482391    0.38502435865199786    0.34505286716916445    0.2987981454561009    0.2791575529378239    
  0.2556238972560643    0.29876816211611223    0.37509269655623934    0.4329941993352652    0.4257044659059123    
  0.405729986037367    0.42558426938249283    0.43304094388561604    0.37510822885394596    0.2987813149892891    
  0.25564078160583387    0.2507498883899543    0.2689475688502244    0.2897076899173471    0.2977871846969317    
  0.28970027619917094    0.2690022413435854    0.25071740968448264    0.2556238972560643    0.19824665124926055    
  0.25074134836519657    0.3450593866807949    0.4330388249129012    0.41829240912257903    0.34644050576985036    
  0.346555179400533    0.4182581212114878    0.43304092653483284    0.34505287776128807    0.2507499061186251    
  0.19822356211818415    0.18052844258119516    0.18134414824328987    0.18619025838767914    0.18619768032572737    
  0.18134678730471265    0.1804732482541969    0.19824665124926055    0.1349236205191248    0.1805133430819176    
  0.26893354084774473    0.3850837276475307    0.4255795089700127    0.3465550473728664    0.293097396984236    
  0.34655519494233356    0.42558422484077857    0.3850842030372449    0.2689475823914162    0.1805284751388355    
  0.13489586267531886    0.11669897556016112    0.11164816162080456    0.11103042058053875    0.1116371108384829    
  0.1166989156098125    0.1349236205191248    0.08534108320166739    0.11666149902436093    0.18136532924682902    
  0.289705749344916    0.39800623383380185    0.405697645308774    0.34655504136807663    0.3464404785964244    
  0.40572994211344954    0.39800573221191304    0.2897076641816301    0.18134412527573837    0.11669896459245858    
  0.0853334713912071    0.07222562077444392    0.06789365880797205    0.06789889413919252    0.07222538793277816    
  0.08534108320166739    0.05376705614902593    0.07222670983878735    0.1116717776659845    0.18618954568407417    
  0.2977808007925439    0.3980062161638996    0.42557946422702064    0.41829231529570826    0.4257044303823024    
  0.39796248570956116    0.29778716800222715    0.18619024540070553    0.11164815105826134    0.07222564008248494    
  0.053774545450632184    0.046154658338831325    0.0441513607730097    0.0461557266480564    0.05376705614902593    
  0.0362235468877451    0.04616128781907817    0.0678948285529634    0.1110112947957841    0.18618957845010767    
  0.2897057995556931    0.3850837244913861    0.43303894548655364    0.4329940894183677    0.3850243650498659    
  0.2897002790540203    0.1861976642585795    0.11103040968966103    0.06789368866835974    0.04615464838292774    
  0.036224606226903246    0.03243259113869723    0.03243385944696606    0.0362235468877451    0.027244726644019744    
  0.032433246712721096    0.044147804797554355    0.06789481393060112    0.11167178085631115    0.1813653205321005    
  0.26893353601073683    0.34505933510220466    0.37509272410987426    0.3450528865735293    0.2690022058998434    
  0.18134674460534736    0.11163711132451219    0.06789888814113278    0.044151366933049836    0.03243257815670816    
  0.02724522962983574    0.02577510858218619    0.027244726644019744    0.02310737483437546    0.02577546384769127    
  0.032433254529346686    0.046161280141864984    0.07222672151296167    0.11666149324751496    0.18051333765146393    
  0.25074133844537694    0.2987680820787803    0.2987981288070952    0.2507174211849104    0.18047327408019614    
  0.11669891270116507    0.07222543536579033    0.0461557204363385    0.03243386153579775    0.02577512990765078    
  0.023106993243013674    0.02310737483437546    0.02192389139598683    0.023107371690397897    0.027244722256667527    
  0.03622354102871449    0.053767077296714386    0.08534107327682214    0.13492361262396627    0.19824660706582478    
  0.2556238496536963    0.2791575273246722    0.2556238704089525    0.19824663199660197    0.13492360816111654    
  0.08534108428281385    0.05376704733044851    0.03622355678570971    0.02724472958060815    0.023107358972120736    
  0.02192389139598683    0.021782961072668132    0.022923853372947278    0.026917483823230164    0.03556633918977467    
  0.052383358013206094    0.08248167058540957    0.1295390979654355    0.18925162895090172    0.24313433711534066    
  0.26522247260420434    0.24319047480491424    0.18925380062097147    0.12946580061045967    0.08249821228714421    
  0.05239980317504767    0.03556373384153378    0.026917788119249768    0.022923782047216124    0.021782961072668132    
  0.022923796678000475    0.022924525723941762    0.025741365849681903    0.032784580573487355    0.04739582446908501    
  0.07524106320234579    0.12284023173857592    0.19123241633670804    0.2660132470811249    0.3165938183132447    
  0.31651464476751    0.2660162239373109    0.19133425628397877    0.12281712814499604    0.07522121776148728    
  0.04740224660618551    0.03278315707755485    0.025742979167400197    0.022923796678000475    0.02691778295640965    
  0.02525850808417373    0.026917970191077174    0.032783153436981904    0.04613109087716951    0.07345783640003521    
  0.12433049482508764    0.20555322008261706    0.3052580337802483    0.38682400161603414    0.4171989229065824    
  0.3868487411132907    0.3051234000095455    0.20558944491822823    0.12436672834823047    0.07345151192880946    
  0.04613306237984093    0.03278313121573868    0.02691778295640965    0.03556374108021298    0.031075040775395867    
  0.03107024572816336    0.03556836033729605    0.04739527458657547    0.07345897612815275    0.1257949084070795    
  0.2172355194912467    0.3362218811152841    0.424790472759347    0.45004273931673805    0.45014631321576415    
  0.424925750849821    0.3362132427085517    0.21717754181960308    0.12581659433793288    0.07345151713534266    
  0.04740224986095921    0.03556374108021298    0.05239982299637179    0.04287524007868961    0.040367459165293905    
  0.04287366296788592    0.05240279115301802    0.0752164015980932    0.12436899668328415    0.21717743142211376    
  0.3461981713204664    0.4188730678574803    0.37346320162150526    0.3304908569120608    0.37321026081238406    
  0.4189423627824294    0.3462498229806652    0.21717756069147265    0.12436674326244178    0.07522122239782517    
  0.05239982299637179    0.08249822177863488    0.06502048586650276    0.05885011387737597    0.058837292847874756    
  0.06503579552255184    0.08248040022881242    0.12284355219189631    0.2055542836515914    0.3362450303931402    
  0.4189697669503716    0.3212414424281244    0.19653414770507377    0.19669425005454697    0.3212114825782714    
  0.4189422663926294    0.3362132765944636    0.20558946203428086    0.12281708018026075    0.08249822177863488    
  0.1294658244045587    0.10232810483260828    0.09217087555790941    0.08997652737929941    0.09217074990721437    
  0.1023291663786621    0.12946476708161628    0.19133886557889337    0.3051259444113998    0.4249276249311776    
  0.37321370534083875    0.19669375743702874    0.12653887860562268    0.19669426039746912    0.37321024080512344    
  0.4249257462486364    0.30512341589586023    0.1913342345971235    0.1294658244045587    0.1892538338178426    
  0.15503612210081363    0.14451809647206043    0.14326228331604676    0.14328397183900138    0.14450061609314513    
  0.15506771533933442    0.18922720497651285    0.2660579484561548    0.3868195077279934    0.4501151777198755    
  0.3304587726969549    0.19669372083867914    0.1965341556797397    0.3304908917561837    0.4501462610952703    
  0.3868487775086374    0.2660162136725597    0.1892538338178426    0.24319050468674    0.21277338671528043    
  0.21059205540732556    0.21869466927380674    0.22318114577094486    0.21869926625715735    0.21058345535825984    
  0.2127907564298463    0.24318925876552033    0.31652383389320166    0.41726310142649325    0.4501151744106695    
  0.37321369614840644    0.3212414752745464    0.3734631326664567    0.4500426555231602    0.4171989138878468    
  0.31651464734304086    0.24319050468674    0.2652225612407827    0.25239714893529686    0.26959601258334587    
  0.2971175684634027    0.31453806522556516    0.31455737117020205    0.29711483984244597    0.2696165642867982    
  0.2523880930997437    0.26526220206130485    0.3165238413517877    0.3868194280506217    0.42492759840225997    
  0.4189697915769343    0.41887298240865567    0.42479051028032    0.3868241082691626    0.31659379700296897    
  0.2652225612407827    0.24313438424135655    0.25239164848175916    0.29364921151518053    0.34615745596598374    
  0.3788932675875639    0.38642041326324456    0.37888067771099126    0.3461675043383231    0.2936563365912938    
  0.25238811858723825    0.24318926222159548    0.26605802958751523    0.30512593566475243    0.33624500934789847    
  0.34619818235807004    0.3362219067315272    0.3052580630596448    0.26601325426993616    0.24313438424135655    
  0.18925163611532875    0.21282369911553783    0.2695983698208493    0.3461660820556479    0.3988297244653387    
  0.4086173707141484    0.4086337481009655    0.39882713262238445    0.34616747143955173    0.26961651638515555    
  0.2127908230846144    0.18922720088456746    0.19133884843280988    0.20555429787776558    0.21717739946054856    
  0.2172354666635894    0.2055532260031531    0.1912323510819669    0.18925163611532875    0.12953911068556923    
  0.15504097199968683    0.21054631933912252    0.29712071881027535    0.3788767709651388    0.4086335793548584    
  0.4072350248352169    0.40863374747951986    0.37888070428576953    0.29711486649974145    0.21058347262282998    
  0.15506772961213502    0.12946474890025852    0.12284355897045614    0.12436899481114123    0.12579487636282313    
  0.12433050436704947    0.1228402345837406    0.12953911068556923    0.08248169176329175    0.1022630314456789    
  0.14451700341144164    0.21873519857327792    0.3145510536183069    0.3864157610750689    0.408633511395228    
  0.4086173960230126    0.3864203615438084    0.3145573521940878    0.2186992893597938    0.144500591512966    
  0.1023291641387323    0.08248041250091948    0.07521640214276201    0.0734589567761292    0.07345783319376303    
  0.0752410324873929    0.08248169176329175    0.05238333847270117    0.06503173402454462    0.0922317343842267    
  0.14327199348141753    0.22314321380805624    0.31455101369590643    0.3788766580573052    0.398829705612798    
  0.37889320478435107    0.31453805103315874    0.22318113721051744    0.1432839217802817    0.09217072498371974    
  0.06503579850006437    0.05240278249656777    0.04739525295873222    0.046131094986890865    0.047395816401695025    
  0.05238333847270117    0.03556635456859272    0.042890846336791785    0.058842138304019485    0.08991972965387236    
  0.14327202567347813    0.21873520700695384    0.29712071206543367    0.3461660809348362    0.34615743398758403    
  0.29711766369238474    0.21869468639114295    0.1432622999662542    0.08997652749889    0.05883732084289294    
  0.04287367090465448    0.035568362187433186    0.03278316440999104    0.03278458089894433    0.03556635456859272    
  0.026917482446006467    0.031071843223281426    0.04035344092382486    0.05884211070885692    0.09223174080672264    
  0.1445169882664264    0.21054631025701123    0.2695983600218036    0.29364923958656736    0.2695960071251625    
  0.21059202475926642    0.1445180780869529    0.09217088899734482    0.05885011873894178    0.040367449803440036    
  0.031070245308291666    0.02691798051345114    0.02574135833100672    0.026917482446006467    0.0229238534142305    
  0.02525967471738006    0.031071841504353544    0.042890828795369346    0.06503174831743669    0.10226301942733013    
  0.15504096478717372    0.21282371009835482    0.2523916516189553    0.2523970590695616    0.21277340422075525    
  0.15503607016529056    0.10232809420225368    0.06502049910444961    0.04287523141349474    0.031075034275420767    
  0.025258512945249452    0.022924513818951258    0.0229238534142305    0.021782961072668132    0.022923853372947278    
  0.026917483823230164    0.03556633918977467    0.052383358013206094    0.08248167058540957    0.1295390979654355    
  0.18925162895090172    0.24313433711534066    0.26522247260420434    0.24319047480491424    0.18925380062097147    
  0.12946580061045967    0.08249821228714421    0.05239980317504767    0.03556373384153378    0.026917788119249768    
  0.022923782047216124    0.021782961072668132    0.02138461157178192    0.022411568965023415    0.026001373329211347    
  0.03373236843657832    0.04858373548530862    0.0747011518871617    0.11486096733913112    0.1650752502536187    
  0.20987713146215023    0.22815513104506682    0.2099497507026007    0.1650813977746862    0.1147693971671359    
  0.07472039567884543    0.04860727595891017    0.03372819226619165    0.026001994245977444    0.02241151559482713    
  0.02138461157178192    0.022411525110861783    0.022412758312717156    0.02517698806021778    0.032031676107109525    
  0.046184507598881604    0.07295825877842609    0.11830033085108833    0.18281249686533899    0.25242626293846027    
  0.29887426347542123    0.29877786176810167    0.2524165714124206    0.18293907285038696    0.118279753115284    
  0.07292860451324235    0.046193538942388195    0.0320300577448976    0.025178923011268704    0.022411525110861783    
  0.02600199212569935    0.024285717883926108    0.026001698128708596    0.03203058015795214    0.045690288702962364    
  0.07361465726258674    0.12551494930594606    0.20783666452531915    0.30677179067153354    0.38434191948262875    
  0.4119765974274929    0.3843816258189623    0.30661070508026256    0.20787297576545757    0.12556350089228951    
  0.07360434597091786    0.04569359851130374    0.032030039423375484    0.02600199212569935    0.03372819052447699    
  0.02898822987008705    0.028981651514880632    0.03373478633333991    0.04618409955885621    0.07361580100261755    
  0.12886481316790815    0.2250251121216592    0.34581256020199774    0.4239972474074061    0.4343496065354365    
  0.4344647139996577    0.42415749970464534    0.34581108424849427    0.22493787822782857    0.12890192783220716    
  0.0736043689450835    0.04619354422968587    0.03372819052447699    0.048607286890755955    0.038386472948142576    
  0.03568063132634318    0.038385102575539745    0.048609543075619745    0.0729233527460096    0.1255688302349875    
  0.22494617662118038    0.35779594330683334    0.4110299625621579    0.33276673956538494    0.27813451226541924    
  0.3324939691793338    0.41108806151137245    0.3578875067102035    0.22493787326133916    0.1255635197484531    
  0.07292861576368756    0.048607286890755955    0.07472040460667223    0.055660509778060564    0.04873743837284713    
  0.04872269092264253    0.05567779003914021    0.07469946125492712    0.11830738408178362    0.20782867918000683    
  0.3458493916667481    0.4111391853537919    0.27203931642433166    0.1379374693561237    0.13807619700036708    
  0.2720276596374364    0.41108788957405484    0.3458110613253253    0.2078730109896661    0.11827973104825992    
  0.07472040460667223    0.11476941127836593    0.08410073121078035    0.07167451201506325    0.06866585227567415    
  0.07167378142747216    0.08410211943113403    0.11477102761792526    0.18294075299321286    0.3066121743876976    
  0.4241589798099365    0.3324953639799488    0.1380755717848421    0.07502528218991031    0.1380762173150801    
  0.3324939679122253    0.4241574567177842    0.3066106394734313    0.18293906314829178    0.11476941127836593    
  0.16508144112318143    0.12333667817290707    0.10685372584400701    0.10192456866652622    0.10194829628831917    
  0.10683226363319516    0.12336481230048242    0.1650521517888148    0.2524676942413423    0.38434324337697334    
  0.43440853781316396    0.27812145191794657    0.13807555529228965    0.13793749571936723    0.27813453064952387    
  0.4344646541995585    0.38438168712441984    0.25241661661671966    0.16508144112318143    0.2099497531780377    
  0.16556413410950163    0.1504445671935432    0.14862152375001353    0.14944854199201768    0.14862565822799093    
  0.15044302023510525    0.16557477585868524    0.2099467505169276    0.29877455295187977    0.41207957465482203    
  0.4344085512800892    0.33249531514360825    0.2720393265212529    0.3327667334357447    0.4343495114087481    
  0.4119766191934966    0.29877783179027534    0.2099497531780377    0.22815515718040313    0.19428343676286794    
  0.18915500413818623    0.19866381747087197    0.20793098564313467    0.20794749553689412    0.19864860316145033    
  0.18917929197999697    0.19427019192688805    0.2282047363535472    0.2987745788275973    0.38434317673629964    
  0.4241589425810689    0.4111391476494624    0.411029927238617    0.4239972310508788    0.3843419472872054    
  0.2988741625941408    0.22815515718040313    0.20987720219733572    0.19428230673161415    0.2049916541982948    
  0.2318820560549543    0.2578542702604144    0.26788966419716964    0.25785985550646096    0.2318831881767623    
  0.20499807777608328    0.19427020391521663    0.20994669032117064    0.25246776147655997    0.3066121468292255    
  0.34584938374162827    0.357795898649843    0.3458126216953864    0.3067717952238391    0.25242620527348697    
  0.20987720219733572    0.165075252067692    0.1656199193618953    0.18915773106226613    0.23188305342840224    
  0.27733238151211026    0.3043840121795594    0.3043791084736595    0.27733725278905713    0.2318831276727008    
  0.18917922025135359    0.16557475410130001    0.1650521085902381    0.18294070239957497    0.20782867856333154    
  0.22494613118652412    0.22502502678117847    0.2078366387460827    0.18281244535712982    0.165075252067692    
  0.11486098405459721    0.12333859278517643    0.15039918151680115    0.19865759523338852    0.25785704595376513    
  0.3043790947315894    0.32091749048345214    0.3043791385011577    0.2578598871964798    0.19864862243494172    
  0.150443043033576    0.12336482606833434    0.11477103162278428    0.11830738246348015    0.12556884035262195    
  0.1288647693061933    0.12551495261157855    0.11830033231471652    0.11486098405459721    0.0747011547615256    
  0.08402687778229602    0.10684698168442675    0.1486682158485692    0.2079378503082108    0.2678913809603692    
  0.3043790733241162    0.3043840590928966    0.2678896254244166    0.20794750630201334    0.14862563061680514    
  0.10683223912572222    0.08410212400138069    0.07469947184473422    0.07292334063808478    0.07361577110022954    
  0.07361465544067713    0.07295822545128376    0.0747011547615256    0.048583715457033105    0.05567212110809767    
  0.0717421661814782    0.10193494404522048    0.1494057786292289    0.2079378337990098    0.2578569888008619    
  0.2773323543030592    0.25785431423443594    0.20793095753002847    0.14944852265003225    0.10194827307758948    
  0.0716737487899206    0.055677789748239434    0.048609527456105306    0.04618408739763275    0.04569029479632873    
  0.04618449971407578    0.048583715457033105    0.033732380575133614    0.038407170624352054    0.048728358152093344    
  0.06860108464100399    0.10193496774751042    0.14866821493552096    0.19865759172860423    0.2318831271459403    
  0.23188203732679286    0.19866383165999715    0.14862155371104904    0.10192458213240563    0.06866584856706208    
  0.04872271792841195    0.03838510084252856    0.033734780165251735    0.032030594363735926    0.032031675882749945    
  0.033732380575133614    0.0260013732966613    0.02898365481127133    0.035661531480131244    0.048728348662252265    
  0.07174216498155177    0.10684697517477995    0.1503991999647607    0.18915770428949066    0.20499163203850437    
  0.18915498712881051    0.15044457911595666    0.10685370953988657    0.07167452608868276    0.0487374394635304    
  0.035680622745920924    0.0289816536182975    0.026001704463609714    0.025176978056443585    0.0260013732966613    
  0.022411569247429885    0.024287211900628207    0.028983653434809003    0.03840715560672292    0.055672134228213335    
  0.08402688230059423    0.12333855995342112    0.1656199326292004    0.19428224068496966    0.19428337374376392    
  0.16556409839284247    0.12333662680318748    0.08410072396974395    0.055660511126458624    0.038386470719307224    
  0.028988218011195603    0.024285721754413188    0.022412744630848042    0.022411569247429885    0.02138461157178192    
  0.022411568965023415    0.026001373329211347    0.03373236843657832    0.04858373548530862    0.0747011518871617    
  0.11486096733913112    0.1650752502536187    0.20987713146215023    0.22815513104506682    0.2099497507026007    
  0.1650813977746862    0.1147693971671359    0.07472039567884543    0.04860727595891017    0.03372819226619165    
  0.026001994245977444    0.02241151559482713    0.02138461157178192    0.020789975488018243    0.021660292143916328    
  0.02466933261763635    0.031075531753805383    0.04318650279442168    0.06393745351022843    0.09498786622853334    
  0.13295960282295863    0.16627699670698556    0.17974738524832898    0.16632264851486037    0.1329613074289991    
  0.09492269330580894    0.06395435804562168    0.04320134958116355    0.03107352963938798    0.024670008933681195    
  0.021660365065437125    0.020789975488018243    0.02166037506828489    0.02166125196973676    0.024159042814066445    
  0.030270544187403395    0.04272253890953618    0.06590817822969469    0.10443157951104912    0.15827630825845776    
  0.21557947938627947    0.253463141039011    0.2533956880407907    0.21558235425397754    0.15837037137064838    
  0.10441335527934288    0.06588993093303697    0.042728467950265206    0.03026949661673671    0.024160297635486588    
  0.02166037506828489    0.02467000503233754    0.023065541063360798    0.02466962567534996    0.030269355933630733    
  0.0428173023973827    0.06814037911233388    0.11464180469042824    0.18774200033304742    0.27567313423401046    
  0.34573713712373066    0.371213529519127    0.34576038177666946    0.27554580135020457    0.1877787289200844    
  0.11467264015659777    0.0681356397062112    0.04281947799009555    0.030269476247465267    0.02467000503233754    
  0.031073529701401974    0.026601278500054226    0.02659756319847454    0.03107741168332351    0.04272250339721239    
  0.06814216486640552    0.1189369780723495    0.20727911296295162    0.32106355594881064    0.4040615065052593    
  0.4262918582974241    0.42638906062197285    0.4041959695120356    0.3210525348509897    0.20722490314707384    
  0.1189606100470955    0.06813565522304028    0.04272846890174468    0.031073529701401974    0.04320136472253172    
  0.03359865214652854    0.031014596482440787    0.03359733609899004    0.043203420357453136    0.0658845349136425    
  0.11467830179662634    0.20722130289209628    0.33645300283344587    0.41055462119747627    0.3672901240454768    
  0.3252059190155718    0.36703977583723507    0.4106273628316826    0.3365017563295906    0.20722490934188592    
  0.11467266932607992    0.06588993195467402    0.04320136472253172    0.06395435671063522    0.046114441032979306    
  0.0395383331134619    0.03952671587411388    0.04612743946035928    0.06393818455832859    0.10443445976428839    
  0.18774482252646388    0.32108534655227094    0.4106480145587047    0.3206706801435669    0.19848681068366927    
  0.19865245743600174    0.3206344528167489    0.4106272478751375    0.321052562245569    0.18777874538671982    
  0.10441335269023529    0.06395435671063522    0.09492271850196925    0.06606205940279763    0.05411361342821652    
  0.05107749639872398    0.05411363684092515    0.06606288759354821    0.09492349101517653    0.15837115079154843    
  0.27554617423298666    0.40419638305380506    0.36704065736175395    0.19865159561284518    0.12948186280360002    
  0.19865252811838272    0.36703976506182157    0.4041959695513162    0.2755458128868427    0.15837036214035932    
  0.09492271850196925    0.13296132330274976    0.09281542748018078    0.07579191039248398    0.06994921993516783    
  0.06996508509144354    0.07577624779516169    0.0928352701743744    0.13293991634545196    0.21561997234769464    
  0.34572790540537685    0.4263643244980145    0.32516770488066243    0.19865157307712022    0.19848681286799644    
  0.325205947834211    0.4263889294307253    0.3457604269619303    0.21558233740360602    0.13296132330274976    
  0.16632263659386215    0.12094543475019018    0.10189988752406548    0.09575756916681408    0.09466886352916519    