#     DFTpy    
  CRYSTAL 
    
  PRIMVEC    
  1.6717255888226408    -2.895513656153812    0.0    
  1.6717255888226408    2.895513656153812    0.0    
  0.0    0.0    3.1467280148275854    
  PRIMCOORD    
  1    1    
  Si    0.0    0.0    0.0    
  BEGIN_BLOCK_DATAGRID_3D    
  3d_datagrid_density    
  BEGIN_DATAGRID_3D#0    
  15    15    15    
  0.0    0.0    0.0    
  1.6717255888226408    -2.895513656153812    0.0    
  1.6717255888226408    2.895513656153812    0.0    
  0.0    0.0    3.1467280148275854    
  0.079797208588316    0.14062624489164094    0.3299376985187336    0.43261243766644736    0.317976010582089    
  0.1846834021152995    0.11400747904338342    0.09413921920759848    0.11400749220989104    0.18468345604319936    
  0.3179759719407853    0.4326124495507961    0.32993757941277757    0.14062619126937742    0.079797208588316    
  0.14062617850326378    0.14054295658243215    0.2729391626705007    0.4253060432908369    0.3760892413005675    
  0.23237556531071152    0.13557736822732463    0.0952207483721722    0.09523692478980408    0.1355573747085909    
  0.232405375272523    0.3760667622580503    0.42522977835498205    0.27297200552759143    0.14062617850326378    
  0.329937618846582    0.27293913071219966    0.3301293503620873    0.4252232759300642    0.3937984785927724    
  0.2613345181017267    0.15315243501050282    0.09784802430914233    0.082034422049479    0.09784794136895765    
  0.153152836714976    0.2613145133553516    0.393906386442662    0.42522981652425335    0.329937618846582    
  0.4326124427212864    0.42530594721446663    0.4252233125588394    0.43249884310640396    0.37603992325751556    
  0.26141812224286787    0.15981398073858627    0.10008955013979301    0.07473782338104955    0.07475301416370986    
  0.10007116641833493    0.15985076087254818    0.26131453493316525    0.37606679949233796    0.4326124427212864    
  0.31797599177846364    0.3760892295555854    0.39379840204706884    0.37603989349897926    0.3181105611113462    
  0.23239718469576215    0.15309875899968386    0.10008122183949537    0.07254179636352162    0.06422394236552957    
  0.07254304526905923    0.10007121477210687    0.15315285972557588    0.2324054368403711    0.31797599177846364    
  0.18468340346089976    0.23237559478141898    0.2613345262971648    0.26141815220027886    0.2323972284755771    
  0.18458132909489797    0.13556160550541116    0.09789280725636026    0.0747423564623175    0.06422894647705697    
  0.0642239336558753    0.0747530126866988    0.09784792011813846    0.13555742119149133    0.18468340346089976    
  0.11400746343178941    0.13557735655917733    0.15315245387683585    0.15981399025247195    0.1530987687742398    
  0.13556158960648437    0.1140914811420699    0.09522757274067391    0.08199792226203469    0.0747423525680439    
  0.0725417969891812    0.07473780907714513    0.08203439909699489    0.09523690490873134    0.11400746343178941    
  0.09413920032455965    0.09522076071846176    0.09784805886114693    0.10008952453984193    0.1000812390897921    
  0.09789283045870592    0.09522757131827259    0.09406656336667116    0.09522761022453237    0.0978928598891877    
  0.10008121530802418    0.10008952668719154    0.0978480006256543    0.0952207713186539    0.09413920032455965    
  0.11400749214333418    0.0952369146706407    0.08203440909792341    0.07473783303202026    0.07254178842252397    
  0.0747423124023742    0.08199788781398983    0.09522755653579373    0.11409148619105478    0.13556162784433864    
  0.15309871651263882    0.15981403115155873    0.15315243900851302    0.13557736875394097    0.11400749214333418    
  0.18468340571956013    0.13555741910480942    0.09784792451166963    0.07475303184143132    0.064223951435475    
  0.06422893660643551    0.07474233839560394    0.09789282329158312    0.1355616271412559    0.18458131533348068    
  0.23239717599130144    0.2614181443595668    0.26133455580682624    0.23237566178757982    0.18468340571956013    
  0.3179759603010291    0.2324053738740563    0.15315284075933183    0.1000711982758576    0.07254304377552895    
  0.06422392966957469    0.07254180955753028    0.1000812185303227    0.15309877556077678    0.23239721799742863    
  0.31811052092309466    0.37603999601284593    0.3937984087933882    0.37608926861271086    0.3179759603010291    
  0.43261242411948314    0.3760667072897898    0.2613145592029618    0.15985074040638678    0.10007119878337474    
  0.07475301429968959    0.07473783147156486    0.1000895205927255    0.15981396853967683    0.2614181106272169    
  0.37603985231927967    0.43249877022972766    0.42522329753234117    0.4253060874174015    0.43261242411948314    
  0.3299376148864622    0.4252297923746942    0.3939064471321046    0.26131457435500643    0.15315283726675882    
  0.09784791985101607    0.08203440956687273    0.09784798917192541    0.15315246112585465    0.2613345381007371    
  0.39379840981629866    0.4252232921005605    0.33012944788456156    0.2729391600802633    0.3299376148864622    
  0.14062619595355202    0.2729719816648629    0.42522980280390854    0.37606684284018366    0.23240539665002163    
  0.1355573538671362    0.0952369243976644    0.09522075254885887    0.13557738006548764    0.23237562075245483    
  0.37608920732359    0.425306109282547    0.27293912179006813    0.14054294528149952    0.14062619595355202    
  0.079797208588316    0.14062624489164094    0.3299376985187336    0.43261243766644736    0.317976010582089    
  0.1846834021152995    0.11400747904338342    0.09413921920759848    0.11400749220989104    0.18468345604319936    
  0.3179759719407853    0.4326124495507961    0.32993757941277757    0.14062619126937742    0.079797208588316    
  0.13250121853859095    0.1994649132219642    0.36944825904318157    0.4248554494375664    0.30012311912374856    
  0.17433542020394865    0.10866005329321458    0.09012535893254393    0.108660086718478    0.17433546413741735    
  0.30012312493551924    0.4248555040946246    0.3694481441946542    0.19946486409984301    0.13250121853859095    
  0.19946484994309688    0.19935256875647822    0.3230709348627854    0.43196270071778037    0.35803728836844145    
  0.21889503809624625    0.128715874451962    0.09115218649743695    0.0911664198647261    0.12869915235307072    
  0.2189207533334592    0.35801357616513446    0.4319165331745637    0.32307810051209623    0.19946484994309688    
  0.36944818513267513    0.3230708620026997    0.36963887429507175    0.43189066151476396    0.37692453416227095    
  0.2462646149462718    0.14504288472724725    0.09359437531800419    0.07881278946900365    0.0935945956762657    
  0.1450401287399453    0.24625568592073319    0.3769937321797993    0.4319166169191195    0.36944818513267513    
  0.424855502980744    0.4319625343827121    0.43189064766258767    0.4247469869975594    0.3580044692116958    
  0.24632834645362098    0.15124199470075775    0.09561488095311083    0.07193868304235426    0.07194921643179934    
  0.09560320248232662    0.15126768103278282    0.2462557233301686    0.3580135833335255    0.424855502980744    
  0.300123153985131    0.3580372993123135    0.3769244748006694    0.358004413232171    0.3002401876791227    
  0.21890661184076093    0.14500333467741416    0.09561061738180841    0.06984177175187732    0.062039272490884256    
  0.06984228135798788    0.09560324005246806    0.1450401515582763    0.2189208435769708    0.300123153985131    
  0.17433541968419672    0.21889504090690767    0.246264655403761    0.24632833394007117    0.21890662622998247    
  0.17425036548499484    0.12870558281015476    0.0936254136175919    0.07194118163229647    0.0620434663199921    
  0.06203927221544445    0.07194921688802189    0.09359457088005178    0.12869920548549643    0.17433541968419672    
  0.1086600575705989    0.12871587527970707    0.14504291002221315    0.15124199827584298    0.14500334644828974    
  0.12870556890782434    0.1087297902888034    0.09115767971673856    0.07878820344452905    0.07194117644018273    
  0.06984176112092191    0.07193869006668575    0.07881276318998222    0.0911664061509134    0.1086600575705989    
  0.09012533220263218    0.09115219055890637    0.09359439431324017    0.09561486112346738    0.09561062945244386    
  0.09362543661591134    0.09115768560125903    0.09006474430444082    0.09115772600104034    0.09362547241666835    
  0.09561060991076105    0.09561486233454768    0.09359435282673832    0.09115219885683966    0.09012533220263218    
  0.10866006972797096    0.09116640767112659    0.07881277770897663    0.07193869273276633    0.06984176693055698    
  0.07194114295232411    0.07878817437784874    0.09115767213790459    0.10872981891703276    0.12870560265582714    
  0.14500332026190452    0.15124200379718164    0.145042896109682    0.12871587498580106    0.10866006972797096    
  0.17433540692522667    0.12869919104285857    0.09359458407490415    0.0719492481986811    0.062039292176324846    
  0.06204345326509418    0.0719411628156008    0.09362543638733059    0.1287056001039125    0.17425034448949409    
  0.21890664925705833    0.2463283702302813    0.24626466160082697    0.21889510701544357    0.17433540692522667    
  0.30012314768218257    0.21892075258086877    0.1450401475079767    0.09560323228793119    0.06984228368945368    
  0.06203926627766572    0.06984177788217602    0.09561060866245    0.1450033524517723    0.21890665027143374    
  0.30024014247151815    0.3580044894623241    0.3769245033949416    0.3580373262186111    0.30012314768218257    
  0.42485544361460303    0.3580135197341998    0.24625571522027614    0.1512676793856946    0.09560323966521797    
  0.07194921388988465    0.07193869888442375    0.09561486266221125    0.15124198797271507    0.2463283486907728    
  0.3580043800227723    0.4247468920970038    0.431890692576358    0.43196270728285835    0.42485544361460303    
  0.3694482094880367    0.4319165808871901    0.3769937545993427    0.24625571547232036    0.1450401436051738    
  0.09359457821247545    0.07881278328479936    0.09359434529294823    0.145042909995763    0.2462646752550833    
  0.3769244715272524    0.4318906816193354    0.3696389033553191    0.32307097595876855    0.3694482094880367    
  0.19946488326686518    0.323078070407174    0.431916572680548    0.3580136141977798    0.21892073527789024    
  0.12869916191070124    0.09116640957673601    0.09115219450286936    0.12871587782447505    0.21889507301545338    
  0.35803733803543597    0.43196271120922786    0.323070861874145    0.19935255146283193    0.19946488326686518    
  0.13250121853859095    0.1994649132219642    0.36944825904318157    0.4248554494375664    0.30012311912374856    
  0.17433542020394865    0.10866005329321458    0.09012535893254393    0.108660086718478    0.17433546413741735    
  0.30012312493551924    0.4248555040946246    0.3694481441946542    0.19946486409984301    0.13250121853859095    
  0.3020909187017724    0.3528922257686364    0.42803800667104874    0.3824747128562191    0.25144013299433016    
  0.14754419966407556    0.09464824123368269    0.07947505676513927    0.09464827676154136    0.14754423499939326    
  0.25144015301629863    0.3824747021606828    0.4280378418980545    0.3528922345572678    0.3020909187017724    
  0.3528922225475193    0.3527883651693532    0.4151871583939238    0.41485727919041615    0.30402326071033725    
  0.18363907384912367    0.11083047238950379    0.0803498109371418    0.08035726345247422    0.11082194956209779    
  0.18365193016973763    0.30400776943134883    0.4148534355976072    0.4151637230173312    0.3528922225475193    
  0.42803788882346205    0.4151870703421848    0.42814661765697315    0.4148245218165835    0.3230179986183391    
  0.20619098343445916    0.12393108046560898    0.08232492173756062    0.07019364899155722    0.08232545727282894    
  0.12392833385772292    0.20619246475032676    0.3230325431374817    0.4148533813415441    0.42803788882346205    
  0.3824746530925002    0.41485705930203676    0.41482446601351364    0.38242092887578955    0.3040142414627807    
  0.20621333513493598    0.12892992098909228    0.08389756112174769    0.06450538817954696    0.06450844031938528    
  0.08389453016705462    0.12893716716155473    0.2061924728404006    0.3040077462476557    0.3824746530925002    
  0.251440137713277    0.30402324276833864    0.32301793908124155    0.3040141738588239    0.2514908625883152    
  0.18363901061413038    0.12391950061233385    0.08389582069005853    0.0627511565913327    0.056292058420874806    
  0.06275081234677272    0.0838945666483755    0.12392832388434699    0.18365198772879396    0.251440137713277    
  0.1475441999979496    0.18363913602897575    0.20619096867520303    0.2062133336467355    0.1836390275828161    
  0.1475116523979781    0.1108268770315025    0.08233437153478344    0.0645061567128375    0.05629311842067534    
  0.05629205231863344    0.0645084508918334    0.08232544324647978    0.11082198762324907    0.1475441999979496    
  0.0946482393028605    0.1108304909136103    0.1239310902094428    0.1289299572966367    0.1239195064340685    
  0.11082685210602783    0.09467548549465077    0.08035261238922184    0.07018632547338723    0.06450614179332331    
  0.06275114783104649    0.0645053912593831    0.07019361307011288    0.08035723019552232    0.0946482393028605    
  0.07947503459526979    0.08034981616454426    0.08232493846348077    0.08389754384149756    0.08389584877334426    
  0.08233438935721812    0.0803526195292332    0.07945093106795202    0.08035263746479625    0.0823344062550253    
  0.0838958150077608    0.08389754466711999    0.0823248994407781    0.08034980788853231    0.07947503459526979    
  0.09464825368016382    0.08035723385661647    0.07019363172853758    0.06450540052295971    0.0627511588560236    
  0.06450610090316722    0.07018629089336792    0.08035261333467063    0.09467549353659055    0.11082688987500731    
  0.12391946562404199    0.12892992270394227    0.12393107426571526    0.11083049636952386    0.09464825368016382    
  0.1475442024608164    0.11082196746024417    0.08232544979785865    0.06450846097315154    0.056292073720012194    
  0.056293113412877786    0.06450613545849701    0.08233437408485336    0.11082688058931356    0.1475116526236069    
  0.18363898412050325    0.20621332557553826    0.20619100851653593    0.183639171273808    0.1475442024608164    
  0.25144007829427983    0.18365192874093048    0.12392833347338798    0.0838945717999814    0.0627508067521988    
  0.05629204898620938    0.0627511585628128    0.08389583229746675    0.12391948544798503    0.1836390311237948    
  0.251490809044152    0.30401423482778667    0.3230178807230662    0.30402327327481626    0.25144007829427983    
  0.3824747038112608    0.3040076308056839    0.20619244764392922    0.12893714978946602    0.08389455267745068    
  0.06450843213828296    0.06450539898432915    0.08389753775122567    0.12892991978691662    0.20621335587875259    
  0.3040141869708022    0.38242087884711773    0.414824521797664    0.4148572422669168    0.3824747038112608    
  0.4280378832121251    0.41485333879119146    0.32303258191336387    0.20619242133580618    0.12392833168897716    
  0.08232543562731862    0.07019362447855544    0.08232490556947283    0.12393110742520412    0.2061910392202337    
  0.32301793242454935    0.4148244452196083    0.42814655478447927    0.4151871708033546    0.4280378832121251    
  0.35289221263076304    0.41516367279777555    0.41485336398804085    0.3040077455635294    0.1836519629383241    
  0.11082193965149112    0.08035724253643654    0.080349799915404    0.11083049648197371    0.1836391025447157    
  0.30402327842067417    0.41485724557667764    0.4151870885212417    0.35278833097241796    0.35289221263076304    
  0.3020909187017724    0.3528922257686364    0.42803800667104874    0.3824747128562191    0.25144013299433016    
  0.14754419966407556    0.09464824123368269    0.07947505676513927    0.09464827676154136    0.14754423499939326    
  0.25144015301629863    0.3824747021606828    0.4280378418980545    0.3528922345572678    0.3020909187017724    
  0.427468613541739    0.4272735416883551    0.3910633667860501    0.2945287767414385    0.18763810196519404    
  0.1141577915361506    0.0767954281981016    0.06579647598519245    0.07679544211138108    0.11415782352765631    
  0.18763810135747944    0.29452877838453123    0.3910632621757855    0.4272734578569789    0.427468613541739    
  0.42727346330612215    0.42725376589902914    0.4071373800483799    0.3331254493077451    0.22682498728956463    
  0.13941696940312176    0.08828323474249075    0.06643232356580951    0.06643416037080213    0.08828134124774491    
  0.13941912519624566    0.22682215281490692    0.33312841553260547    0.40712767467131655    0.42727346330612215    
  0.39106331301584624    0.40713736221326874    0.3910780246693724    0.333121261753003    0.24174979208479153    
  0.1552684045707779    0.09749987637977607    0.06784026679165213    0.05899443180928598    0.06784036500383257    
  0.09749967287155144    0.1552691347608779    0.24174831686361914    0.333128446577848    0.39106331301584624    
  0.2945287185065928    0.33312532202652734    0.3331212217634962    0.2945240346532905    0.22682422307398492    
  0.15527011600144117    0.10104181421811817    0.06897468257826721    0.054830854518116194    0.05483124266156737    
  0.06897398612127166    0.10104292892684577    0.15526915197854285    0.22682212852469022    0.2945287185065928    
  0.18763813651557484    0.2268249483404925    0.2417497541234352    0.2268241895043327    0.1876426825543581    
  0.1394157819292599    0.09750027908095991    0.06897409782545467    0.053551299033832364    0.04876535587526299    
  0.05355154416332358    0.06897401524803269    0.09749966856229632    0.13941915663742652    0.18763813651557484    
  0.1141578258347875    0.13941695870920653    0.15526844073713028    0.15527017140349422    0.13941580219616226    
  0.11415660306041481    0.08828232827510356    0.06784026455583253    0.054831030553811694    0.048765806561125315    
  0.04876535583369513    0.05483124157202185    0.06784036118995457    0.08828137327973376    0.1141578258347875    
  0.07679544050027722    0.08828326410084177    0.09749987348580666    0.10104186693376742    0.09750029329831902    
  0.08828230933860004    0.07679674431343317    0.06643346380656966    0.05899424486195625    0.05483101706798864    
  0.053551294672283284    0.054830861827570666    0.058994408182432    0.06643413464839723    0.07679544050027722    
  0.06579645175891953    0.06643233500272232    0.0678402676566583    0.068974677420955    0.06897412729016246    
  0.067840255230567    0.06643347362566403    0.06579455627071898    0.06643348992245986    0.06784027895370966    
  0.06897408801135663    0.06897468101842906    0.06784024587854216    0.06643233660055627    0.06579645175891953    
  0.07679543327883076    0.06643413139707889    0.058994415682667056    0.05483087142072019    0.05355130118510897    
  0.05483098867401719    0.058994239075043496    0.06643345562250783    0.07679676067920038    0.08828232857309601    
  0.09750027129269534    0.10104184350669894    0.0974998840173987    0.08828325034600555    0.07679543327883076    
  0.11415781374869018    0.08828135346120836    0.06784036025960519    0.05483126703212306    0.048765365094494535    
  0.048765796927545464    0.05483101248852965    0.06784025727476486    0.08828232491876495    0.11415659181128275    
  0.13941577850166    0.15527013761572273    0.15526843854126976    0.13941699044775208    0.11415781374869018    
  0.18763811331029717    0.13941912838718035    0.09749968620694886    0.06897400604053844    0.05355155118060408    
  0.04876535497949587    0.0535513003412064    0.06897410202699437    0.09750026802872576    0.13941579831650072    
  0.18764264421227175    0.226824264506139    0.2417497571721102    0.22682496501672186    0.18763811331029717    
  0.29452870083510513    0.22682206131507465    0.1552691582254887    0.10104290453284298    0.06897399991116418    
  0.05483122936279702    0.05483086221282251    0.06897466836525414    0.10104183777490233    0.15527010685348827    
  0.2268242010346973    0.2945240445382068    0.33312124923664443    0.33312541020702874    0.29452870083510513    
  0.3910633055002959    0.33312840107049774    0.24174829383727617    0.1552691595370795    0.097499671208358    
  0.06784034747768061    0.05899440491411149    0.0678402523518892    0.09749989989158282    0.1552684782753443    
  0.24174976765127226    0.33312121649730003    0.3910779805117669    0.40713740205634513    0.3910633055002959    
  0.427273437649136    0.40712766522406973    0.3331283856353083    0.22682215077281134    0.139419142447187    
  0.08828133451110362    0.06643414328581111    0.06643233454363469    0.08828326217585224    0.1394169606538732    
  0.22682503010830177    0.3331254236062637    0.4071373598966919    0.4272536831796877    0.427273437649136    
  0.427468613541739    0.4272735416883551    0.3910633667860501    0.2945287767414385    0.18763810196519404    
  0.1141577915361506    0.0767954281981016    0.06579647598519245    0.07679544211138108    0.11415782352765631    
  0.18763810135747944    0.29452877838453123    0.3910632621757855    0.4272734578569789    0.427468613541739    
  0.3516140087707856    0.3319021794558763    0.27458974867175046    0.19770256596087774    0.12935186975373902    
  0.0837831194769845    0.05998481140359186    0.05279566865368888    0.059984824003195256    0.08378315079098578    
  0.12935188756538868    0.1977025766820138    0.2745896860529055    0.33190214942333895    0.3516140087707856    
  0.3319021920146958    0.3319062512318166    0.29294297509799533    0.22507995186313234    0.1537177343092055    
  0.09955562317904186    0.06738769485386033    0.05321065919421991    0.05320974460472516    0.0673888639515433    
  0.09955409075740003    0.15371929941660403    0.22507808327988782    0.2929465072744398    0.3319021920146958    
  0.27458968887929547    0.2929429900320616    0.2745885221876178    0.22508039614146794    0.1631217847740724    
  0.10941768551878371    0.07330820825931195    0.05412895770133938    0.04827255016870448    0.05412903211477892    
  0.07330802931230603    0.10941830320211937    0.16312149682909993    0.2250781127489292    0.27458968887929547    
  0.19770254288764103    0.22507986112292694    0.22508036493958966    0.19770364189505504    0.15371655090826802    
  0.10941940032110889    0.07559678548469483    0.05487361024874202    0.04545563806902164    0.04545577233520838    
  0.05487316658743532    0.07559731487805568    0.10941829898893933    0.15371927846452113    0.19770254288764103    
  0.12935190325918824    0.1537177005911068    0.16312173589335258    0.1537165580548281    0.1293525489037493    
  0.09955500000161377    0.07330780253212621    0.05487322578352073    0.044573847070023646    0.04132116328711116    
  0.044574170374178476    0.05487318510143063    0.07330802977576961    0.09955411597672806    0.12935190325918824    
  0.08378314061980884    0.09955562437705635    0.10941771733427587    0.10941944286322339    0.09955499739542227    
  0.08378340484098667    0.06738746296724119    0.05412984447222412    0.045455251796312976    0.04132220615661189    
  0.04132115598354498    0.04545577779606409    0.05412903960370847    0.06738888920135248    0.08378314061980884    
  0.05998481711167077    0.06738770346040034    0.07330819591173772    0.07559682440932418    0.0733078123487909    
  0.06738745340488846    0.059985493989240544    0.05321010337351193    0.048272386029567745    0.045455239950748946    
  0.04457384214625068    0.045455652376628894    0.04827253119530739    0.05320972937122651    0.05998481711167077    
  0.05279565788677733    0.05321067006536457    0.05412896571221276    0.05487361857514337    0.054873247816425004    
  0.054129844427073893    0.05321011641391274    0.052795304246516093    0.05321012223200078    0.05412986436671195    
  0.05487322499568861    0.05487361996690627    0.05412894500161036    0.05321067447461769    0.05279565788677733    
  0.05998481576985503    0.05320972521361613    0.04827252931975288    0.04545565915524288    0.04457384989827587    
  0.045455219157261445    0.0482723791503374    0.0532100973067157    0.05998550497397794    0.06738746956914336    
  0.07330779753693506    0.07559679886033704    0.07330819547764535    0.06738770276225717    0.05998481576985503    
  0.08378314489864842    0.0673888738712589    0.054129030037580975    0.04545580250627141    0.04132116609029694    
  0.04132219866607873    0.045455236412329736    0.05412984669165595    0.06738746616296479    0.08378340190576518    
  0.09955499537855551    0.10941940670540602    0.10941771722684109    0.09955565709702172    0.08378314489864842    
  0.12935187238982876    0.09955408273575792    0.07330803004934838    0.05487318710060907    0.044574171709755576    
  0.04132115503201407    0.044573843568502226    0.05487324416096188    0.0733077857501447    0.09955498400006056    
  0.12935253252741769    0.15371658731971505    0.16312176922420288    0.15371771907619466    0.12935187238982876    
  0.1977025255568976    0.1537192258143326    0.10941832226486559    0.07559730183771723    0.05487317491151104    
  0.04545576141062872    0.04545564289633679    0.05487360158845796    0.0755967944758236    0.1094193908212295    
  0.1537165401221924    0.19770362221730922    0.22508035167932025    0.22507996336076724    0.1977025255568976    
  0.2745896936341437    0.22507806718027576    0.16312149368118922    0.10941832602645653    0.07330802425438634    
  0.05412901564412829    0.04827252824568149    0.05412894044605346    0.07330822085102395    0.10941774344516542    
  0.16312176582622437    0.22508035529495468    0.27458846518361785    0.292943007696655    0.2745896936341437    
  0.33190215410775287    0.29294649340315243    0.22507803447429955    0.15371932482635603    0.09955409561239228    
  0.06738886053238734    0.05320973811408015    0.053210665923531415    0.06738770193671374    0.09955560564397056    
  0.1537177752954522    0.2250799654888224    0.2929429839794389    0.33190621644548335    0.33190215410775287    
  0.3516140087707856    0.3319021794558763    0.27458974867175046    0.19770256596087774    0.12935186975373902    
  0.0837831194769845    0.05998481140359186    0.05279566865368888    0.059984824003195256    0.08378315079098578    
  0.12935188756538868    0.1977025766820138    0.2745896860529055    0.33190214942333895    0.3516140087707856    
  0.22359720434991898    0.2093631958406455    0.17244737102646313    0.12754585447660105    0.08858395956832206    
  0.06184379887552834    0.047301553672851916    0.042799394539315166    0.04730156827308581    0.06184381428266896    
  0.08858394995463677    0.12754582203224663    0.17244729411247556    0.20936320900048316    0.22359720434991898    
  0.20936320312529327    0.20936568757033913    0.18378686073754785    0.14327302957181196    0.10257226384463351    
  0.0712635581918489    0.0518974332580856    0.043069891139855    0.043068374251506426    0.051898933757749614    
  0.07126253349372803    0.1025733897165832    0.14327214982552075    0.183788197820631    0.20936320312529327    
  0.17244734249455226    0.1837868558361182    0.172446670337313    0.14327280628826333    0.10797417697999252    
  0.07712423733174084    0.05557651774398433    0.04365977578989106    0.039942538868554735    0.04366011195170668    
  0.055575631260005066    0.07712463602738634    0.10797370152887176    0.1432721011113853    0.17244734249455226    
  0.12754582511011964    0.1432729440254607    0.1432727554590642    0.12754648756010253    0.10257210992297879    
  0.07712500441677957    0.057005000599083804    0.044129395734649836    0.03810121262099584    0.03810120852943997    
  0.044129435980416014    0.05700568469458857    0.07712463756145461    0.10257334620671266    0.12754582511011964    
  0.08858396354494812    0.1025723022655934    0.10797414012567275    0.10257208533526542    0.08858426308537147    
  0.07126304974992634    0.055576151401299005    0.04412955840252397    0.03750072399261003    0.03537038541491398    
  0.03750056722775643    0.04412946212059632    0.05557563084218668    0.07126254991369504    0.08858396354494812    
  0.06184380000089253    0.0712635943256271    0.07712423241630484    0.07712500248395472    0.07126307843382797    
  0.06184381215745609    0.051897913993203475    0.04366001883952865    0.038101029823529316    0.035370405615551284    
  0.03537038799496414    0.03810121840172206    0.04366010436548871    0.05189896705306867    0.06184380000089253    
  0.04730156166573702    0.0518974331164859    0.055576517153175034    0.05700502911674284    0.055576144792487056    
  0.05189789583211636    0.04730211536031204    0.04306882877830698    0.039942963736586116    0.0381010190690017    
  0.03750072419905075    0.038101221654822603    0.039942525881663464    0.043068351126877395    0.04730156166573702    
  0.04279938180237712    0.043069893380486196    0.043659788627287546    0.044129397682980916    0.04412957636014069    
  0.04366002511812351    0.043068824822249566    0.042799489431853625    0.04306883966960051    0.043660032936717226    
  0.044129556039161764    0.044129394293634404    0.043659760879912066    0.043069893464000315    0.04279938180237712    
  0.04730156432348721    0.04306835270443956    0.039942539956927835    0.03810122627305959    0.03750072299478109    
  0.03810099449654691    0.03994294307849997    0.04306882246491652    0.04730212295798789    0.05189792546510616    
  0.05557612411538265    0.05700500790960086    0.05557650573516402    0.0518974386069526    0.04730156432348721    