#     DFTpy    
  CRYSTAL 
    
  PRIMVEC    
  1.73069857699871    -2.9976578679489214    0.0    
  1.73069857699871    2.9976578679489214    0.0    
  0.0    0.0    5.721196427723451    
  PRIMCOORD    
  4    1    
  Si    1.7306985769987102    0.9992192893163065    0.36048972631263965    
  Si    1.7306985769987102    -0.999219289316308    3.221087940174365    
  Si    1.7306985769987102    0.999219289316307    2.500108487549086    
  Si    1.7306985769987104    -0.9992192893163079    5.360706701410811    
  BEGIN_BLOCK_DATAGRID_3D    
  3d_datagrid_density    
  BEGIN_DATAGRID_3D#0    
  15    15    25    
  0.0    0.0    0.0    
  1.73069857699871    -2.9976578679489214    0.0    
  1.73069857699871    2.9976578679489214    0.0    
  0.0    0.0    5.721196427723451    
  0.10320168406930907    0.11243863935492494    0.14402478248017697    0.20901095644449752    0.31973792655485367    
  0.47029427191770207    0.6136623184310559    0.674567427458118    0.6136623245235413    0.47029423721827457    
  0.31973791223637443    0.20901096282644702    0.14402476633869954    0.11243862950490699    0.10320168406930907    
  0.11243861616862645    0.11244182817669057    0.13280555201733055    0.18092695746797782    0.2687604016794579    
  0.39875691770447375    0.5383783067086393    0.6274164620932879    0.6275368484930804    0.5382268309957317    
  0.3986443106122109    0.26887070901705346    0.1809273917710751    0.13280351412063485    0.11243861616862645    
  0.1440247669089028    0.13280557063211187    0.14402071902677    0.1809187762882085    0.25180299462661904    
  0.3566534207239587    0.4583598652480644    0.5038161007560009    0.5077357766771117    0.5038908136379201    
  0.45858228333261114    0.356648158057516    0.2517018866489915    0.18092740343974986    0.1440247669089028    
  0.20901096153841356    0.18092698639223506    0.18091875621249753    0.20902341595013404    0.2687641443184101    
  0.35666609014557765    0.42320275316533457    0.3949316642557827    0.3258135901101812    0.3257846136680685    
  0.39477244671943146    0.4232231845538964    0.35664815155723345    0.26887068447782553    0.20901096153841356    
  0.31973788598299235    0.26876037486117377    0.2518029518111074    0.26876412223547985    0.31983114647693617    
  0.3986243794348824    0.4584641862738098    0.3948982016620837    0.24949551014640806    0.1863751105084866    
  0.24961143414256348    0.39477240224202725    0.4585822757528813    0.39864435025720346    0.31973788598299235    
  0.470294289515158    0.39875686913369945    0.3566533823742223    0.3566661257846545    0.39862441997148346    
  0.4703486390547089    0.5383184696976114    0.5038147347973253    0.3258241644824064    0.1864119397379002    
  0.18637515721904246    0.32578459316420666    0.5038907334946708    0.5382267775944207    0.470294289515158    
  0.6136623554721644    0.5383783813123548    0.4583598527562709    0.423202841844003    0.4584642292874447    
  0.5383184450163162    0.6135866036021671    0.6276015055519558    0.5077150282338527    0.32582419158993065    
  0.24949549538762889    0.32581362233824385    0.5077358527375795    0.6275369212304607    0.6136623554721644    
  0.6745673375646223    0.6274164512291134    0.503816106856456    0.3949317313726057    0.39489823601567553    
  0.5038147322342639    0.6276014675601996    0.674335559123837    0.627601499183343    0.503814686939756    
  0.3948982205609267    0.394931758694429    0.5038160857745817    0.6274164203943586    0.6745673375646223    
  0.6136623014953867    0.6275369104861747    0.5077358234244673    0.3258136184823796    0.24949555382512    
  0.3258241857527513    0.5077150155925998    0.6276015401754585    0.6135865483965569    0.5383184462819568    
  0.45846419382882514    0.4232027873137305    0.4583598694346947    0.5383783525548496    0.6136623014953867    
  0.4702942423052302    0.5382267530254989    0.5038907780719551    0.3257845939013157    0.1863751489991801    
  0.18641190049871828    0.32582413381029673    0.503814754504534    0.5383183581117296    0.4703486521241557    
  0.3986244646968278    0.35666608175149095    0.3566534049372231    0.39875686442277775    0.4702942423052302    
  0.31973789372619127    0.3986443610305075    0.45858226037909505    0.39477243298687775    0.24961141865049077    
  0.18637512857849642    0.24949550266931245    0.39489821239562384    0.45846418554091767    0.3986243794511522    
  0.3198312081685539    0.2687641480786504    0.25180297927939455    0.2687603538472031    0.31973789372619127    
  0.209010973993397    0.26887067494653827    0.35664815493249313    0.42322312959616293    0.39477240535780445    
  0.32578456981985165    0.32581363743556174    0.39493170676808376    0.4232027484840837    0.35666608450235987    
  0.2687641524922898    0.20902344842646747    0.18091876544458624    0.1809269508089777    0.209010973993397    
  0.1440247758460398    0.1809273969673259    0.2517018829873697    0.3566481737144946    0.45858227495075243    
  0.5038907683426145    0.5077358402126206    0.5038160983934756    0.4583598177990912    0.3566534197607809    
  0.2518029936707747    0.1809187739325721    0.14402071707344866    0.13280554850304696    0.1440247758460398    
  0.11243861617421486    0.13280352137733986    0.1809273873760971    0.2688707087593255    0.39864432143025336    
  0.5382267995052777    0.627536921018197    0.627416413467992    0.5383783210074488    0.3987569041260558    
  0.2687603762481309    0.180926988445216    0.13280556007220654    0.11244181754279246    0.11243861617421486    
  0.10320168406930907    0.11243863935492494    0.14402478248017697    0.20901095644449752    0.31973792655485367    
  0.47029427191770207    0.6136623184310559    0.674567427458118    0.6136623245235413    0.47029423721827457    
  0.31973791223637443    0.20901096282644702    0.14402476633869954    0.11243862950490699    0.10320168406930907    
  0.1014576369313725    0.11017056379931306    0.13978859331018942    0.20016013138044708    0.30202378889739867    
  0.43901073537602386    0.5678591633795554    0.6221350409002722    0.5680400599486105    0.4390324530580706    
  0.30190306483266566    0.20017664889823367    0.13980643514061594    0.11017211977501946    0.1014576369313725    
  0.11017209853010008    0.11017152823293787    0.12783758409393361    0.1694627877749975    0.2448240369841061    
  0.358018634079397    0.4858228749768188    0.5732676172815409    0.5732943054480417    0.48560980597424674    
  0.35797922181078523    0.24495928358472882    0.16945219155087796    0.12781946821214266    0.11017209853010008    
  0.13980645654521323    0.13081028797136612    0.1397910748244064    0.16943577092173892    0.22646258541578612    
  0.314170252365692    0.416420708700863    0.49346443793801636    0.5194594114867597    0.49350136806063083    
  0.4166121556156657    0.3141821488969268    0.2263316850715224    0.16945220325158708    0.13980645654521323    
  0.20017662591044197    0.17906846629327056    0.17908929468728085    0.20018123741572177    0.2448298971735095    
  0.31419150839375815    0.389673692831164    0.42991479217746437    0.42948481184321396    0.4294904064586709    
  0.42987522269018524    0.38956766458204584    0.31418217914552254    0.24495927784269717    0.20017662591044197    
  0.3019030664083848    0.26614157742240274    0.2537749372237262    0.26613529501377303    0.3020485123991146    
  0.35795856753206656    0.4164491535738339    0.42996412856185073    0.38441465723239243    0.3531367686414824    
  0.38444023921342696    0.4298752266007025    0.41661216717400157    0.3579792204354057    0.3019030664083848    
  0.4390324292071064    0.3906716664497128    0.3585167143661127    0.35850991837210167    0.39049655283409485    
  0.439065341647059    0.48577666499006356    0.49342282748421146    0.42949154386184374    0.35312856626537525    
  0.3531368432358441    0.4294904050290684    0.4935013330164434    0.4856097658213838    0.4390324292071064    
  0.5680401051567229    0.5144486399378881    0.43811878602416066    0.4006645272668812    0.4382832051764675    
  0.5143945285697789    0.5678770567077204    0.5733762491006866    0.5194753464104546    0.4294916120147137    
  0.38441467358637693    0.42948481249298437    0.5194594801718342    0.5732943489784333    0.5680401051567229    
  0.6221350398100035    0.5846115819824248    0.4399104098420921    0.31164270992394316    0.3115614588872746    
  0.4399221418390715    0.5848630631438609    0.6219134301834448    0.5733763102735171    0.4934227827403764    
  0.42996414372479885    0.4299148190683011    0.493464392459566    0.5732676817333691    0.6221350398100035    
  0.5678591582886251    0.5848259016150208    0.42138728649377444    0.20795775051436083    0.13417771317330593    
  0.20797125378969988    0.4213362977125722    0.584863180603477    0.5678770310717749    0.4857766647045126    
  0.4164491097456907    0.38967371044595245    0.4164207750950737    0.48582285300951833    0.5678591582886251    
  0.43901073770719706    0.5143905393435211    0.439992548700724    0.2079110072810567    0.07793389745763823    
  0.07797817709170697    0.207971222540443    0.43992221212150295    0.5143944449493868    0.439065410652107    
  0.35795864910932634    0.3141915254290712    0.31417024917216885    0.3580186058094659    0.43901073770719706    
  0.30202377911997136    0.3905080485067922    0.438330939021    0.3114314645140654    0.13430877045338754    
  0.07793387164718435    0.13417771147254892    0.3115614423786673    0.4382831557618389    0.3904965056899749    
  0.3020485753620601    0.24482992027319742    0.2264625572739422    0.24482398660661422    0.30202377911997136    
  0.20016011415204105    0.2661971630633378    0.3585012900826115    0.4007934156107737    0.311431466960213    
  0.20791101234828038    0.20795779438476572    0.3116426919378057    0.4006644963326704    0.35850992606711796    
  0.266135312993669    0.20018123487859238    0.16943575995232923    0.16946278708336943    0.20016011415204105    
  0.13978859531238244    0.17909137734133526    0.25371411632623997    0.3585012979729602    0.4383309333833062    
  0.43999252360115215    0.4213872657063724    0.43991041802336334    0.4381187255014504    0.35851678178250057    
  0.25377497023352086    0.1790893482101202    0.13979105077152948    0.1278375662096337    0.13978859531238244    
  0.1101705499236798    0.13081398367072422    0.17909134414031871    0.2661971711038093    0.39050803528261324    
  0.5143905616053265    0.5848257696470274    0.5846115965825768    0.5144486000026693    0.3906716618249614    
  0.266141557382017    0.1790684569375206    0.13081028897203412    0.11017151884388401    0.1101705499236798    
  0.1014576369313725    0.11017056379931306    0.13978859331018942    0.20016013138044708    0.30202378889739867    
  0.43901073537602386    0.5678591633795554    0.6221350409002722    0.5680400599486105    0.4390324530580706    
  0.30190306483266566    0.20017664889823367    0.13980643514061594    0.11017211977501946    0.1014576369313725    
  0.09731168518081747    0.104530015810794    0.12890027153604586    0.17777988998805572    0.25847066561571813    
  0.36443286865257835    0.4619691609925093    0.5025165866931487    0.4621669370282665    0.36445278877834714    
  0.2583308204066068    0.1777996939634394    0.12891992906383062    0.10453307946348067    0.09731168518081747    
  0.10453307293843006    0.10453028784438279    0.11772321984979388    0.14884389045183793    0.20424260402129005    
  0.2866145831111334    0.3801684965598741    0.4453371261761868    0.4453308178790844    0.37999712198870245    
  0.28660543660725835    0.20435873369696356    0.14883291338948332    0.11770167640834532    0.10453307293843006    
  0.12891992380466125    0.12299881393141794    0.12890440486710908    0.14881693060261575    0.18732991852549474    
  0.24739885224244124    0.3227006573219976    0.3887545082087181    0.41506560435524187    0.3887586239720147    
  0.3228334178328882    0.2474168991332878    0.18721341582903891    0.14883289729469826    0.12891992380466125    
  0.17779967936597338    0.1655700282934181    0.16558980090805223    0.17780474207580027    0.20424158369523038    
  0.24742718255947443    0.30296736950927866    0.35404718889385245    0.38269118564762783    0.3827081936418056    
  0.35406168987547393    0.30285060128524904    0.2474169144316393    0.20435871249140528    0.17779967936597338    
  0.25833080946862236    0.2410873150107898    0.23507522100501266    0.24108191181876357    0.2584697587778027    
  0.2865829183187064    0.32270628285830893    0.354108224644856    0.3672815339553967    0.3684975025012647    
  0.36726624591304374    0.3540616662211016    0.3228334183699062    0.2866054486041823    0.25833080946862236    
  0.36445278399086156    0.3463978977339256    0.33148269822030924    0.33146649886475393    0.3462352883455223    
  0.3644779029366512    0.380139267742915    0.3886976383701029    0.38269929566244376    0.3684800524413945    
  0.36849758548378053    0.3827081772984516    0.3887585879938533    0.37999707198905713    0.36445278399086156    
  0.4621669810677178    0.44728810919814904    0.4022512163688691    0.3760826875888047    0.40241093788921156    
  0.4472493866435891    0.4620086397654836    0.44540522714965697    0.41507800731637784    0.3826993697801538    
  0.3672815296335886    0.38269116205011217    0.4150656535400427    0.4453308141012425    0.4621669810677178    
  0.502516653031656    0.5017631592782026    0.3997264918909917    0.2947063007696438    0.29461551562046    
  0.399749864400101    0.5019832222019764    0.5023501677651335    0.4454052335545707    0.388697618369789    
  0.35410821479959204    0.3540472426775227    0.3887544661657379    0.445337089866581    0.502516653031656    
  0.4619691521201553    0.501969745573125    0.3806632307975474    0.19658799856672218    0.1298748261797069    
  0.19659670686511405    0.38061700383021785    0.5019832567314158    0.4620086025200089    0.3801392475531789    
  0.32270626128022645    0.30296734888255783    0.32270071100326686    0.3801685530268509    0.4619691521201553    
  0.36443285837612627    0.447275758859313    0.3998006631024574    0.19654083458808436    0.07624656963582158    
  0.07629589636095849    0.19659669620312126    0.3997499128834646    0.44724936461888715    0.3644779292744137    
  0.2865829488869661    0.2474272193826052    0.24739883438492588    0.2866145307113682    0.36443285837612627    
  0.2584706527653807    0.34623898508272294    0.402431245542059    0.29449155782217956    0.13000818539260212    
  0.07624656094669623    0.12987482290045085    0.2946154863673986    0.40241089403360764    0.34623525642692404    
  0.25846982121937007    0.20424158966544168    0.18732988246527393    0.20424260081919277    0.2584706527653807    
  0.1777798844098107    0.24111992663834153    0.33146044655761153    0.3762355555376162    0.29449154506898945    
  0.19654084014862858    0.1965880329457568    0.29470627146636097    0.37608265622616005    0.33146650979817566    
  0.24108193807322592    0.17780472541247713    0.1488169412967303    0.14884391216789497    0.1777798844098107    
  0.1289002713379498    0.16559166852918575    0.23504026939434658    0.3314604673733807    0.4024312527539836    
  0.39980061107359344    0.38066323672531804    0.39972648834604724    0.40225119049447433    0.33148273432213177    
  0.2350752553651496    0.16558982618645177    0.12890440149783502    0.11772321148253233    0.1289002713379498    
  0.10452999366031841    0.12300571573956941    0.16559164070995078    0.24111996063904834    0.3462389449770546    
  0.44727578323811273    0.5019697273007214    0.5017631841830599    0.44728806463262444    0.3463979280689392    
  0.24108731782884288    0.1655700277043059    0.12299880982783015    0.10453028021834514    0.10452999366031841    
  0.09731168518081747    0.104530015810794    0.12890027153604586    0.17777988998805572    0.25847066561571813    
  0.36443286865257835    0.4619691609925093    0.5025165866931487    0.4621669370282665    0.36445278877834714    
  0.2583308204066068    0.1777996939634394    0.12891992906383062    0.10453307946348067    0.09731168518081747    
  0.09224982789601933    0.09762408586806465    0.1156968092501923    0.151368622001575    0.20888651334374733    
  0.2827767288729068    0.350105920291028    0.3781277927818777    0.3502144796799968    0.28278208272107863    
  0.20880278352844853    0.1513819564314252    0.11570595607994504    0.09762712897702179    0.09224982789601933    
  0.09762711694304624    0.09762612298467786    0.10613678019756133    0.12655667528264805    0.16274900053082228    
  0.215624688605258    0.27474826759225357    0.3158754417187953    0.315866278109975    0.27466632960773807    
  0.2156259280648597    0.16280998221411566    0.12655128695749837    0.10612636303073997    0.09762711694304624    
  0.11570594707808077    0.11268646308949021    0.1156990501637832    0.1265454252715098    0.14858390614520736    
  0.18392807854186752    0.22914724090360325    0.2700854988996234    0.2870045553677013    0.2700833462124131    
  0.22920745297079886    0.18393981295402934    0.14852196026404887    0.1265512978124662    0.11570594707808077    
  0.151381977209868    0.1469243956537809    0.14693073702934464    0.15138126221362772    0.16274586186228593    
  0.18394734793275455    0.21445633859414318    0.24681647817494282    0.26856762027650455    0.26857216015943974    
  0.24683044381312136    0.214395692902559    0.18393980634294022    0.16280997807409683    0.151381977209868    
  0.20880276860220776    0.20679804489383233    0.2065413199188447    0.2068027450696084    0.2088805264252067    
  0.21560812152412162    0.229152742590431    0.24684476928694754    0.26194352920412056    0.267979198634167    
  0.26193619579890165    0.24683043373640728    0.22920743272158428    0.21562596238910892    0.20880276860220776    
  0.28278209903565094    0.29028612957915495    0.2934399975583397    0.2934191891265956    0.2901962544835922    
  0.2828001735939511    0.2747316906763419    0.2700521076022978    0.2685741885136534    0.26796986251252    
  0.2679792748976687    0.26857214964519505    0.2700833155739107    0.2746662913600421    0.28278209903565094    
  0.3502144909539668    0.3736989277697135    0.3743072221237913    0.3688337966282539    0.3743999216180144    
  0.3736759104057997    0.3501320929668955    0.31590710227546387    0.2870040549432295    0.26857421592985825    
  0.2619435310911792    0.2685676066376408    0.28700459639276404    0.31586627373712095    0.3502144909539668    
  0.3781277947225624    0.4231870163708971    0.40587224243104164    0.35870124072912324    0.35863237977244095    
  0.40591239652738187    0.42329417994717894    0.37805420849383625    0.3159071318540521    0.270052087205652    
  0.24684476712900388    0.2468165570946264    0.27008549058433046    0.3158754101843272    0.3781277947225624    
  0.3501059132981932    0.4233038376571302    0.405934562729667    0.30177048021215913    0.24754744071606422    
  0.30176690098938147    0.4059248283845388    0.42329428136609415    0.3501320850801912    0.2747316993951034    
  0.22915273051765878    0.2144563450469955    0.22914727694757372    0.2747483148558472    0.3501059132981932    
  0.28277672013288685    0.37369390990916057    0.4059293416283883    0.30173415980050233    0.19236692647667833    
  0.1924165874786729    0.3017668499322053    0.40591242476027883    0.3736758446578118    0.28280018463494616    
  0.21560818748459012    0.1839473496868999    0.18392808796430213    0.21562463428478879    0.28277672013288685    
  0.20888646919910037    0.29019093061663853    0.37441984785225285    0.35853166342047776    0.24767016316678991    
  0.19236691186304306    0.24754736541776434    0.3586323447954312    0.3743998505836646    0.29019621716632155    
  0.20888055766669048    0.1627458638092972    0.14858390726891438    0.162748971867898    0.20888646919910037    
  0.15136863593022623    0.20681927678969136    0.2934153880942573    0.3689397510409934    0.3585316449421929    
  0.30173413963681905    0.3017705141977459    0.3587011941136484    0.36883375485298425    0.2934191683869892    
  0.2068027685819152    0.1513812775674912    0.12654541253150758    0.12655666180927908    0.15136863593022623    
  0.11569679116305553    0.14693051836942286    0.206532141918742    0.29341540258780063    0.37441987716026565    
  0.4059293412891816    0.40593457531002747    0.4058722420620352    0.3743072125183419    0.29344003284181075    
  0.20654134862600015    0.146930771163294    0.11569903779296947    0.10613677282951677    0.11569679116305553    
  0.09762406143128716    0.11269470307644237    0.14693048992531707    0.20681927961049915    0.290190898672859    
  0.37369393486811897    0.42330379542274876    0.4231870104073768    0.37369889288757047    0.2902861529704957    
  0.20679806167331558    0.1469243877902427    0.11268646400623218    0.09762611608705095    0.09762406143128716    
  0.09224982789601933    0.09762408586806465    0.1156968092501923    0.151368622001575    0.20888651334374733    
  0.2827767288729068    0.350105920291028    0.3781277927818777    0.3502144796799968    0.28278208272107863    
  0.20880278352844853    0.1513819564314252    0.11570595607994504    0.09762712897702179    0.09224982789601933    
  0.08745439699566077    0.09129663027944399    0.10411712262577208    0.1290215078401205    0.1685685746947187    
  0.2189771959726736    0.264930237645422    0.28413223493607404    0.2649550103978395    0.2189728879275561    
  0.16854909719422692    0.12902414829045167    0.10411894331067344    0.09129708024488363    0.08745439699566077    
  0.09129707083578625    0.09129906161444956    0.09634484788270314    0.1086619889060772    0.1309169688668592    
  0.1633889781129087    0.19933688660995916    0.22430623481386247    0.22430224244226526    0.19932261251345473    
  0.1633894020978575    0.13093162789680152    0.10865999831252075    0.09634548732311163    0.09129707083578625    
  0.10411895162115714    0.10305782545330117    0.10411710872695029    0.10866197347959868    0.11949127933117216    
  0.13858999803485905    0.1639036439198827    0.1871613487038894    0.1968896320645009    0.18715812368178242    
  0.1639176926902679    0.1385913180618289    0.11947966269686369    0.10865998723553272    0.10411895162115714    
  0.12902414158262798    0.12958921963605574    0.12958731358975942    0.1290235840905782    0.13091527848820167    
  0.13859588848090687    0.15289842503543558    0.1699898951120937    0.18218496931823877    0.18218881777481824    
  0.16998980591040513    0.152888567713874    0.1385913406639775    0.13093160824972608    0.12902414158262798    
  0.1685490993035828    0.1755503628874167    0.1788617182277584    0.17555646410001846    0.16856352066907498    
  0.16338405745653584    0.16390840994803405    0.1699920209499191    0.1776565078193844    0.1812437479552165    
  0.17765763317409375    0.16998978424646324    0.16391769826076116    0.1633894024503546    0.1685490993035828    
  0.21897286042688696    0.2407834644670343    0.2554253110799889    0.25541454973545946    0.24076542710841486    
  0.21898382135321062    0.1993295785434875    0.18715316573200255    0.1821870839272007    0.18124730867702316    
  0.1812438042553979    0.18218882029686062    0.18715809144649506    0.1993225846352455    0.21897286042688696    
  0.26495499031122116    0.310538578649129    0.3446037210275726    0.3564728273873253    0.34461833947082987    
  0.3105280391601727    0.26493939466171523    0.22431151479667463    0.19688892847291625    0.18218714270433428    
  0.17765650636146135    0.18218497199032643    0.19688965248434614    0.2243022462027336    0.26495499031122116    
  0.2841322192240505    0.3566450763582528    0.41163803077959504    0.43168085870940703    0.4316668419400295    
  0.41167539494702804    0.3566581640676576    0.28412205250893907    0.2243115043423973    0.18715313642632608    
  0.16999203280843167    0.16998992717024977    0.18716132229277638    0.22430621343619983    0.2841322192240505    
  0.2649302238018759    0.3566695487008509    0.43431923516478543    0.4543510357421757    0.4481510926730218    
  0.4543429511925302    0.43433752487688093    0.35665825166693094    0.264939341849702    0.1993295671131174    
  0.1639083815000789    0.15289844361537855    0.16390366265078848    0.19933689282320047    0.2649302238018759    
  0.21897716270947304    0.31053345325034226    0.4116717243913512    0.45434017841202157    0.4370462825826296    
  0.4370388104374282    0.4543429063199786    0.41167543190322653    0.310527997313309    0.21898383642860916    
  0.16338410133722603    0.13859588725381633    0.13858998415357812    0.1633889763380582    0.21897716270947304    
  0.16856857261919528    0.24075922234002792    0.34463294356673657    0.4316199528056156    0.44817913603657267    
  0.4370462067979582    0.4481510245993385    0.431666803565777    0.3446183043838714    0.24076541449795796    
  0.1685635394499325    0.13091528314912165    0.1194912394880094    0.13091696041418557    0.16856857261919528    
  0.1290215170628761    0.17555799437802666    0.25541434961196857    0.35651006545161495    0.4316199475150102    
  0.4543401725820523    0.4543510680228209    0.4316808331890287    0.35647279026093903    0.2554145346820282    
  0.17555648310032465    0.1290235816377463    0.10866195569167592    0.10866199614321195    0.1290215170628761    
  0.10411711774733542    0.12958720694136205    0.17886442074858436    0.2554143437824528    0.34463299247610363    
  0.41167170408498915    0.4343192550553547    0.4116380007966009    0.3446036860391434    0.25542536409259003    
  0.17886174048575368    0.12958735859687884    0.10411709710885586    0.09634484110785511    0.10411711774733542    
  0.0912966133926781    0.10306184397374571    0.12958716849912866    0.17555802576097848    0.2407592422418805    
  0.310533456452228    0.3566695146723068    0.35664506090886866    0.31053856414796177    0.2407834721335265    
  0.17555036759826131    0.12958922145648652    0.10305782758891902    0.0912990580486612    0.0912966133926781    
  0.08745439699566077    0.09129663027944399    0.10411712262577208    0.1290215078401205    0.1685685746947187    
  0.2189771959726736    0.264930237645422    0.28413223493607404    0.2649550103978395    0.2189728879275561    
  0.16854909719422692    0.12902414829045167    0.10411894331067344    0.09129708024488363    0.08745439699566077    
  0.08427911711315512    0.08703400279550758    0.0963773411325991    0.1147423338272409    0.14400489600877822    
  0.18139442035773434    0.21552593640371043    0.22978371941384115    0.2155237291373134    0.18138854716562067    
  0.14400744552998676    0.11474332602903102    0.09637547053259293    0.08703232791090372    0.08427911711315512    
  0.08703231846311472    0.0870332352952688    0.09001218146894947    0.09762434798127595    0.11213387614502449    
  0.13371788256378228    0.1577134038813292    0.17449042592249722    0.1744911180350529    0.1577185778877269    
  0.13371656190878964    0.11213367623654903    0.09762267910417408    0.09001643765104334    0.08703231846311472    
  0.09637547401584048    0.09633236735383964    0.09637599773904403    0.09762361585844621    0.10267223089452203    
  0.11340681343588957    0.128618599046287    0.14302725925420348    0.14912462866371762    0.14302584408594302    
  0.12861739280221496    0.11340712849434974    0.10267374175436852    0.09762267334838465    0.09637547401584048    
  0.11474332715865862    0.11772612684181791    0.11772645866964115    0.11474373192098325    0.11213371320085244    
  0.11340764957353322    0.1199415740198016    0.12947819895639529    0.13660863529099707    0.1366069888935046    
  0.12947718077152745    0.1199434742441207    0.11340713278665067    0.112133682454994    0.11474332715865862    
  0.1440074387104604    0.15486569325030977    0.15970906093274093    0.15486596747685585    0.14400328703116205    
  0.13371634176042455    0.1286192672942912    0.1294763453596805    0.13308284255693847    0.13498505687058523    
  0.1330863983208196    0.1294771763654632    0.12861737258388362    0.133716586851868    0.1440074387104604    
  0.1813885525019451    0.20843555064937327    0.22739918714956642    0.22740046175885018    0.20843592182258466    
  0.18139603295969037    0.15771313005485393    0.14302666730317048    0.13660792374222475    0.1349871707852409    
  0.13498507805992638    0.1366070016646271    0.14302583464625823    0.1577185510503683    0.1813885525019451    
  0.21552371937524487    0.26795592855951267    0.3148748560579587    0.3340492268195383    0.31487195079244124    
  0.2679510920960614    0.21552490580678196    0.17448952301141346    0.14912442100239753    0.1366079706119973    
  0.13308284034863796    0.13660864514409957    0.14912466981730574    0.17449114444594874    0.21552371937524487    
  0.2297837346402641    0.30908364039234854    0.39402616329957596    0.4496617947955233    0.4496746617372889    
  0.39403591322890336    0.3090783219364148    0.22978731353985227    0.17448952891961975    0.14302666474915468    
  0.12947633214927465    0.12947822356492283    0.14302725049105433    0.17449043507834308    0.2297837346402641    
  0.21552591136487742    0.3090776021052589    0.42636835265737666    0.5251528996008525    0.5626442995173505    
  0.5251512035664415    0.42638315584707487    0.3090783399719605    0.21552487742842066    0.1577131162744631    
  0.12861927590039976    0.11994157674412674    0.1286186291671582    0.15771343507292318    0.21552591136487742    
  0.18139440510089383    0.2679550659395129    0.39403303858790567    0.5251571438703722    0.6049973309501762    