#     DFTpy    
  CRYSTAL 
    
  PRIMVEC    
  4.344    0.0    0.0    
  0.0    4.344    0.0    
  0.0    0.0    4.344    
  PRIMCOORD    
  8    1    
  Si    0.0    0.0    0.0    
  Si    1.086    1.086    1.086    
  Si    0.0    2.172    2.172    
  Si    1.086    3.258    3.258    
  Si    2.172    0.0    2.172    
  Si    3.258    1.086    3.258    
  Si    2.172    2.172    0.0    
  Si    3.258    3.258    1.086    
  BEGIN_BLOCK_DATAGRID_3D    
  3d_datagrid_density    
  BEGIN_DATAGRID_3D#0    
  19    19    19    
  0.0    0.0    0.0    
  4.344    0.0    0.0    
  0.0    4.344    0.0    
  0.0    0.0    4.344    
  0.053902625686367535    0.10918079479606861    0.3255765121328992    0.5368565416834145    0.4971376807178883    
  0.3541871947863648    0.24045782584061892    0.1726358625467249    0.13893573553038915    0.1290525716169098    
  0.1389357537993783    0.17263591970502495    0.24045784012730467    0.3541871976426786    0.49713770461328005    
  0.536856538581002    0.32557650798249593    0.10918077536051149    0.053902625686367535    0.10918075525474666    
  0.17924450554351495    0.3976093195394355    0.5624368475372021    0.5001551859262917    0.35906522956283804    
  0.24873214127313634    0.1822261682797177    0.1487936201384164    0.13893572127785367    0.14879362049555014    
  0.1822261163831736    0.24873210938811133    0.3590651368249372    0.5001552831780067    0.5624367410333169    
  0.3976093374357934    0.17924447880145633    0.10918075525474666    0.3255764838520304    0.3976093547101793    
  0.5473257680918835    0.5941839900508318    0.4983246368947755    0.3713048960043296    0.2744225306857356    
  0.21385183060914292    0.18222611224070334    0.1726358523323877    0.18222619600327086    0.21385183357248014    
  0.2744225008592223    0.37130482717535673    0.4983245944271545    0.5941839042632474    0.5473259682445177    
  0.3976093371773284    0.3255764838520304    0.5368565326908235    0.5624369142280415    0.5941839869202028    
  0.5634483259526558    0.4780617877206905    0.38873152860618254    0.3201984327176732    0.27442258743866615    
  0.24873214357201337    0.24045783461230236    0.24873216672004161    0.2744226266232096    0.3201982974259978    
  0.3887314856123149    0.47806185216954544    0.5634483116616319    0.5941840541176938    0.5624368878479343    
  0.5368565326908235    0.49713759248208755    0.5001552602460149    0.4983245983487733    0.4780618071771138    
  0.444116237688919    0.41223827935801455    0.38873147873433994    0.3713047872814313    0.3590651449286909    
  0.35418708946869987    0.3590651268470026    0.37130483447567486    0.38873141029971914    0.41223815214335213    
  0.44411618543439535    0.47806167840862884    0.49832473491495494    0.5001553537112502    0.49713759248208755    
  0.35418722699225813    0.3590651250672263    0.37130483977969914    0.38873142638778    0.41223821095510527    
  0.44411633623080615    0.4780617579027285    0.4983245959615698    0.500155298548041    0.49713766164756007    
  0.5001554002012804    0.4983246018181612    0.47806187536632266    0.4441162654973031    0.4122381575897592    
  0.3887314618443053    0.3713048131838621    0.3590651565946623    0.35418722699225813    0.24045788293854473    
  0.2487321932488445    0.2744225589452926    0.32019831755025346    0.38873143819699457    0.4780619143047678    
  0.563448395521074    0.5941841170378184    0.5624369356763989    0.5368564988503259    0.5624369678071829    
  0.5941840151312955    0.5634483201366758    0.478061838298256    0.3887315554760547    0.3201982780060143    
  0.2744225825687741    0.2487321289845643    0.24045788293854473    0.17263583470686866    0.18222616706910574    
  0.2138518553797793    0.27442256898417144    0.37130479869425337    0.49832471302180104    0.5941839978279082    
  0.5473257349189979    0.39760937356441667    0.3255764695178697    0.3976093744924184    0.5473258340817982    
  0.5941839204228615    0.498324656528675    0.37130479373092656    0.2744225440652293    0.21385189718865324    
  0.1822261281169424    0.17263583470686866    0.13893573748346716    0.14879360374554723    0.1822261833633479    
  0.24873211546866708    0.3590651458476478    0.500155404727273    0.5624367853231295    0.39760933037743024    
  0.17924451615302756    0.10918076149841158    0.17924452670900945    0.39760934101704887    0.5624368155050926    
  0.5001552575021313    0.3590651460758847    0.24873209312001762    0.18222620065326384    0.14879358835612558    
  0.13893573748346716    0.12905253937948052    0.13893579467636796    0.17263588836282584    0.24045780028479008    
  0.3541871497979193    0.49713773587112214    0.5368565501666732    0.3255764058740097    0.10918077848749602    
  0.05390263688462809    0.10918076059164397    0.32557653705907097    0.53685657415403    0.4971376298569085    
  0.3541872696682754    0.2404578897664797    0.1726358822907626    0.13893573104109547    0.12905253937948052    
  0.13893571855475154    0.14879359560406283    0.1822261368918944    0.24873210821663302    0.3590651478094685    
  0.500155331674453    0.5624368465691225    0.39760935644140083    0.1792444809289338    0.10918074281641933    
  0.17924450360341485    0.39760932795636733    0.5624368734387359    0.5001552775806515    0.35906515095429353    
  0.2487320795438789    0.1822261792021663    0.14879357902114287    0.13893571855475154    0.1726358620186909    
  0.18222617775084612    0.2138518886910177    0.27442250853189337    0.37130485151196685    0.49832464031063833    
  0.5941839426429725    0.5473259167334279    0.3976093072430868    0.32557646324974243    0.39760936268331365    
  0.5473258763736857    0.59418398269041    0.49832466973082457    0.3713048501930531    0.2744225390494506    
  0.21385190352308628    0.18222616810877457    0.1726358620186909    0.24045784407116122    0.24873214796380352    
  0.2744225766910804    0.32019832236023765    0.38873146085599597    0.478061892796326    0.563448446199943    
  0.5941840504904602    0.5624369342498766    0.5368565326944136    0.5624369212780023    0.5941840579344873    
  0.5634483596010894    0.47806178052835313    0.38873156355568844    0.32019832205745563    0.27442257835202216    
  0.2487321533242754    0.24045784407116122    0.3541872074855242    0.35906513063757245    0.3713048928472028    
  0.38873144670063353    0.4122381308056667    0.4441163706108003    0.4780618643343329    0.4983246041782116    
  0.5001552753661292    0.4971375255005892    0.5001552301404086    0.49832461042000975    0.4780617602202107    
  0.44411627196621806    0.41223818978780297    0.3887313253554813    0.37130487864790684    0.359065091746036    
  0.3541872074855242    0.497137645179205    0.5001551677889375    0.4983245815285082    0.478061762846471    
  0.4441162022659319    0.41223822839632945    0.3887314296413655    0.37130486055414536    0.3590651040222292    
  0.3541871660365352    0.3590651711002573    0.37130479133463445    0.38873143484425315    0.41223823388003195    
  0.4441162063058153    0.47806174510083665    0.49832472162486574    0.5001553484108867    0.497137645179205    
  0.5368565331805973    0.5624369643970268    0.5941839875032687    0.5634483828186333    0.4780618136205135    
  0.3887314832638325    0.32019834908033395    0.27442259958113063    0.24873217034838654    0.24045781226933668    
  0.24873217770392061    0.2744225636848589    0.32019835914431516    0.3887314260055191    0.47806188069583083    
  0.5634483960320631    0.5941839662888585    0.5624368472322221    0.5368565331805973    0.3255764443013802    
  0.39760929150424607    0.5473258743087019    0.5941839894305885    0.49832463477175476    0.37130489386161836    
  0.2744225518283563    0.21385183826012263    0.18222616458803997    0.17263582151858423    0.18222618034155202    
  0.21385187592897878    0.274422531260971    0.3713048081596991    0.4983246608935171    0.5941838446248676    
  0.5473259551232598    0.397609339810141    0.3255764443013802    0.10918074818305226    0.1792444688729181    
  0.39760938373696986    0.5624367922220698    0.5001552703368859    0.3590651824501085    0.2487320760602173    
  0.18222618660276857    0.14879358497700343    0.13893570090922489    0.1487936104628456    0.1822261551186183    
  0.2487321176539606    0.35906513639627197    0.500155244745249    0.5624367242365957    0.39760935489091986    
  0.17924452534839966    0.10918074818305226    0.053902625686367535    0.10918079479606861    0.3255765121328992    
  0.5368565416834145    0.4971376807178883    0.3541871947863648    0.24045782584061892    0.1726358625467249    
  0.13893573553038915    0.1290525716169098    0.1389357537993783    0.17263591970502495    0.24045784012730467    
  0.3541871976426786    0.49713770461328005    0.536856538581002    0.32557650798249593    0.10918077536051149    
  0.053902625686367535    0.109180734198935    0.17924452131053792    0.39760931832984325    0.5624367869551847    
  0.500155272257115    0.3590651297990907    0.2487320501795382    0.18222612321686693    0.14879358488114378    
  0.138935727010062    0.14879359895694588    0.1822261854959251    0.24873205192200862    0.35906512802750035    
  0.5001552968282114    0.5624368330723175    0.39760936557070276    0.17924450033892497    0.109180734198935    
  0.17924442890747327    0.27814406916429824    0.5182326404354354    0.6612875738350189    0.5747143319967601    
  0.4162960645986404    0.2910105018219012    0.21223135187571818    0.1682393279941764    0.14879361507557232    
  0.14932090765691247    0.17229878420806458    0.2249273102139044    0.31509100131112155    0.4350082420018765    
  0.5074902626756564    0.40875068447893903    0.23673048431076005    0.17924442890747327    0.39760933529551884    
  0.5182326527989007    0.7003426433797387    0.7447757976681036    0.6254408164032553    0.4706355128662612    
  0.3485578658193241    0.2654535728568205    0.21223128214478443    0.18222615403323694    0.1722988501341044    
  0.1836055723096014    0.2207323624812476    0.28807462292768626    0.3830034619402752    0.4699774739039549    
  0.4750306152144935    0.4087506499316014    0.39760933529551884    0.5624368018403113    0.6612876242027323    
  0.7447758217495307    0.7237408842382602    0.617453013875023    0.5053059887847484    0.41811721321957224    
  0.3485578995001283    0.2910105401006362    0.24873212418326177    0.22492737346566918    0.22073238212098398    
  0.23819713703021628    0.2781852804150846    0.33961992736400703    0.41191039360458054    0.46997753863366537    
  0.5074902869784972    0.5624368018403113    0.5001551489193765    0.5747143615005994    0.6254410061883913    
  0.6174530265466636    0.5697396665360468    0.5297662723642393    0.5053059056280388    0.4706355153884601    
  0.416295975055931    0.3590650375124233    0.31509103020790935    0.28807455458399917    0.27818520757661114    
  0.2842752300421381    0.3053836300497198    0.33961975444478953    0.383003493213667    0.43500824875584065    
  0.5001551489193765    0.35906514162353265    0.4162959946913015    0.47063546508879506    0.5053058849162331    
  0.5297660422252686    0.5697397909482425    0.6174529759606563    0.6254408863361676    0.5747143184772526    
  0.5001552723977409    0.43500839067807856    0.38300348921631455    0.3396198953237664    0.30538373914374084    
  0.2842752594347019    0.27818527099083684    0.28807454555249784    0.3150909575890317    0.35906514162353265    
  0.24873215046103572    0.29101055824043903    0.3485578443832336    0.41811714201975675    0.5053058448960038    
  0.6174530592867506    0.7237407665068304    0.7447758913299661    0.6612874993536966    0.562436744670165    
  0.507490329348766    0.4699774645756984    0.41191049643248523    0.3396198416006883    0.278185297658755    
  0.23819711871089339    0.22073235676868255    0.2249273401182371    0.24873215046103572    0.18222612453208636    
  0.21223132759742291    0.26545362191726607    0.34855781652105056    0.4706353708202866    0.6254410550015936    
  0.7447757974678657    0.7003426024543842    0.5182326786981779    0.39760928427336245    0.40875066459952647    
  0.47503048081082727    0.4699774823264712    0.3830034265377876    0.2880745578105359    0.22073234208832304    
  0.18360567131778371    0.1722987664532779    0.18222612453208636    0.14879360028752167    0.16823927774113787    
  0.21223137508606252    0.29101045897864886    0.4162959584134326    0.5747144272571536    0.6612875254862018    
  0.5182326928126753    0.2781440302792426    0.17924448711175842    0.23673052320016244    0.4087506191894786    
  0.507490234007382    0.4350083047606499    0.31509095762572853    0.22492731420746798    0.172298825897901    
  0.14932085188885333    0.14879360028752167    0.13893567876873722    0.14879366025737462    0.1822261600914333    
  0.24873208440083627    0.3590651015729434    0.5001553941456371    0.5624368493693521    0.3976092754448052    
  0.17924452067870997    0.10918071914234036    0.17924449445263588    0.39760935934992825    0.5624368466083854    
  0.500155147033072    0.35906521752667936    0.2487321462083641    0.18222614163748865    0.14879358857438024    
  0.13893567876873722    0.14879359105172718    0.1493209038942929    0.17229882407235322    0.22492729732396272    
  0.31509094875872207    0.43500827399604836    0.5074902953078195    0.40875062823316016    0.23673047987940068    
  0.17924449004719717    0.2781440672818656    0.5182326897995844    0.6612875787999087    0.5747143233265353    
  0.41629594753827415    0.29101043181337216    0.2122313931613716    0.16823926744651987    0.14879359105172718    
  0.18222618110125166    0.17229885777934864    0.1836056230475931    0.22073229942004094    0.28807457236362427    
  0.3830035056360998    0.46997742686571015    0.4750305484009673    0.40875064379213044    0.39760928718480326    
  0.5182327123930843    0.7003426891630218    0.7447757046001402    0.6254409314130047    0.4706354849302976    
  0.34855782751937514    0.26545367789294305    0.21223136171998774    0.18222618110125166    0.24873210367295875    
  0.22492733666650502    0.2207323466553188    0.23819711592079643    0.27818523725917244    0.339619939741033    
  0.41191050648820077    0.4699775431382045    0.5074903111019806    0.5624368122580428    0.6612875456115551    
  0.7447758873599661    0.7237407740921555    0.617453002310237    0.5053060435287416    0.41811708658877056    
  0.34855788217780126    0.29101057894631244    0.24873210367295875    0.3590651266236634    0.3150909630289099    
  0.2880745778366103    0.27818523462214595    0.2842752663496954    0.3053837454072217    0.33961985289642893    
  0.38300341529079684    0.43500825516787056    0.500155185954729    0.5747143340486978    0.625440853924376    
  0.6174531032848256    0.5697396429622541    0.529766140639956    0.5053058427806573    0.47063555035902843    
  0.41629593872298215    0.3590651266236634    0.5001552877569354    0.4350082302675581    0.3830035311804667    
  0.3396197883327251    0.30538364575954696    0.2842753004261609    0.2781851934470439    0.28807459175489736    
  0.3150909719298951    0.35906509696911704    0.4162959564501182    0.47063552639464334    0.5053059601260621    
  0.529766124564798    0.5697396735911381    0.6174530009266835    0.6254410046786133    0.5747143595966573    
  0.5001552877569354    0.5624368187247721    0.5074903211662506    0.4699774459176407    0.41191051074576623    
  0.33961981539937725    0.2781852868183389    0.23819713825093097    0.22073242909941448    0.2249273792570397    
  0.24873206719645494    0.2910105522576862    0.34855792977901084    0.41811709830611915    0.5053059617736332    
  0.6174530564330872    0.723740785760747    0.7447757307475955    0.661287534947289    0.5624368187247721    
  0.3976093248391034    0.40875059736867414    0.47503059299409306    0.4699774660167408    0.3830034488710751    
  0.28807462441001674    0.22073235978581596    0.18360559048552388    0.1722988417359328    0.18222610383730717    
  0.2122314293311225    0.2654536549550046    0.34855785092688335    0.4706354946086571    0.6254409571958667    
  0.7447756458202153    0.7003427892675902    0.51823264080025    0.3976093248391034    0.1792444708193673    
  0.23673046593976557    0.40875063025306996    0.5074902682443062    0.43500820271542406    0.3150909863181054    
  0.224927244803888    0.17229883864414142    0.149320870030199    0.14879356407025962    0.1682392989412467    
  0.21223133719142168    0.29101048851874556    0.41629594099983025    0.5747143765095157    0.6612874424575701    
  0.5182327234973535    0.2781440312380722    0.1792444708193673    0.109180734198935    0.17924452131053792    
  0.39760931832984325    0.5624367869551847    0.500155272257115    0.3590651297990907    0.2487320501795382    
  0.18222612321686693    0.14879358488114378    0.138935727010062    0.14879359895694588    0.1822261854959251    
  0.24873205192200862    0.35906512802750035    0.5001552968282114    0.5624368330723175    0.39760936557070276    
  0.17924450033892497    0.109180734198935    0.3255764398629796    0.39760935078436566    0.5473258413599931    
  0.5941839298095644    0.4983246271403379    0.37130481388119685    0.2744225011536608    0.21385180565286574    
  0.1822261427717113    0.17263586003369918    0.18222616964428912    0.213851882344635    0.274422537398738    
  0.3713047848846398    0.4983246571633547    0.5941839754166195    0.5473259414752749    0.3976093236993704    
  0.3255764398629796    0.3976092491853594    0.5182327131231513    0.7003427064328397    0.7447758165176577    
  0.6254408649573171    0.4706356689170337    0.3485578914392153    0.2654536194620995    0.21223136780295448    
  0.18222615051177307    0.17229881635216407    0.18360559899579304    0.22073234286435908    0.28807462793809613    
  0.3830035064675812    0.46997747218479663    0.4750305368045843    0.4087506424918769    0.3976092491853594    
  0.5473258662742079    0.7003426870846807    0.8486042628358713    0.8354816887590625    0.6870784182490145    
  0.5337494019029646    0.42127677326885105    0.3355446927458141    0.2654535734911963    0.2138518577015183    
  0.1836056835722795    0.17554802971197295    0.19178936658515727    0.23349271686422518    0.29964357332024383    
  0.37809170162254385    0.43813476327704864    0.4750305557116188    0.5473258662742079    0.5941840125812132    
  0.744775881132528    0.8354817153522028    0.7683706785391244    0.6160627335450237    0.5120759510826751    
  0.4673243292931125    0.4212768185408167    0.34855786500540586    0.2744225938249698    0.22073236840781776    
  0.1917894412507236    0.18734715766595053    0.20549363433897266    0.2446994902428559    0.30366022693917627    
  0.37809181778603146    0.46997756012669245    0.5941840125812132    0.4983245249108125    0.6254408677167924    
  0.6870785040208591    0.6160627152258499    0.5009864272179864    0.46713152011689857    0.5120758980777963    
  0.5337493106617409    0.4706354866608825    0.3713047877077459    0.28807463763541175    0.2334926954843596    
  0.20549357565853213    0.19953330167832417    0.21245334239015545    0.24469936980749235    0.29964363634617364    
  0.3830034628130593    0.4983245249108125    0.37130485590701584    0.47063552205746345    0.5337493114871248    
  0.5120758717350127    0.4671313568723959    0.5009865779552463    0.6160626623365929    0.687078419179267    
  0.6254408933897518    0.4983245957477712    0.3830036120736954    0.299643560897572    0.24469945878227148    
  0.2124534095171182    0.19953327983007924    0.20549359353533075    0.2334927282487288    0.28807457422206145    
  0.37130485590701584    0.2744226104852131    0.34855792210473846    0.42127676331861064    0.46732432338348645    
  0.5120757837953351    0.61606287312633    0.7683706388481688    0.835481718985114    0.7447758337502005    
  0.5941839027405672    0.4699776177146068    0.3780917304249146    0.3036602868919516    0.24469942526337335    
  0.20549363393180442    0.18734717640966195    0.19178943466418782    0.22073237554321193    0.2744226104852131    
  0.21385183531559365    0.26545360790846345    0.33554477731998267    0.4212767381346152    0.5337492968393581    
  0.6870786030380688    0.8354816753864259    0.8486041337589123    0.7003427165661942    0.5473258417316078    
  0.47503053145719293    0.4381346991829683    0.378091757307179    0.29964358668575375    0.23349274192668243    
  0.1917893126540377    0.1755481423019541    0.1836055860512671    0.21385183531559365    0.18222616392574395    
  0.2122313781052444    0.26545365143890515    0.3485578378010257    0.47063544218986314    0.6254409929899377    
  0.7447757722893659    0.7003427007393679    0.5182326077705233    0.397609273345342    0.40875072009578267    
  0.4750305044100746    0.469977404589786    0.3830034081426511    0.2880746018811356    0.22073233517672317    
  0.18360564407648278    0.17229882787128115    0.18222616392574395    0.1726358393201393    0.18222618748194183    
  0.21385186620223554    0.274422510193573    0.37130484740551895    0.4983247409502218    0.5941839817240812    
  0.5473258316205128    0.39760933004241233    0.325576407764464    0.3976093589338227    0.5473258785085036    
  0.5941839541357363    0.49832459274542723    0.37130486404650515    0.2744225950448424    0.21385184889320058    
  0.1822261397467558    0.1726358393201393    0.18222614852415056    0.17229881756219795    0.1836056423117855    
  0.22073230673689503    0.28807454166239177    0.3830035178363396    0.46997753908828127    0.4750305741599721    
  0.40875059732625046    0.3976092972999211    0.5182326939311976    0.7003426688344785    0.744775736132967    
  0.6254409019474144    0.4706354701570506    0.34855778776302676    0.2654536651644506    0.2122313351405818    
  0.18222614852415056    0.21385187327183489    0.18360564860425496    0.17554804878798058    0.19178930310016243    
  0.2334926713348609    0.2996436074744943    0.3780917149765769    0.43813476688817793    0.47503048298778483    
  0.5473258210554353    0.7003427467968405    0.8486043325263097    0.8354815540614853    0.6870785437592523    
  0.5337492952377809    0.4212767840016106    0.3355448192762774    0.2654536367544706    0.21385187327183489    
  0.2744225781363257    0.22073237516507305    0.1917893630893751    0.18734723801615916    0.20549360837669514    
  0.2446995116142677    0.30366032384091074    0.3780918131624721    0.46997752259402187    0.5941840164921787    
  0.7447758048384047    0.8354817164277047    0.7683706740541361    0.6160627686907798    0.5120759453807647    
  0.46732426127027615    0.421276804271228    0.34855789209863275    0.2744225781363257    0.37130478944777934    
  0.28807456236385337    0.2334927311425027    0.20549359597181735    0.19953325277777026    0.21245338796966717    
  0.24469945191564876    0.29964353041817937    0.38300353567939244    0.4983245498650936    0.6254408871404947    
  0.6870785296268132    0.6160627564460334    0.5009863999206744    0.46713137537374405    0.5120758033729824    
  0.5337494545116436    0.4706355148975164    0.37130478944777934    0.4983246532278704    0.3830034686181722    
  0.2996435740129888    0.244699396787659    0.21245335605754564    0.19953329309697    0.20549353809073012    
  0.23349265114897286    0.2880745388729583    0.37130486674864205    0.47063552668067815    0.5337493717863387    
  0.5120759051614203    0.4671313543810697    0.5009864545351765    0.6160627638232304    0.6870785415219243    
  0.6254409155214304    0.4983246532278704    0.5941840002759288    0.4699775730203101    0.3780917779572199    
  0.3036603214464789    0.24469943192117063    0.20549363395262352    0.18734725697482876    0.19178941637835112    
  0.22073237968480702    0.2744225389384079    0.3485579075070861    0.4212768074666059    0.4673242418333707    
  0.5120759281732089    0.6160628796336014    0.7683706796380012    0.8354815691467842    0.7447757636504609    
  0.5941840002759288    0.5473258996684448    0.47503049444257034    0.438134778183365    0.37809178731574494    
  0.29964356486568444    0.23349276524210935    0.19178936367789498    0.1755480535908473    0.18360567114780954    
  0.21385184815308117    0.26545366320076924    0.3355447646601247    0.42127680723886574    0.533749402442246    
  0.6870784663765799    0.8354815085727424    0.8486044643161681    0.7003427552047263    0.5473258996684448    
  0.3976092944420573    0.4087505903006587    0.47503055952203965    0.4699774830959189    0.38300344449792384    
  0.28807458501209554    0.22073228165934788    0.1836056443756608    0.17229879811982574    0.18222610916007634    
  0.21223139858357626    0.26545361829114755    0.34855784221239083    0.4706355041409494    0.6254409422933329    
  0.7447756795113519    0.7003428171480046    0.5182327022294435    0.3976092944420573    0.3255764398629796    
  0.39760935078436566    0.5473258413599931    0.5941839298095644    0.4983246271403379    0.37130481388119685    
  0.2744225011536608    0.21385180565286574    0.1822261427717113    0.17263586003369918    0.18222616964428912    
  0.213851882344635    0.274422537398738    0.3713047848846398    0.4983246571633547    0.5941839754166195    
  0.5473259414752749    0.3976093236993704    0.3255764398629796    0.5368565243918101    0.5624369207850372    
  0.594184037307311    0.5634483742635387    0.4780618101169755    0.38873148079704656    0.3201982773719126    
  0.2744225715248869    0.24873215449038474    0.24045782535384322    0.24873217722678204    0.27442261552074065    
  0.3201982690637427    0.3887314726062705    0.47806178250266196    0.5634483040780175    0.5941841359994183    
  0.5624368822798914    0.5368565243918101    0.562436858956411    0.6612875618510701    0.744775766921112    
  0.7237407950321747    0.6174529907568118    0.5053061364408181    0.41811716290958945    0.34855783947009616    
  0.291010537946541    0.24873210108202035    0.2249273383749024    0.22073231379776137    0.23819716066633045    
  0.2781852751998347    0.33961984810346346    0.41191043329350086    0.4699775782609875    0.5074902558927413    
  0.562436858956411    0.5941840487264646    0.7447758680845633    0.8354815631743205    0.7683706805041896    
  0.6160626963048836    0.5120759545327022    0.46732423696839603    0.4212767268833731    0.34855781835360033    
  0.2744225194031413    0.2207324308600572    0.19178934368645253    0.18734716815058677    0.20549364699133713    
  0.244699468575131    0.30366024433177347    0.3780918824271532    0.46997746802596346    0.5941840487264646    
  0.5634483925257889    0.7237409182206715    0.7683707597655818    0.6076126264242546    0.41509470521992764    
  0.3576662166355983    0.41604220889427856    0.4673243308338136    0.41811720346607956    0.3201983027751434    
  0.23819713576444507    0.18734722491781114    0.16520321349308884    0.16672320040133579    0.1886960029787869    
  0.23254048135826952    0.30366031804037696    0.4119105302009857    0.5634483925257889    0.4780617872837286    
  0.6174531315426788    0.6160628011428027    0.41509469988485326    0.24287320126872725    0.22815758239760706    
  0.3576661706711658    0.5120759358177093    0.5053060164244579    0.38873140916396454    0.27818533232446463    
  0.20549361121034798    0.16672316614655025    0.15354111653364688    0.160614987684217    0.18869590054541097    
  0.24469952936104747    0.33961992659581397    0.4780617872837286    0.3887315079340773    0.5053059620113339    
  0.5120759220871242    0.35766608679012757    0.2281575367722118    0.24287328289324578    0.4150946715917856    
  0.6160627466982275    0.6174530605429134    0.4780618724012106    0.3396199630904537    0.2446994488405613    
  0.18869598164845508    0.16061499750952402    0.1535411132318058    0.16672319999406893    0.20549361965626664    
  0.27818525699202296    0.3887315079340773    0.3201984067858768    0.4181172088262831    0.467324296816122    
  0.41604208793783515    0.35766611983573465    0.4150947816400174    0.6076127069843315    0.7683708741374599    
  0.7237409428364814    0.563448334895349    0.4119106458928768    0.30366028718788113    0.2325404736411693    
  0.18869595627861124    0.16672324406490877    0.16520326194107343    0.18734720558672108    0.23819718704639353    
  0.3201984067858768    0.2744225101053289    0.34855791957863946    0.4212768471187563    0.46732427568712476    
  0.5120758467379904    0.6160628381474963    0.7683707939780625    0.8354815839624571    0.7447758756487859    
  0.5941840189788614    0.46997755049474504    0.37809179873171    0.30366023624996374    0.24469946570600237    
  0.20549361282570663    0.18734722082621705    0.1917894192682672    0.22073235811705577    0.2744225101053289    
  0.24873211116369248    0.2910105186863146    0.348557926137973    0.41811707857706654    0.5053059418633108    
  0.6174532245919064    0.7237407623073128    0.7447758434918049    0.661287533173928    0.5624368912284645    
  0.5074902958853814    0.4699775433674794    0.41191045293005774    0.33961983572183313    0.2781852916133795    
  0.238197149236641    0.22073238527409497    0.22492734362761752    0.24873211116369248    0.24045783594379957    
  0.24873222341315585    0.2744226016358496    0.32019829593836135    0.38873151573889453    0.47806190224613515    
  0.5634484401285709    0.5941839469224787    0.5624368658438915    0.5368565275896787    0.5624368422109983    
  0.5941840806506437    0.5634483459680967    0.47806180825903455    0.3887315676381599    0.3201983207094811    
  0.27442257983312185    0.24873210776484186    0.24045783594379957    0.2487321127248987    0.2249273570565374    