#     DFTpy    
  CRYSTAL 
    
  PRIMVEC    
  3.9424137931034475    0.0    0.0    
  0.0    3.9424137931034475    0.0    
  0.0    0.0    3.9424137931034475    
  PRIMCOORD    
  2    1    
  Si    0.0    0.0    0.0    
  Si    1.9712068965517238    1.9712068965517238    1.9712068965517238    
  BEGIN_BLOCK_DATAGRID_3D    
  3d_datagrid_density    
  BEGIN_DATAGRID_3D#0    
  17    17    17    
  0.0    0.0    0.0    
  3.9424137931034475    0.0    0.0    
  0.0    3.9424137931034475    0.0    
  0.0    0.0    3.9424137931034475    
  0.07791902080734571    0.14170677880624274    0.3375267496656791    0.4237990847778455    0.29341954998674685    
  0.15791954712803785    0.08482896599498572    0.053730551437342504    0.04536089201132361    0.05373055124916073    
  0.08482895656977532    0.15791954238172135    0.29341953287857103    0.42379904171861477    0.33752677352718286    
  0.141706812919993    0.07791902080734571    0.14170677118601313    0.2121691550058881    0.38076785201503416    
  0.412032720533248    0.27418252629372664    0.14841776976749796    0.08120408931724812    0.05235913482682137    
  0.04453403244700575    0.052359169612606    0.08120410576013193    0.14841774585370268    0.27418258671122303    
  0.41203270469044295    0.3807676827656708    0.21216912617898506    0.14170677118601313    0.33752675142142097    
  0.38076770370956464    0.4282599341376009    0.3561902809322233    0.2230024882793204    0.1243889559506115    
  0.07208016817394934    0.04899765031048018    0.042617059871288    0.04899765063342934    0.07208016375342186    
  0.12438897420949871    0.2230025025342051    0.35619028012187637    0.4282599197547404    0.3807678044998775    
  0.33752675142142097    0.4237989647032404    0.41203266536787353    0.35619013086860085    0.2566563468516837    
  0.16043108342391382    0.09618481301142164    0.06135031786634614    0.04528795770625969    0.04073442750355777    
  0.04528794041663249    0.061350297971099865    0.09618482215499811    0.16043110312516423    0.2566562704573245    
  0.35619026232250306    0.41203265695556673    0.4237989647032404    0.293419523847895    0.2741825017115937    
  0.22300246874500762    0.16043111187158354    0.10764632306338012    0.07245390468848152    0.052453196275733104    
  0.042771471282369564    0.039945616827409484    0.042771473930642005    0.05245317386795578    0.07245389352580975    
  0.10764635900145686    0.16043108465285139    0.22300249441412318    0.2741825931439892    0.293419523847895    
  0.15791953688323873    0.14841777895412436    0.1243889716479366    0.09618484692120874    0.07245388284039438    
  0.05621083989696697    0.0467341986173223    0.04209728186027598    0.040734421406021966    0.04209726588227638    
  0.046734193200670564    0.05621085147965982    0.07245390762632313    0.09618480848398084    0.12438895706267578    
  0.14841774303779603    0.15791953688323873    0.08482896563429479    0.0812040998888933    0.0720801660908031    
  0.06135029462088112    0.052453181418123815    0.04673419931153404    0.043869909753221435    0.04283262381856196    
  0.04261706655545424    0.042832607304712625    0.043869912752455845    0.046734193499906526    0.052453180764547    
  0.06135029136575681    0.07208016667380875    0.08120414381408568    0.08482896563429479    0.05373054504359321    
  0.052359152682339406    0.04899765001682906    0.04528794959338579    0.042771477334373795    0.0420973062879843    
  0.04283263293626521    0.043986713089216006    0.044534026586286246    0.04398669986164549    0.04283261282333648    
  0.04209728118936356    0.04277148161520427    0.04528793677248253    0.04899762619980893    0.05235915373506117    
  0.05373054504359321    0.04536087350736701    0.044534016317231605    0.042617040071197196    0.040734426183875606    
  0.03994561380376028    0.040734423341266146    0.042617036620777676    0.0445340172937329    0.04536088164887938    
  0.04453401466793476    0.04261704753504089    0.040734422650227246    0.03994561765094886    0.04073442653605627    
  0.042617053343675236    0.044534041736266405    0.04536087350736701    0.053730540302977435    0.052359162395578356    
  0.04899764651555992    0.04528796266689828    0.042771470618111485    0.04209730337359183    0.04283261053790733    
  0.043986685523998655    0.04453401575448982    0.04398671226872093    0.04283260315328109    0.04209728724278978    
  0.04277149065676642    0.04528793989910753    0.048997629086681246    0.05235915518975811    0.053730540302977435    
  0.08482896548224099    0.08120410276154215    0.07208018412878484    0.06135029934573395    0.052453173626389064    
  0.04673420644892536    0.043869927009411065    0.042832626872890966    0.042617051500523515    0.04283262307964345    
  0.04386991305773496    0.0467341959079878    0.05245318612883078    0.06135028325743786    0.07208017987524046    
  0.08120413600841013    0.08482896548224099    0.1579195110982673    0.14841775475813507    0.12438895741292018    
  0.096184818071037    0.0724538929302798    0.05621081979218874    0.04673423318750046    0.042097290069419514    
  0.04073443699554773    0.04209728565848249    0.04673420555574033    0.05621083959854809    0.07245390612288592    
  0.09618481880773445    0.12438893669401922    0.1484177163378101    0.1579195110982673    0.29341947155039155    
  0.27418253105954393    0.22300250944079994    0.16043109214087656    0.10764632890309997    0.07245389047702476    
  0.05245317904491427    0.04277148427560472    0.039945618628594616    0.04277147403462059    0.05245316356575511    
  0.07245390561562556    0.10764637188122127    0.16043107939216567    0.22300248118508648    0.2741825854713093    
  0.29341947155039155    0.42379904549591996    0.4120326740445527    0.35619029624267157    0.25665632700481456    
  0.16043107730390088    0.0961848352036346    0.06135028587814476    0.04528795087417516    0.04073441561635505    
  0.04528794591179523    0.06135029941635294    0.09618482838112644    0.1604311012920011    0.25665627339456376    
  0.3561902067325405    0.41203271788761886    0.42379904549591996    0.33752671847237814    0.38076767115281346    
  0.42825987513744296    0.35619029115831813    0.22300248624482433    0.12438895538662197    0.07208016748047387    
  0.048997656177528305    0.0426170660581872    0.04899763799334549    0.07208015082710409    0.12438897711346703    
  0.22300250716322534    0.35619024768850255    0.4282598692615413    0.38076785883166653    0.33752671847237814    
  0.14170677019495106    0.21216913099626125    0.3807678225776066    0.4120327124445416    0.27418257833915666    
  0.14841775257182402    0.08120411814972679    0.05235916458120757    0.04453402971383004    0.05235913680308798    
  0.08120411028307492    0.14841774032041663    0.27418257259882706    0.4120326794688261    0.3807677059733608    
  0.21216914903283546    0.14170677019495106    0.07791902080734571    0.14170677880624274    0.3375267496656791    
  0.4237990847778455    0.29341954998674685    0.15791954712803785    0.08482896599498572    0.053730551437342504    
  0.04536089201132361    0.05373055124916073    0.08482895656977532    0.15791954238172135    0.29341953287857103    
  0.42379904171861477    0.33752677352718286    0.141706812919993    0.07791902080734571    0.14170678643282347    
  0.21216916401004404    0.3807677417470883    0.4120327335138115    0.2741825116517625    0.14841775785816935    
  0.08120410182697542    0.05235914871234187    0.044534038585663675    0.052359149423914036    0.08120409052670574    
  0.14841774962955248    0.2741825624294524    0.4120327204088963    0.3807677599878896    0.21216919106878088    
  0.14170678643282347    0.21216915032353714    0.27965676994076294    0.40964570503934106    0.39603023950389926    
  0.2561408469722929    0.1398994471543055    0.0780914313837375    0.05130231283552481    0.04398671392455378    
  0.051302344048463955    0.07809143742568814    0.1398994305709633    0.2561409278730885    0.39603018227177506    
  0.4096455780964318    0.27965679959530954    0.21216915032353714    0.3807676501841185    0.40964559983307425    
  0.4238121359762914    0.3360097519673792    0.20909276340385854    0.11853053225711699    0.07031642156611377    
  0.048806798669264975    0.04283261883220648    0.04880678807781562    0.07031642021955158    0.11853051175069117    
  0.2090928263543494    0.3360096770442839    0.4238122043089595    0.4096457072745682    0.3807676501841185    
  0.4120327328831392    0.3960302076530596    0.3360096616588074    0.2408820634535053    0.1523750468396049    
  0.09353440656522113    0.06134490616153061    0.04635810617826199    0.04209729051606367    0.04635810807013365    
  0.06134489305879048    0.09353441181657268    0.15237508183329504    0.2408820452181465    0.3360096572660875    
  0.39603015524604396    0.4120327328831392    0.27418252225774614    0.2561408587130926    0.20909277665983028    
  0.15237509830088594    0.10451734524088871    0.07247101076992887    0.05420027275898016    0.04534891257573967    
  0.04277145941540162    0.04534889764448543    0.054200264819700535    0.07247101312459525    0.10451738777930149    
  0.15237506856358618    0.20909281464133042    0.25614090314325205    0.27418252225774614    0.14841777764776168    
  0.13989942886825382    0.11853052598244153    0.09353443668818084    0.07247100183779456    0.05820271583927588    
  0.050131466423129545    0.04635810147741945    0.04528794004250845    0.04635810098255618    0.05013144819103424    
  0.058202730211381955    0.07247101954227987    0.093534408178349    0.11853048440828913    0.13989943384647283    
  0.14841777764776168    0.08120409147688133    0.07809143537860119    0.07031641314764465    0.06134490125358995    
  0.054200249910777314    0.05013146564484156    0.04875674750724622    0.04880678718420066    0.04899765666985447    
  0.048806794564141186    0.048756774185718985    0.05013145792108398    0.054200277449166084    0.06134488193817014    
  0.07031641565415633    0.07809146565259084    0.08120409147688133    0.052359153761824186    0.051302316226491826    
  0.04880679920066254    0.046358101933671375    0.04534891305844898    0.046358103410435725    0.04880682388087694    
  0.051302330873293944    0.052359144184406285    0.051302331868199484    0.04880679138960345    0.04635810529901317    
  0.04534890996415748    0.046358094334647146    0.04880677824307652    0.051302333619916075    0.052359153761824186    
  0.044534009401911386    0.04398671905306678    0.04283259745570972    0.04209730394853251    0.0427714851759223    
  0.04528794341988864    0.048997634403118814    0.052359145855360556    0.05373056927805948    0.05235913121572792    
  0.04899762949058619    0.04528794394729622    0.04277148816182284    0.04209729819253361    0.04283261397589368    
  0.043986738875191105    0.044534009401911386    0.052359164219366976    0.05130232406802222    0.048806804738467796    
  0.04635811516380208    0.04534889850976288    0.0463581160469348    0.048806795643749706    0.05130232420205681    
  0.05235915454219258    0.051302329975428475    0.0488068109550027    0.04635809217772906    0.045348923938330295    
  0.046358093790483036    0.04880677807854248    0.051302328576961403    0.052359164219366976    0.08120408204910057    
  0.07809143915985668    0.07031642124498184    0.06134490408466969    0.05420025958553394    0.05013144826348248    
  0.048756759109404156    0.048806803700307516    0.04899765536823258    0.048806785664559094    0.048756775519798415    
  0.05013145390696728    0.05420027709321066    0.06134488535701217    0.07031643165352475    0.07809146589804354    
  0.08120408204910057    0.14841774009446954    0.1398994212822537    0.11853052050844394    0.09353441319089986    
  0.07247101981452997    0.05820271101171716    0.05013148279088579    0.04635812310680003    0.04528793920866643    
  0.04635809636940866    0.05013144598638879    0.05820272285281088    0.07247101776888826    0.09353440639164227    
  0.11853049348419721    0.13989941115190255    0.14841774009446954    0.2741824905111366    0.2561408637239141    
  0.2090928002330658    0.15237508952552684    0.10451734515612174    0.07247100919958908    0.05420026162732267    
  0.045348907404936696    0.04277148662585811    0.04534889649166626    0.054200239013423954    0.07247100974829963    
  0.10451738457234028    0.1523750607950727    0.20909279217003857    0.2561408937114459    0.2741824905111366    
  0.41203272475194075    0.3960301606410181    0.3360097289004637    0.2408820661695081    0.1523750680100769    
  0.09353440272214579    0.06134488758120322    0.04635809769111566    0.0420972893307099    0.046358104770908425    
  0.06134488520010099    0.0935344176609617    0.15237505735720952    0.240882004136372    0.3360096163665885    
  0.3960302025819102    0.41203272475194075    0.3807677176827513    0.4096455988613726    0.4238120871508672    
  0.3360097084185342    0.20909279215157775    0.11853051263109311    0.07031640780249342    0.04880679813220655    
  0.04283262542411566    0.04880678527133876    0.0703164084808673    0.11853053214270214    0.20909282816973182    
  0.33600962246678817    0.42381215130473676    0.40964568884934227    0.3807677176827513    0.21216914703225676    
  0.27965678444250297    0.4096456736039209    0.3960302298379184    0.2561409049632982    0.13989942069670439    
  0.07809145494840658    0.05130234483434092    0.043986713081040026    0.05130232197593603    0.07809143390216111    
  0.13989943006308075    0.25614087903552146    0.3960301783258632    0.4096455962360066    0.27965676997296046    
  0.21216914703225676    0.14170678643282347    0.21216916401004404    0.3807677417470883    0.4120327335138115    
  0.2741825116517625    0.14841775785816935    0.08120410182697542    0.05235914871234187    0.044534038585663675    
  0.052359149423914036    0.08120409052670574    0.14841774962955248    0.2741825624294524    0.4120327204088963    
  0.3807677599878896    0.21216919106878088    0.14170678643282347    0.33752677808930076    0.3807676948647694    
  0.4282598479155054    0.35619024332138904    0.2230024820005252    0.12438896727544325    0.07208017413598153    
  0.04899763589322933    0.04261706005271738    0.04899763313560122    0.07208016662068907    0.12438897203812668    
  0.22300248027770422    0.3561902084666917    0.4282599196794846    0.3807677835809373    0.33752677808930076    
  0.38076771552830446    0.409645619358834    0.4238122227512543    0.33600970145412806    0.20909276508618968    
  0.11853052727207744    0.07031641858646136    0.04880677191368485    0.04283261297110969    0.04880679690437055    
  0.07031642553277224    0.11853050386634899    0.2090928518157542    0.33600966189282416    0.4238120705966717    
  0.40964565310624557    0.38076771552830446    0.42825985850431325    0.42381208844304513    0.3782847075701382    
  0.2774023469486102    0.17377619977645148    0.10396369012534999    0.06613328677398372    0.04875677475826206    
  0.04386992481794239    0.04875676934654432    0.06613327951972992    0.10396369852448356    0.17377622067246137    
  0.2774022959642259    0.37828469766751865    0.42381214965090946    0.42825985850431325    0.3561901822121155    
  0.3360096409118767    0.27740228231100644    0.19976577159727302    0.13207821048578702    0.08716909024391507    
  0.0620548941835232    0.050131468003367805    0.04673420006469416    0.05013144855037143    0.06205488747179352    
  0.0871690949296641    0.13207824167377386    0.19976568256212168    0.27740232367007855    0.3360096270541122    
  0.3561901822121155    0.22300249338182718    0.20909280156137436    0.17377619103955572    0.13207823091299425    
  0.09701794123458181    0.07357490536069516    0.060396760181344926    0.05420026716139758    0.05245318572492209    
  0.05420027305855391    0.0603967206282878    0.07357490063788524    0.09701796098893048    0.1320782320445231    
  0.17377617256121955    0.2090928587536676    0.22300249338182718    0.12438896988750042    0.11853052435235008    
  0.10396370104585519    0.08716911699903453    0.07357488592514026    0.0654189490880067    0.06205488960408542    
  0.06134486711318207    0.06135029950882421    0.06134487689831767    0.062054883045765265    0.06541895748643518    
  0.07357491490614633    0.08716908159966735    0.10396368256181499    0.11853050055528967    0.12438896988750042    
  0.07208017186232875    0.07031641472904022    0.06613329093865453    0.06205487584743724    0.06039675126556815    
  0.062054876173660234    0.06613329284549019    0.07031643526412397    0.07208018119367109    0.07031641196277807    
  0.06613330556433972    0.062054883651385284    0.06039674922693809    0.06205487300314177    0.06613328822251473    
  0.07031645136692784    0.07208017186232875    0.048997634548125855    0.04880677764140046    0.04875677316692375    
  0.05013146186531014    0.054200283628908434    0.061344906074745    0.0703164569589122    0.07809142886620064    
  0.08120409764610902    0.07809142998295898    0.07031642887389226    0.06134488269160553    0.05420027314884716    
  0.05013144901564632    0.04875674638253659    0.04880678516527689    0.048997634548125855    0.042617044013331565    
  0.04283260243516148    0.04386990378115411    0.0467342123569235    0.05245318005472553    0.061350287656764264    
  0.07208017409083786    0.08120411115983948    0.08482897097916113    0.0812040786628152    0.07208015731184833    
  0.061350286983725404    0.05245319834359638    0.04673420884612054    0.04386992179569786    0.042832618610867526    
  0.042617044013331565    0.048997628281789864    0.04880679150369213    0.048756776990364015    0.05013147357243927    
  0.054200261208657445    0.061344897851385576    0.07031644596315427    0.07809139003047913    0.08120408337023209    
  0.0780914355450828    0.07031641721433377    0.061344878832752955    0.054200281923435734    0.05013145075663156    
  0.048756750985345106    0.04880678514649455    0.048997628281789864    0.07208016658527822    0.07031642052076478    
  0.0661333078517513    0.0620548847782054    0.06039673254640547    0.062054890050100175    0.0661333100848294    
  0.07031644344744299    0.07208016853412148    0.07031643135297687    0.06613331105779563    0.062054882606303964    
  0.06039676076726893    0.06205487784292269    0.0661332979133077    0.07031644645068254    0.07208016658527822    
  0.12438893983954206    0.11853050030507219    0.1039636964027676    0.08716910178215267    0.07357490010057878    
  0.06541894288944373    0.06205491493777652    0.06134489837785014    0.06135031088977666    0.06134488998190221    
  0.06205488689948175    0.06541896164086332    0.07357491575932443    0.08716908225636617    0.10396368224575815    
  0.11853047865894077    0.12438893983954206    0.22300246706850138    0.20909281197079416    0.1737762051641278    
  0.13207825290036287    0.09701794652275422    0.07357490271387965    0.06039673581845975    0.05420028142812821    
  0.05245317350104479    0.05420026614017063    0.06039672560609018    0.07357490496948013    0.09701797662383516    
  0.13207822085859452    0.17377618350171398    0.2090928594498771    0.22300246706850138    0.3561902273175304    
  0.3360096320721104    0.27740233364192785    0.19976575479824038    0.13207821853694754    0.08716911254196924    
  0.06205486856291477    0.050131461684552056    0.04673419139937903    0.05013145993466524    0.06205488060633615    
  0.08716909042938896    0.1320782388822576    0.1997656898213612    0.27740230894758894    0.3360096823976102    
  0.3561902273175304    0.4282598717145591    0.4238120237264052    0.37828468854142017    0.27740232099584466    
  0.17377618698154376    0.10396368253169304    0.06613328940215768    0.04875677953515114    0.04386993030275012    
  0.04875676306639502    0.06613327789487983    0.10396369558534474    0.17377619674913158    0.27740230007557054    
  0.37828466675118166    0.42381222545797503    0.4282598717145591    0.3807677348235819    0.40964557628358395    
  0.4238121076162055    0.3360096554166701    0.2090928369746547    0.11853050545928513    0.07031642933322697    
  0.048806797504699066    0.042832608999211104    0.04880677744950304    0.07031642289259263    0.11853049468663196    
  0.20909281491797185    0.3360096275401437    0.42381207194995507    0.40964560311696446    0.3807677348235819    
  0.33752677808930076    0.3807676948647694    0.4282598479155054    0.35619024332138904    0.2230024820005252    
  0.12438896727544325    0.07208017413598153    0.04899763589322933    0.04261706005271738    0.04899763313560122    
  0.07208016662068907    0.12438897203812668    0.22300248027770422    0.3561902084666917    0.4282599196794846    
  0.3807677835809373    0.33752677808930076    0.423799020790554    0.4120327072014615    0.356190174850528    
  0.25665632204520694    0.16043104370057842    0.0961848246465319    0.06135029436385429    0.045287940855495604    
  0.04073442987086481    0.0452879360949147    0.061350283514854075    0.09618481536671862    0.160431071200922    
  0.25665629496280956    0.35619025232529367    0.41203270904977846    0.423799020790554    0.4120327282493104    
  0.39603017740940005    0.33600974078626616    0.24088204448486775    0.15237501566784212    0.09353443273990399    
  0.06134488939324464    0.046358095564506485    0.042097286152380654    0.04635810913762002    0.06134488740014536    
  0.09353441904141997    0.15237506692676003    0.24088202092684832    0.3360097045563491    0.3960301956465978    
  0.4120327282493104    0.35619016370954065    0.33600963759363406    0.27740231494170203    0.1997657862631191    
  0.1320781734721927    0.08716910553560625    0.062054880912704745    0.050131468307984754    0.04673421424540272    
  0.050131453034601155    0.06205488026054114    0.08716909590332378    0.13207820223374622    0.1997657093586789    
  0.27740236102346155    0.33600972567220705    0.35619016370954065    0.2566563011615248    0.24088203296624072    
  0.199765693500452    0.15028551722252975    0.108635255398971    0.0809338432318551    0.06541896383943231    
  0.05820272893312663    0.05621083105988878    0.058202713017260814    0.06541895420380982    0.0809338510959624    
  0.1086352778178736    0.15028546699487458    0.19976570655171796    0.24088198279479686    0.2566563011615248    
  0.1604310549901032    0.15237504318429249    0.13207817418485937    0.1086352805955651    0.08977804542786882    
  0.07840649442250108    0.07357490753129106    0.0724710115252625    0.07245389109000558    0.07247098779128988    
  0.07357489153882715    0.07840649885027651    0.08977808017496325    0.10863526939337605    0.13207821187346255    
  0.15237507633482986    0.1604310549901032    0.09618483224075386    0.09353441700235027    0.08716910318883962    
  0.08093385275296495    0.07840649724456221    0.08093383742135858    0.08716909930601623    0.09353441021128961    
  0.09618480636259026    0.09353440868524517    0.08716909031016759    0.08093385869551264    0.07840652100648951    
  0.08093383765169743    0.08716907683354794    0.09353441459785483    0.09618483224075386    0.061350287753732566    
  0.06134489136570246    0.0620548767734431    0.06541895847006567    0.07357488826010322    0.08716912450075329    
  0.10396367184827945    0.11853049742919047    0.12438899034284814    0.1185305141676848    0.10396369413147875    
  0.08716908654288696    0.07357490276464469    0.06541895115087336    0.06205488109581944    0.06134491858076259    
  0.061350287753732566    0.045287947536132196    0.04635808784810577    0.050131468016480774    0.058202719987272875    
  0.07247102095171722    0.09353442328928191    0.11853054617820094    0.13989944477219382    0.14841773966692862    
  0.1398994009365243    0.11853053844204461    0.09353442667140728    0.07247102085227301    0.05820270969936243    
  0.050131457008354315    0.04635810666691551    0.045287947536132196    0.04073441103701807    0.042097289823010385    
  0.046734183952334946    0.056210854178675405    0.07245390293629106    0.09618483155006739    0.12438894971664904    
  0.14841772553034882    0.15791954620392304    0.14841770312887226    0.12438896767772538    0.0961848138317772    
  0.07245392282635757    0.05621084899310652    0.04673420780964983    0.04209731001551581    0.04073441103701807    
  0.04528794930976    0.04635810416040766    0.050131471520261    0.058202737275795086    0.07247101072410707    
  0.0935344272623678    0.11853051789018036    0.13989940564392817    0.14841772040351936    0.1398994433470217    
  0.11853051796449314    0.09353442263240874    0.07247103103711781    0.05820271293181289    0.05013145300554434    
  0.046358091334589124    0.04528794930976    0.06135028343562217    0.06134489390652449    0.062054882867473966    
  0.06541895639353196    0.07357489326014656    0.08716909871732477    0.10396367584184317    0.11853052202735918    
  0.12438897580173505    0.11853050154521434    0.10396371205734116    0.08716909710381873    0.07357492498423145    
  0.06541894820188823    0.06205488877618284    0.06134491322060162    0.06135028343562217    0.09618481843743107    
  0.09353440418718606    0.08716910305365229    0.08093384404558729    0.07840650438704372    0.08093383329734105    
  0.08716911112130232    0.09353444534202629    0.09618482648605427    0.09353442383216634    0.08716908357596413    
  0.08093383743039623    0.07840650798921016    0.08093382775631713    0.08716909241754407    0.09353439092452089    
  0.09618481843743107    0.16043104778596817    0.1523750334687113    0.13207821563389696    0.10863529377871099    
  0.08977803889685193    0.07840649910920083    0.07357489855114994    0.07247100149494785    0.07245390523886303    
  0.07247099895896943    0.07357486703389383    0.07840649725831257    0.08977808124313906    0.10863527129787322    
  0.13207820393509273    0.15237504977933602    0.16043104778596817    0.25665632014100026    0.24088200264559503    
  0.1997657677691237    0.15028548871259415    0.10863527711992045    0.08093382767451962    0.06541894439531068    
  0.058202719694385285    0.05621083734365423    0.05820272511545746    0.06541893890387505    0.08093384434520685    
  0.10863526103219319    0.15028544479341954    0.19976569103601477    0.24088201994410186    0.25665632014100026    
  0.35619019720511785    0.33600962721802846    0.27740230856726555    0.199765745812626    0.1320781971732992    
  0.08716909780797531    0.06205487080790613    0.05013146919261186    0.04673422117228733    0.05013145935694992    
  0.0620548655764629    0.08716910604420658    0.13207821544919635    0.19976569912012243    0.2774023285254586    
  0.3360097427219125    0.35619019720511785    0.4120326537086302    0.3960301786006238    0.33600968949855775    
  0.240882047590286    0.15237505571025037    0.09353442474948367    0.06134489715055756    0.04635811032355404    
  0.042097281702704166    0.04635809345142533    0.061344891213266674    0.09353441675655967    0.1523750565296599    
  0.24088202673601072    0.3360096854162648    0.3960301750127705    0.4120326537086302    0.423799020790554    
  0.4120327072014615    0.356190174850528    0.25665632204520694    0.16043104370057842    0.0961848246465319    
  0.06135029436385429    0.045287940855495604    0.04073442987086481    0.0452879360949147    0.061350283514854075    
  0.09618481536671862    0.160431071200922    0.25665629496280956    0.35619025232529367    0.41203270904977846    
  0.423799020790554    0.2934195511357439    0.2741824997333419    0.22300249738720976    0.16043109082795307    
  0.10764636596674002    0.07245390923992985    0.05245318248780934    0.04277147872118672    0.03994562078113843    
  0.04277146352041808    0.052453173330470636    0.07245389996587621    0.10764635033422044    0.16043106324273518    
  0.22300252205676493    0.274182552206998    0.2934195511357439    0.27418251925953524    0.25614090037979226    
  0.20909285138875036    0.15237506539660411    0.10451735018691302    0.07247102403311431    0.05420026179993605    
  0.04534888916186453    0.04277148483270909    0.045348906977323834    0.05420026712382301    0.07247101148888122    
  0.10451738696131226    0.15237505900549053    0.20909278193390687    0.2561408588966889    0.27418251925953524    
  0.2230025038920061    0.2090927720274314    0.17377622372578236    0.1320782451378565    0.09701794486242449    
  0.07357490111225821    0.0603967451407912    0.05420028216463423    0.05245320168031246    0.05420028069237514    
  0.06039674014389064    0.07357489282118795    0.09701796412812078    0.1320782308053665    0.1737762356317771    
  0.2090928561102956    0.2230025038920061    0.16043103438792605    0.152375049950801    0.1320781683168236    
  0.1086352867175648    0.08977805827756839    0.07840650665653634    0.07357492482094566    0.0724710156708648    
  0.0724539051910141    0.07247099710311306    0.07357491452693282    0.07840650884263173    0.08977807621306498    
  0.10863524220596071    0.13207822719931805    0.1523750050441145    0.16043103438792605    0.10764635864994487    
  0.10451734085075795    0.09701794586940445    0.08977808522077643    0.08690017175258745    0.08977805628418566    
  0.09701796021508298    0.10451736131079944    0.1076463439266538    0.10451736605055097    0.09701793710402248    
  0.08977805727075819    0.08690018896171277    0.08977806806771685    0.09701794100275589    0.1045173620129727    
  0.10764635864994487    0.0724538940734671    0.07247102332797449    0.07357490566570951    0.07840652750944513    
  0.08977804688072798    0.10863526237636588    0.1320782078086934    0.15237503226398705    0.16043105546941222    