#     DFTpy    
  CRYSTAL 
    
  PRIMVEC    
  1.397130280768878    -2.419900631084668    0.0    
  1.397130280768878    2.419900631084668    0.0    
  0.0    0.0    4.723813303724138    
  PRIMCOORD    
  2    1    
  Si    1.397130280768878    0.8066335436948892    1.1809533259310345    
  Si    1.3971302807688781    -0.8066335436948892    3.5428599777931025    
  BEGIN_BLOCK_DATAGRID_3D    
  3d_datagrid_density    
  BEGIN_DATAGRID_3D#0    
  13    13    21    
  0.0    0.0    0.0    
  1.397130280768878    -2.419900631084668    0.0    
  1.397130280768878    2.419900631084668    0.0    
  0.0    0.0    4.723813303724138    
  0.10619650459103966    0.11238153790603497    0.13061094303972476    0.1590068876480758    0.19184497614231294    
  0.21887959619023958    0.22942933761793508    0.2188796084951399    0.1918449548083299    0.15900688102664148    
  0.1306109456140691    0.1123815391146192    0.10619650459103966    0.11238154932000574    0.11238044990935196    
  0.12461492660238147    0.1481159728784651    0.17924818703493214    0.2100350027944504    0.22956759728906725    
  0.22956801505744895    0.2100347972481745    0.17924796601432927    0.14811626569567712    0.12461438353133675    
  0.11238154932000574    0.1306109663469781    0.12461494345892041    0.13061178450900304    0.14811552605439468    
  0.1747770243445336    0.2049804465571674    0.22968440505817492    0.2393339562642091    0.22968369804174135    
  0.20498148924023588    0.17477640060381458    0.14811623942828953    0.1306109663469781    0.1590068866248876    
  0.14811595635262323    0.14811551026389486    0.1590066943533664    0.17924804096352126    0.20498168975980396    
  0.22965946819886324    0.24497636398859934    0.24497738054753734    0.2296586020750685    0.20498146907896458    
  0.179247954349052    0.1590068866248876    0.19184500737137367    0.1792482203736358    0.17477701665369613    
  0.17924804167218006    0.1918453110930596    0.21003471059269518    0.22968300928142307    0.24497719994583533    
  0.25067380571177955    0.24497742361460706    0.22968373272889073    0.2100348282748507    0.19184500737137367    
  0.21887963768593202    0.21003497429930104    0.20498042228608024    0.20498164339749647    0.21003470602865393    
  0.21887945388817567    0.22956818445064456    0.23933437148344233    0.24497717188915333    0.24497634245265473    
  0.23933396723266034    0.2295679883263807    0.21887963768593202    0.22942936369113698    0.22956756215602564    
  0.22968439945629823    0.22965947632109568    0.2296830390051525    0.22956817072471417    0.22942872250284102    
  0.22956818058309808    0.2296830175112836    0.22965945657313588    0.2296844380460745    0.2295675520900227    
  0.22942936369113698    0.21887963341321584    0.2295680008917812    0.23933394893573573    0.2449763372832853    
  0.24497717189844725    0.2393343657312765    0.22956818187765218    0.21887946328510924    0.21003474361601163    
  0.20498166321942327    0.20498043809764857    0.21003499472655063    0.21887963341321584    0.19184500708333516    
  0.21003484674642403    0.22968372011624255    0.24497738038682185    0.250673781826925    0.24497720085436334    
  0.22968302080826414    0.21003475127250498    0.19184528639838    0.17924806460843173    0.1747770415589759    
  0.17924819059163222    0.19184500708333516    0.15900687718808504    0.1792479689471151    0.20498145680816535    
  0.22965860842279562    0.24497738917791548    0.24497636497554673    0.22965946109713856    0.2049816713768539    
  0.17924803892664382    0.15900668992144126    0.14811552553286214    0.14811594768969338    0.15900687718808504    
  0.13061097701566843    0.14811626763944935    0.17477638975023752    0.2049814746998378    0.22968373678049495    
  0.23933394276629813    0.2296844072926018    0.20498045637975193    0.17477701022210446    0.1481155144703798    
  0.13061179118008548    0.12461493834350235    0.13061097701566843    0.1123815541406087    0.12461436954062255    
  0.14811623445388902    0.17924797950759846    0.21003480768702348    0.22956799077572784    0.22956758667671132    
  0.21003502502719515    0.17924817994900064    0.14811595667151412    0.12461493790979183    0.11238043877709737    
  0.1123815541406087    0.10619650459103966    0.11238153790603497    0.13061094303972476    0.1590068876480758    
  0.19184497614231294    0.21887959619023958    0.22942933761793508    0.2188796084951399    0.1918449548083299    
  0.15900688102664148    0.1306109456140691    0.1123815391146192    0.10619650459103966    0.11349314931940271    
  0.12025759347359423    0.14008661170795852    0.17068731613709937    0.2059575816359995    0.23507106428660024    
  0.2464402595132608    0.23507163902184347    0.20595740758821315    0.17068704870450574    0.1400888844853528    
  0.1202572358115012    0.11349314931940271    0.12025724103020609    0.1202577236269386    0.1306916709533271    
  0.15062663816469418    0.1765121451040648    0.20176690506921452    0.21794402500994142    0.21794362151410565    
  0.2017671328850446    0.1765123799428075    0.15062478473429    0.1306914690557035    0.12025724103020609    
  0.14008890259361434    0.13654603606022564    0.1400874851714707    0.15062559066001296    0.16658301193667324    
  0.1840241756419263    0.1980780186572881    0.20367476884372218    0.19807825374079624    0.18402311324194462    
  0.16658569064853868    0.15062477375350425    0.14008890259361434    0.1706870306230549    0.16774593316166864    
  0.16774734175218156    0.1706872690702442    0.17651212318620885    0.18402560925984857    0.19110787520378372    
  0.19562949623756554    0.1956284640916523    0.19110937413332504    0.18402308837439768    0.17651237052549934    
  0.1706870306230549    0.20595744088087922    0.20926904321215736    0.21046242102884039    0.20926840015990794    
  0.2059573518907644    0.20176700878964626    0.19807660802190577    0.19562904217486474    0.19480014409121085    
  0.19562850638921558    0.1980782892871117    0.20176711605077588    0.20595744088087922    0.2350716505388646    
  0.2504479870483626    0.25917288441679814    0.2591715217853068    0.2504490968282869    0.23507105479735277    
  0.21794387161389214    0.20367625196155242    0.1956290216266279    0.19562948978853076    0.20367475593041365    
  0.21794361373831933    0.2350716505388646    0.2464402640074009    0.27612206662377065    0.29788692817807844    
  0.30553791920143125    0.29788735003305483    0.27612225052307027    0.24644026076970296    0.2179438914204356    
  0.19807662068778928    0.1911078537321169    0.19807799816948093    0.21794401281920928    0.2464402640074009    
  0.23507108542492455    0.27612195338707896    0.31227440886909635    0.3320817464731229    0.3320835782641733    
  0.312271791302139    0.27612223419358717    0.23507106367581176    0.20176701817675555    0.1840255792117018    
  0.18402420039018763    0.2017668930988262    0.23507108542492455    0.20595763308785695    0.2504495571083264    
  0.2978852902396576    0.3320835351395617    0.3437442411597552    0.33208357084936085    0.2978873480930136    
  0.25044913872705965    0.20595729133793636    0.17651213696217072    0.166583024062425    0.1765121503104905    
  0.20595763308785695    0.17068732306984968    0.20926765812305584    0.2591731631739986    0.30553758891410615    
  0.33208353918192046    0.3320817638968413    0.30553787659115433    0.2591715529592291    0.209268354413024    
  0.1706872741700295    0.1506255841895004    0.1506266154421508    0.17068732306984968    0.14008662813847833    
  0.16774739245406795    0.21046169309579155    0.2591731794345583    0.29788529416040815    0.3122744181844236    
  0.29788693107627884    0.25917292461423586    0.2104624250735976    0.16774733888254342    0.140087499722014    
  0.13069167002376217    0.14008662813847833    0.12025759338141193    0.13654682333795898    0.167747365772884    
  0.20926764864533412    0.2504495346398038    0.2761219557536018    0.2761220664582899    0.25044801991210275    
  0.20926898151392284    0.16774594676713706    0.13654603326948273    0.12025773537611072    0.12025759338141193    
  0.11349314931940271    0.12025759347359423    0.14008661170795852    0.17068731613709937    0.2059575816359995    
  0.23507106428660024    0.2464402595132608    0.23507163902184347    0.20595740758821315    0.17068704870450574    
  0.1400888844853528    0.1202572358115012    0.11349314931940271    0.13451899541144924    0.14283454262234305    
  0.16713936650773262    0.2041154648636924    0.24572859184592916    0.27892496935673544    0.29145552017524035    
  0.27892465315177956    0.2457317926597861    0.20411362197738353    0.1671405754634603    0.1428346985271695    
  0.13451899541144924    0.14283471245059198    0.14283649511503285    0.1532946123044166    0.1727156020779522    
  0.19724974786031366    0.22073264431301085    0.23550088786691242    0.2355029614048067    0.22073109814389744    
  0.19724888830554674    0.17271503003654423    0.1532951911222548    0.14283471245059198    0.16714061944476724    
  0.16525579884790176    0.16713952649555613    0.17271583025170553    0.1810991211461302    0.19010012606843588    
  0.19718713999128465    0.1999787812208791    0.19718744127900317    0.1900993353993105    0.1811015675421098    
  0.1727150108186636    0.16714061944476724    0.20411366560369867    0.2084362703623255    0.208435233685227    
  0.20411515762116214    0.19724975771255723    0.19009981314427474    0.18417742598354317    0.18090443088174138    
  0.18090261402621058    0.18417856933441865    0.1900993152603282    0.19724889459992626    0.20411366560369867    
  0.24573181915882078    0.2644739482851659    0.27114264324658244    0.2644742514749432    0.245728307077599    
  0.22073322226151101    0.19718679151145482    0.18090237673952925    0.1752082038019605    0.18090265450671128    
  0.19718748461549113    0.22073106819070545    0.24573181915882078    0.27892466617586    0.3160825783689748    
  0.3351122540692294    0.3351147878093368    0.31608442313785834    0.2789247271194017    0.2355007365844953    
  0.1999816162366645    0.180902334575743    0.1809044361338093    0.19997876660660438    0.23550293220029211    
  0.27892466617586    0.29145557347141804    0.3448294253177683    0.37461791799244415    0.3816248418250213    
  0.37461107547661004    0.34483315708199436    0.2914551519137438    0.2355007415953836    0.19718678779457063    
  0.18417741558823253    0.19718715024684766    0.2355008768578805    0.29145557347141804    0.2789249770595365    
  0.3448333217253988    0.3853389836432416    0.39325843769120344    0.3932686301148522    0.3853341954801824    
  0.34483316582355045    0.27892473549382246    0.22073321933115372    0.1900997891304038    0.19010012157300354    
  0.22073262899899912    0.2789249770595365    0.2457286099715199    0.3160841744226212    0.3746097605261152    
  0.3932688952577763    0.39170721989878104    0.39326861769519567    0.3746110754112094    0.3160844544068448    
  0.2457282843166658    0.1972497796436297    0.18109914357792917    0.19724976068307376    0.2457286099715199    
  0.2041154384847509    0.2644739363683177    0.3351164798704874    0.3816204427403764    0.3932688939633906    
  0.3932584931854828    0.3816248678135933    0.3351147839495919    0.2644742580041829    0.20411515974445316    
  0.17271580998425584    0.17271557202000282    0.2041154384847509    0.16713941080214606    0.2084353045108116    
  0.27114086555001116    0.33511646551058444    0.37460974636894845    0.38533900512959757    0.37461787465328017    
  0.33511234300925113    0.27114263339036837    0.2084352135072894    0.16713953226483858    0.15329463472252006    
  0.16713941080214606    0.14283453325924086    0.16525812177601792    0.2084352595681358    0.2644739287063885    
  0.31608417731621535    0.3448333231168737    0.3448294510971467    0.3160826483628262    0.26447390828145345    
  0.20843626492004874    0.16525579779214067    0.14283649192130785    0.14283453325924086    0.13451899541144924    
  0.14283454262234305    0.16713936650773262    0.2041154648636924    0.24572859184592916    0.27892496935673544    
  0.29145552017524035    0.27892465315177956    0.2457317926597861    0.20411362197738353    0.1671405754634603    
  0.1428346985271695    0.13451899541144924    0.16467774944912517    0.17493995579061575    0.20516657179952047    
  0.2504930271183126    0.2983371344841336    0.3322040639570118    0.34346590583635506    0.3321975331093227    
  0.2983698094673106    0.2504852437284764    0.20515676392331925    0.17494180469823353    0.16467774944912517    
  0.17494181225988065    0.17494350820092208    0.18627417121197168    0.20693918720174717    0.23245352584188889    
  0.25584566064975983    0.26959632185260374    0.26961086836732046    0.255849244525588    0.23242648588666207    
  0.20694444243661925    0.18628378050531175    0.17494181225988065    0.20515679452694988    0.2044462789037792    
  0.20516714039087913    0.2069488979073888    0.20951424586924453    0.21252595187031872    0.21474750214161964    
  0.21549175219856773    0.21473689933451812    0.21252128752595492    0.2095398296406384    0.20694442516114755    
  0.20515679452694988    0.2504852728952297    0.2608412245362772    0.26082708769986096    0.2504812226197877    
  0.2324539739489006    0.21251586723109622    0.19602042257759036    0.18679120348921127    0.18678924982424866    
  0.19603054471593964    0.2125212711287725    0.23242650588192199    0.2504852728952297    0.29836984733285055    
  0.32755131826350936    0.33690115424743655    0.3275584227700536    0.29833717867915005    0.25585661707226054    
  0.2147474383549775    0.18678735015304412    0.177197659804698    0.1867892690314881    0.21473693788771173    
  0.2558492216515212    0.29836984733285055    0.332197540277898    0.37414119536669016    0.38548989212552087    
  0.3855066487956062    0.3741726990789092    0.33219415492903914    0.26959370170812674    0.21549833618878583    
  0.18678732843668028    0.18679119100707853    0.21549175916273064    0.2696108825486889    0.332197540277898    
  0.34346594121821694    0.38856559605793534    0.37868229289884975    0.36228749115253667    0.37862464828857495    
  0.38857765692265117    0.34348093887867176    0.269593705474857    0.214747442272627    0.19602042643485185    
  0.21474749508644753    0.26959629308324295    0.34346594121821694    0.3322040876870764    0.3885830753960079    
  0.36342966479473904    0.3063801160108837    0.3064336015137925    0.36342161623014313    0.3885776733668557    
  0.3321941770680244    0.2558566454918737    0.2125158321164361    0.2125259797087128    0.25584564994894704    
  0.3322040876870764    0.2983371782496335    0.3741733055678121    0.3786238648601785    0.30643362935611534    
  0.2648701700836049    0.3064335919105932    0.3786246732505924    0.3741727159334849    0.29833717211093513    
  0.2324539874122485    0.20951427573407447    0.23245351536747558    0.2983371782496335    0.25049299051564244    
  0.32754755472121444    0.38550183924801296    0.36228000741907423    0.30643361078088815    0.30638013755322047    
  0.36228749556132833    0.38550663386706047    0.3275584034432033    0.2504811981676705    0.20694888055288502    
  0.2069391603417835    0.25049299051564244    0.20516660365203937    0.2608246891091125    0.33691599488250856    
  0.3855018231869287    0.3786238226053787    0.3634297176476783    0.37868224878328277    0.3854899845405956    
  0.3369011323572999    0.26082709787601016    0.20516718317420857    0.18627417237837207    0.20516660365203937    
  0.1749399736746747    0.20445273161177324    0.260824618668936    0.32754752486533056    0.37417329325772797    
  0.38858307923900604    0.3885656117885211    0.3741412920280119    0.32755127933680894    0.2608412349952949    
  0.2044462654435647    0.1749434915295808    0.1749399736746747    0.16467774944912517    0.17493995579061575    
  0.20516657179952047    0.2504930271183126    0.2983371344841336    0.3322040639570118    0.34346590583635506    
  0.3321975331093227    0.2983698094673106    0.2504852437284764    0.20515676392331925    0.17494180469823353    
  0.16467774944912517    0.1926963348121056    0.20465436756213798    0.23999981929182343    0.2914160350866449    
  0.3405496672033744    0.3689047685732466    0.3760420330666783    0.3688814722956567    0.34062024889959475    
  0.2914091278328482    0.23996393352485493    0.20465953171511045    0.1926963348121056    0.20465954189169597    
  0.20466811510302238    0.2169120164095441    0.2391543730914784    0.2657953184699143    0.28885762777730806    
  0.3014210678638253    0.3014700684324654    0.28886878730175375    0.2657340337886231    0.2391566129605249    
  0.21695159104853853    0.20465954189169597    0.2399639836740074    0.24011279147650252    0.2400009628557627    
  0.2391680531544492    0.2377661895851876    0.23663856463816296    0.2355929011977956    0.23499287577483494    
  0.2355567492040519    0.23662670244673376    0.23783123476530185    0.23915660400406732    0.2399639836740074    
  0.2914091134981156    0.3056940779364425    0.305644108073518    0.29139802880827265    0.26579544530133514    
  0.2366247150135255    0.21246569762501324    0.19918624630642548    0.19917639181382324    0.21250570398751648    
  0.23662667745993296    0.26573401394707447    0.2914091134981156    0.34062030248235914    0.37120857538940844    
  0.37931394009603653    0.37123220002014384    0.340549443206575    0.2888754444374984    0.2355925653376303    
  0.19917117310576746    0.18684441800417353    0.19917641621708862    0.23555678659691706    0.2888687859704516    
  0.34062030248235914    0.3688814812847403    0.39243525974802873    0.3788719245094828    0.3789163666669951    
  0.39248923106594846    0.3688928955517168    0.3014100439402785    0.23501686823579285    0.1991711335672376    
  0.19918624614053787    0.23499287136723987    0.30147008934829644    0.3688814812847403    0.37604204344284026    
  0.37754005378127264    0.3023034745377376    0.25970199194256827    0.30220532941896944    0.37754537567145247    
  0.3760981699695666    0.30141004501146224    0.23559253799893873    0.2124656922410315    0.23559288987540783    
  0.3014210125360434    0.37604204344284026    0.36890477507502284    0.37758426743874796    0.25941269602033923    
  0.1571728252066886    0.15722409651114866    0.2594301172446194    0.3775453574551127    0.368892911641559    
  0.28887543947380556    0.2366246701465661    0.23663858450496814    0.28885762754400296    0.36890477507502284    
  0.3405496985460459    0.39248954310077044    0.3022049279066944    0.157224261760616    0.10507962261669511    
  0.15722408557871903    0.3022053094183517    0.39248931849812674    0.3405493802317177    0.2657954910697867    
  0.23776622329778568    0.2657952700153644    0.3405496985460459    0.2914160241175939    0.37121921160837834    
  0.3788780635275074    0.25971901240120565    0.1572242689488956    0.15717284679532073    0.25970197842695725    
  0.3789163858512503    0.371232160223967    0.2913980298550457    0.239168038575216    0.23915435460270285    
  0.2914160241175939    0.239999840376126    0.3056343891696685    0.37936954145476487    0.3788780804969492    
  0.30220490529561866    0.25941265267739505    0.30230345857209245    0.3788720182528991    0.3793139545585736    
  0.3056441099278773    0.24000100702506022    0.21691202302199225    0.239999840376126    0.20465438039125602    
  0.2401357520530612    0.30563436186660853    0.3712192439513968    0.39248948946763024    0.37758425407188073    
  0.37754002484162313    0.3924353281991878    0.3712084987577893    0.3056941129338876    0.2401127737296504    
  0.20466813429958094    0.20465438039125602    0.1926963348121056    0.20465436756213798    0.23999981929182343    
  0.2914160350866449    0.3405496672033744    0.3689047685732466    0.3760420330666783    0.3688814722956567    
  0.34062024889959475    0.2914091278328482    0.23996393352485493    0.20465953171511045    0.1926963348121056    
  0.20428375292417303    0.21696903481635152    0.2544040318232138    0.30775159236994093    0.35584592232790796    
  0.3800329231008809    0.3846518196989961    0.37999926270857076    0.3559201901529863    0.3077518139661747    
  0.2543533113744918    0.21697702454224999    0.20428375292417303    0.21697704744997992    0.21698975193133307    
  0.22967219211628134    0.2526243256697155    0.2795177541510854    0.3020602869444113    0.31391906924770174    
  0.3139813980781122    0.30208002103678805    0.2794465401390257    0.25262378320224427    0.22972692589175991    
  0.21697704744997992    0.2543533593752337    0.254835174933962    0.2544027976269345    0.252639467009227    
  0.24976083226157814    0.2469207603024592    0.2445417412175971    0.24343205318695224    0.24449182091788868    
  0.24690673121066692    0.24983736587546945    0.2526237417737014    0.2543533593752337    0.30775181602776647    
  0.32336550389570157    0.3233040444276313    0.3077314277276925    0.27951692671427153    0.2469076464773178    
  0.2197838563204091    0.20500623615341557    0.20499552823444786    0.21983647507842474    0.24690671192186617    
  0.2794465437695821    0.30775181602776647    0.3559202662116381    0.3849950487980955    0.39167243748250224    
  0.3850277191202396    0.3558466980469697    0.30208010508940863    0.24454125622339926    0.20498782468743168    
  0.19167867079666376    0.20499555813085626    0.2444918684587938    0.30208005759353773    0.3559202662116381    
  0.37999931025457123    0.390409424567501    0.3634749920512527    0.3635197501681095    0.39046068294039044    
  0.3800224009989867    0.31390006700287604    0.2434642365217537    0.2049877729831139    0.20500622965876478    
  0.24343204877845334    0.31398137318673897    0.37999931025457123    0.3846518169362012    0.36066733723361843    
  0.2587797060774166    0.20911462839690312    0.25869521643736004    0.360651637578001    0.3847371377480802    
  0.3139000635561139    0.24454125409210953    0.2197838235617524    0.24454178144190142    0.3139190031440604    
  0.3846518169362012    0.3800329587175186    0.36071130905683035    0.2084610518626584    0.10345805319367175    
  0.10348326072444024    0.20849874441459645    0.36065163584653875    0.3800224111632341    0.3020801566370443    
  0.24690762373647554    0.24692076155807552    0.30206025614468646    0.3800329587175186    0.3558459668709354    
  0.39046035367923815    0.2586953728261709    0.10348329752053542    0.0582630230792547    0.10348327832595254    
  0.2586951983138254    0.39046073569176254    0.35584664033984176    0.2795169475197212    0.2497608372070795    
  0.2795177634334284    0.3558459668709354    0.30775159730156043    0.38501862563249933    0.3634592133709753    
  0.20915217711071812    0.10348329977026167    0.10345806377293497    0.20911461086635807    0.36351978514635197    
  0.38502772970291976    0.30773144109595857    0.2526394616294296    0.25262429317114243    0.30775159730156043    
  0.2544041086241957    0.32328290054116526    0.3917592625550447    0.3634592210664426    0.25869539400875774    
  0.20846104742978808    0.25877971502694946    0.36347506119958384    0.39167244685243785    0.32330404668337837    
  0.25440282732328084    0.2296722114275596    0.2544041086241957    0.21696906014102701    0.2548688132167396    
  0.3232828764188251    0.3850186642322301    0.3904602782468574    0.36071130355427883    0.3606673678874803    
  0.3904094817347988    0.3849949822799769    0.3233654915460491    0.2548351799041056    0.21698972936050295    
  0.21696906014102701    0.20428375292417303    0.21696903481635152    0.2544040318232138    0.30775159236994093    
  0.35584592232790796    0.3800329231008809    0.3846518196989961    0.37999926270857076    0.3559201901529863    
  0.3077518139661747    0.2543533113744918    0.21697702454224999    0.20428375292417303    0.19269634482656423    
  0.2046543655892297    0.2399998168363705    0.2914160101635405    0.3405496683236762    0.36890475280678225    
  0.3760420338398001    0.3688814764220246    0.34062025473801577    0.29140913013110886    0.23996394648512162    
  0.20465953917016116    0.19269634482656423    0.20465952469270804    0.2046681125540999    0.21691200834999755    
  0.23915439691801063    0.2657952888606768    0.2888576296019701    0.30142105470417546    0.30147009734318786    
  0.28886877970602076    0.2657340362567948    0.23915661096502436    0.21695158159572916    0.20465952469270804    
  0.23996397545737574    0.24011278824992566    0.24000097633414214    0.23916804817794277    0.23776618622948678    
  0.2366385722791557    0.23559290565289231    0.23499285318012267    0.23555675534635975    0.23662670233261085    
  0.23783123877911527    0.23915660603859    0.23996397545737574    0.2914091131608611    0.3056940749701937    
  0.30564411967264193    0.29139803004697185    0.2657954640096474    0.23662472038349372    0.2124657002533873    
  0.1991862536819678    0.1991763854913281    0.2125057126148914    0.23662666522065967    0.26573402832688003    
  0.2914091131608611    0.34062028893852825    0.37120856817591197    0.37931395978610305    0.37123219466524765    
  0.34054944585122165    0.28887544198590165    0.2355925448559311    0.19917117397468004    0.1868444278886877    
  0.19917642417563947    0.23555677480621265    0.2888687775334489    0.34062028893852825    0.3688814822352532    
  0.3924352777930903    0.37887192142007536    0.3789163639405129    0.3924892685513188    0.36889290198316516    
  0.30141003629120183    0.23501685663899838    0.19917114584244286    0.19918624479777403    0.2349928545750518    
  0.30147010268689356    0.3688814822352532    0.3760420471562184    0.37754005458918627    0.3023034540256527    
  0.25970199283565604    0.3022053280747339    0.3775453860413517    0.37609818101813586    0.30141007015735016    
  0.23559256244956747    0.2124656788662544    0.2355928810088046    0.30142101540097627    0.3760420471562184    
  0.3689047880029444    0.3775842454064824    0.259412682901956    0.15717283986843714    0.1572241047716464    
  0.2594301064479106    0.3775453629062721    0.3688929195149493    0.2888754436642066    0.23662468072741902    
  0.23663858846228453    0.28885760858825754    0.3689047880029444    0.3405497170740999    0.39248953138648873    
  0.30220492100951035    0.15722427139606376    0.1050796001104602    0.15722408289089376    0.302205315384311    
  0.3924893359551375    0.3405493627057218    0.26579547977321943    0.23776620572238188    0.26579528754979564    
  0.3405497170740999    0.2914160383784827    0.3712192442391342    0.37887805179102196    0.2597190449368656    
  0.15722427872756603    0.15717284163945947    0.2597019708433495    0.37891637706713005    0.3712321413973421    
  0.2913980319194227    0.2391680376680311    0.23915436325845077    0.2914160383784827    0.23999983352506948    
  0.30563440530994496    0.3793695172681349    0.37887805656555595    0.3022049228679989    0.25941265959013804    
  0.30230345698556477    0.37887199777907443    0.37931395895099107    0.3056441076265143    0.2400010010136702    
  0.21691202772655796    0.23999983352506948    0.2046543708182649    0.240135756796858    0.30563434758455454    
  0.37121923253747013    0.3924894782775248    0.3775842606735191    0.3775400388146497    0.39243532487938126    
  0.3712084967912105    0.3056941006642788    0.24011278592001833    0.2046681196633245    0.2046543708182649    
  0.19269634482656423    0.2046543655892297    0.2399998168363705    0.2914160101635405    0.3405496683236762    
  0.36890475280678225    0.3760420338398001    0.3688814764220246    0.34062025473801577    0.29140913013110886    
  0.23996394648512162    0.20465953917016116    0.19269634482656423    0.1646777544129055    0.17493997006118311    
  0.20516656313417156    0.25049302578868776    0.298337154382455    0.33220407044004424    0.3434658882412884    
  0.3321975329917451    0.29836979029552235    0.2504852420673964    0.205156763896222    0.17494180942408605    
  0.1646777544129055    0.17494183010253106    0.1749435032242373    0.18627415743686576    0.20693917112472382    
  0.2324535297512498    0.25584564606288884    0.26959630661260603    0.2696108588507306    0.25584925317730295    
  0.2324265032855404    0.20694444720482505    0.18628375847489978    0.17494183010253106    0.2051568062016752    
  0.20444627356092296    0.2051671562394824    0.2069489054807457    0.20951426395150882    0.21252596671021565    
  0.21474749789080647    0.21549175853391733    0.21473692508852435    0.21252130378612294    0.20953983091158346    
  0.2069444374371445    0.2051568062016752    0.25048527392047515    0.26084123872930826    0.2608271072911883    
  0.2504811985512715    0.23245396665949877    0.21251584239872107    0.19602044736322624    0.18679118859077473    
  0.1867892543836656    0.19603052084895697    0.2125212840011578    0.23242650953917363    0.25048527392047515    
  0.298369841840633    0.32755133110114    0.3369011616675772    0.3275584298468038    0.29833718262524545    
  0.25585663721864516    0.21474745487205066    0.1867873625427894    0.1771976373633458    0.18678928682443527    
  0.21473695718665045    0.25584921926702936    0.298369841840633    0.33219754764081916    0.37414120117296035    
  0.38548990482411344    0.3855066375787349    0.3741726960886752    0.33219416975054183    0.2695936876075627    
  0.2154983556831369    0.186787314478249    0.18679119565273433    0.2154917546297754    0.26961087748174617    
  0.33219754764081916    0.34346593917478957    0.3885655687645883    0.37868229715900026    0.3622874715327878    