#     DFTpy    
  CRYSTAL 
    
  PRIMVEC    
  5.440275862068965    0.0    0.0    
  0.0    5.440275862068965    0.0    
  0.0    0.0    2.9972413793103447    
  PRIMCOORD    
  4    1    
  Si    0.0    0.0    0.0    
  Si    2.7201379310344826    2.7201379310344826    1.4986206896551724    
  Si    0.0    2.7201379310344826    0.7493103448275862    
  Si    2.7201379310344826    0.0    2.2479310344827583    
  BEGIN_BLOCK_DATAGRID_3D    
  3d_datagrid_density    
  BEGIN_DATAGRID_3D#0    
  25    25    13    
  0.0    0.0    0.0    
  5.440275862068965    0.0    0.0    
  0.0    5.440275862068965    0.0    
  0.0    0.0    2.9972413793103447    
  0.06366082653850208    0.1092461094200138    0.2639512510437037    0.39856001876861935    0.3606722340332798    
  0.2660177454347917    0.2103592167610861    0.20260091507809522    0.23489463278036302    0.2952701451902963    
  0.35466644968822963    0.38445227333454773    0.39021135950255026    0.38445211357715586    0.35466668403053847    
  0.29526982812675634    0.23489506718565825    0.20260045378385175    0.21035969884910918    0.2660172589525104    
  0.36067271178995475    0.39855955268302556    0.26395147236644584    0.1092460308533389    0.06366082653850208    
  0.10924604524395837    0.16088613778092065    0.3056868006041523    0.3994547044240123    0.3430222724353825    
  0.2507642898805824    0.19857843901106292    0.19129369427172846    0.2215101877745916    0.2789160622808924    
  0.33836862696869047    0.3727763717210532    0.38156163014846184    0.3727765738622885    0.33836833215903067    
  0.278916478879292    0.22150979336469334    0.1912941085553307    0.19857797885302128    0.2507647690096008    
  0.343021750926181    0.39945510498733827    0.3056865288105267    0.16088623008752612    0.10924604524395837    
  0.26395135737004477    0.30568668277034566    0.3805023907443715    0.3770666785842314    0.2927980850709094    
  0.21134989610630037    0.16863535330002594    0.1627159401024386    0.18739516401985415    0.23565306270295955    
  0.2905897666411642    0.32989351879806145    0.34310119074308676    0.3298933590463732    0.2905900022349888    
  0.23565276074356362    0.18739556545075384    0.16271554575916813    0.1686357872493903    0.2113494798294705    
  0.29279850693577847    0.37706630728230617    0.3805026502028834    0.30568657449563713    0.26395135737004477    
  0.3985597739449527    0.39945488048982447    0.3770666707521831    0.30892156843611424    0.22545464966695172    
  0.16342517319387972    0.13240229134188783    0.12804549790054412    0.14572003899946714    0.18087143772184328    
  0.2234477714105115    0.257709716431701    0.27057588079366646    0.25770983464678243    0.22344749366694547    
  0.18087173056673533    0.14571968662208726    0.12804586201387663    0.132401911790915    0.16342560139866422    
  0.22545419406341025    0.30892200228870426    0.37706636390014275    0.3994549907557052    0.3985597739449527    
  0.3606724738240454    0.34302208186106864    0.2927981349388459    0.22545457048897868    0.16394639232429986    
  0.12170972296108051    0.10051491253435903    0.09725788094610144    0.10877610104287555    0.13173553925799142    
  0.16000408228534163    0.18367492184942655    0.19288621526367405    0.18367478553682115    0.16000432272985182    
  0.13173525360625316    0.1087764105696914    0.09725755720654977    0.10051524832135772    0.12170937788825328    
  0.16394675047299487    0.22545421152734635    0.29279839762229365    0.34302186279482794    0.3606724738240454    
  0.26601746365086887    0.2507644477944135    0.21134978224721554    0.16342525427324633    0.12170970770749268    
  0.09313612110861806    0.07840680933394965    0.07573692131816198    0.08299238930128439    0.09758365997237664    
  0.11546154823788606    0.13053897514623858    0.13647421704318016    0.13053906596957526    0.11546138423228029    
  0.09758390473058892    0.08299214389160149    0.07573719334539984    0.07840650735370946    0.09313644546873813    
  0.1217093739390538    0.16342551001897515    0.2113495504235407    0.25076460037316706    0.26601746365086887    
  0.21035948389555056    0.1985782721445804    0.16863550404135447    0.13240225900089087    0.10051494661556794    
  0.07840679992360935    0.066751538838377    0.06415544106192597    0.06891256919627997    0.07897033034805946    
  0.09132647626430139    0.10176111819240354    0.10589393841164828    0.10176103421466498    0.0913266182478182    
  0.07897010948663531    0.06891281496188921    0.06415516869691217    0.06675181569811904    0.07840653813473479    
  0.10051523796240135    0.13240198882575965    0.16863571443950653    0.1985781660779926    0.21035948389555056    
  0.20260067167160517    0.1912938236760644    0.1627158385157792    0.12804552463324756    0.09725789255659886    
  0.07573689923711692    0.06415543413769628    0.06106619347835449    0.0647570641710628    0.07325212193612506    
  0.0838306061923005    0.09277886477523022    0.09631561006824234    0.09277895809206528    0.0838304558473928    
  0.07325231475338553    0.06475683337859753    0.061066443151439914    0.06415515720764021    0.07573718666508236    
  0.0972575844554388    0.12804579488405107    0.16271567258866798    0.19129396673371407    0.20260067167160517    
  0.2348948261179886    0.22151006894250638    0.18739523186929957    0.14572004292062435    0.10877609090567769    
  0.08299243409862532    0.0689125220875923    0.06475710629052121    0.06845214246685592    0.07764114936221873    
  0.08928656432390926    0.09916642748915105    0.10304633599177143    0.09916635626684868    0.08928673126684278    
  0.07764092980117683    0.06845239614773092    0.06475683278905392    0.06891281373876336    0.08299215035130111    
  0.10877636331162449    0.14571974047108704    0.18739546228360557    0.22150996707270584    0.2348948261179886    
  0.29526999686554606    0.2789162251530504    0.2356531050793388    0.18087138747455916    0.1317355784043375    
  0.09758355988092363    0.07897039211949065    0.0732520655262772    0.07764116486331808    0.08921753197643797    
  0.10415715160946729    0.11688763042714194    0.12186037319151578    0.11688770669280894    0.10415697358591242    
  0.08921772432989246    0.07764092362774278    0.07325235289966311    0.07897008394411971    0.09758392326336665    
  0.13173523352957872    0.18087168936804918    0.2356528510701674    0.2789162944194471    0.29526999686554606    
  0.3546664998035527    0.3383686184248094    0.2905897038093475    0.22344786801072544    0.16000397594922608    
  0.11546170712559045    0.09132632689065211    0.08383072929728239    0.08928647288436875    0.10415716098365979    
  0.12357706994685964    0.14024201816174584    0.1467746777887956    0.1402419093189075    0.12357723700751154    
  0.10415693674363542    0.08928675742076432    0.08383040998889522    0.09132667063138959    0.11546136025942227    
  0.16000431560068296    0.22344747094952885    0.29059003052812055    0.3383684700531152    0.3546664998035527    
  0.38445218186538077    0.3727762867436262    0.32989369889677045    0.25770949172748997    0.18367509988076075    
  0.13053876988626537    0.10176127373437345    0.09277871847977057    0.09916658379412548    0.1168875175364877    
  0.14024205401091158    0.1605645476842272    0.16866571120542828    0.16056462435758054    0.14024186256171636    
  0.11688777887803808    0.09916629511696005    0.09277900728224013    0.10176095791996413    0.13053914116472282    
  0.1836746861462465    0.2577098379130504    0.3298933806316121    0.3727764301570763    0.38445218186538077    
  0.3902112870307684    0.3815618652966272    0.343100978296413    0.2705762119158743    0.1928859827265628    
  0.1364744986994768    0.10589369558321819    0.09631585388566748    0.10304615417584238    0.12186054638339164    
  0.1467745964419622    0.1686657941948703    0.17747119023175537    0.16866567164932877    0.1467747661984717    
  0.12186032103198792    0.10304645410312738    0.0963155304813902    0.1058940428489054    0.13647413701441055    
  0.1928863202285822    0.27057585199495865    0.34310126551486003    0.38156172476919004    0.3902112870307684    
  0.3844522929127953    0.3727762595134098    0.3298936875054173    0.2577094641661249    0.18367516658648325    
  0.13053872743440298    0.10176130599237582    0.09277870070246332    0.09916657862322704    0.11688748372602101    
  0.14024209646584646    0.1605645007598019    0.1686657138142791    0.16056461934669103    0.1402419266451041    
  0.11688775541076304    0.09916630705766152    0.09277897802406142    0.10176097867437235    0.13053913560158517    
  0.18367476076384756    0.2577097824942909    0.3298934605553962    0.3727763712080953    0.3844522929127953    
  0.35466639130852    0.33836862093955083    0.2905896530615543    0.22344789242382365    0.16000392360148763    
  0.1154617310822712    0.09132629192563449    0.0838307656557454    0.08928643750639277    0.10415720020626196    
  0.12357698997050745    0.14024206754037485    0.14677464231640136    0.14024195632317796    0.12357718243928313    
  0.10415694819169716    0.08928671756509109    0.08383046053259449    0.0913266266591143    0.11546141866341264    
  0.16000426787300012    0.22344756833133744    0.2905898843776602    0.33836848752995846    0.35466639130852    
  0.2952701333866104    0.2789160984039664    0.23565320492805014    0.1808712964405066    0.13173566242444817    
  0.09758351955391609    0.07897044837704985    0.07325200867641167    0.0776412161710145    0.08921746317123325    
  0.10415722015395848    0.1168875987435154    0.12186042676153831    0.11688766471316342    0.10415703340211839    
  0.0892176810006641    0.07764097265137361    0.07325228426245413    0.07897015002134201    0.09758386125695366    
  0.13173531368949187    0.1808715961992446    0.2356529444164707    0.2789162233913998    0.2952701333866104    
  0.23489470501317666    0.22151020029674703    0.18739511331194172    0.1457201069724923    0.10877601585319385    
  0.08299250862581398    0.06891247164084323    0.06475716855296237    0.06845205803882283    0.07764122197159896    
  0.08928649485180343    0.09916652403988822    0.10304626400743477    0.0991664165765765    0.08928667023406588    
  0.07764100449019817    0.06845233900736182    0.06475689316042567    0.06891275050243677    0.08299223090983907    
  0.10877629463650101    0.1457198380701865    0.18739536034307458    0.2215100511551812    0.23489470501317666    
  0.20260076674921756    0.1912937038449287    0.16271597927469295    0.12804545527369918    0.09725795204878816    
  0.0757368164968378    0.0641555020069942    0.06106612930285967    0.064757141028445    0.07325203750763365    
  0.08383067627018782    0.09277876482279696    0.09631568243122625    0.09277885782578027    0.08383053992566132    
  0.07325223131134997    0.0647569186565309    0.06106637255554478    0.06415522817094114    0.07573710996334541    
  0.09725766205202055    0.12804568629585703    0.16271575239635147    0.19129384714047495    0.20260076674921756    
  0.21035935876630604    0.19857840834290977    0.16863540062337387    0.1324023447840818    0.10051485611089635    
  0.07840688164975566    0.0667514626766759    0.06415551376755078    0.06891248397135406    0.07897041256780536    
  0.09132638711687174    0.10176121207198154    0.10589383525493537    0.10176112808665817    0.0913265350546126    
  0.07897019100571182    0.06891274019302474    0.06415524403019007    0.0667517447940593    0.07840660950210199    
  0.10051513376665827    0.13240208640652798    0.1686355857454912    0.19857828032481312    0.21035935876630604    
  0.2660175971699432    0.2507643327029998    0.21134990204637952    0.16342512772243176    0.12170982354352765    
  0.09313604636173634    0.07840688493828628    0.07573684326718602    0.08299246934266531    0.09758358210742284    
  0.11546164811803271    0.13053889405777327    0.1364743311747322    0.13053901153445902    0.11546147724469308    
  0.09758381294165026    0.0829922153503763    0.07573711354212535    0.07840658942275834    0.09313637246903671    
  0.1217094671718479    0.16342541123667984    0.21134970663029282    0.2507644566729684    0.2660175971699432    
  0.3606722951840177    0.3430221380548158    0.29279803007619787    0.2254546875832334    0.16394631246116226    
  0.12170979665884722    0.10051482864136155    0.09725796410991537    0.1087760328560595    0.13173559056604717    
  0.160003990778588    0.183674991243506    0.19288611976303913    0.18367487176551572    0.16000422478218554    
  0.13173532775188596    0.10877633270342435    0.0972576318140512    0.1005151766582408    0.12170946187396679    
  0.16394662785338893    0.22545432589517475    0.2927983233213064    0.34302202179656593    0.3606722951840177    
  0.3985598765271721    0.3994548067113846    0.37706676311649995    0.30892148133669917    0.22545471522009097    
  0.16342509564782004    0.13240236954617235    0.1280454442169446    0.1457201080107467    0.1808713382798734    
  0.2234478485168002    0.2577096403749404    0.27057600236618484    0.25770971858218966    0.22344763544815557    
  0.18087164267587794    0.14571978779998218    0.12804580551515504    0.13240199050212578    0.16342553489247552    
  0.225454279903601    0.308921865891735    0.3770665337329096    0.3994548474014105    0.3985598765271721    
  0.26395130411156936    0.3056867728708021    0.380502299817953    0.3770667832163985    0.29279796900954647    
  0.21134998072096284    0.16863531625868142    0.1627160244310124    0.18739509269281096    0.23565313010864472    
  0.2905897028790109    0.32989360388677225    0.34310113363836753    0.32989344599298753    0.29059002026258024    
  0.23565280727120827    0.18739550675386632    0.1627156017048195    0.16863572913367275    0.21134954176813525    
  0.29279843234154246    0.3770663187860276    0.3805026002200008    0.30568665239208975    0.26395130411156936    
  0.109246062130588    0.16088613565912127    0.30568682405187136    0.3994546456387667    0.34302232151363315    
  0.2507642168376312    0.1985784758700291    0.19129368200799693    0.22151023369997308    0.2789160530658047    
  0.3383686655757786    0.3727763574147576    0.3815616898581168    0.37277649324494894    0.33836835607699334    
  0.2789164566917321    0.22150979643180785    0.19129407961450656    0.19857803492929302    0.2507647644573094    
  0.34302175058223633    0.39945507273633407    0.3056865580973984    0.16088622386438275    0.109246062130588    
  0.06366082653850208    0.1092461094200138    0.2639512510437037    0.39856001876861935    0.3606722340332798    
  0.2660177454347917    0.2103592167610861    0.20260091507809522    0.23489463278036302    0.2952701451902963    
  0.35466644968822963    0.38445227333454773    0.39021135950255026    0.38445211357715586    0.35466668403053847    
  0.29526982812675634    0.23489506718565825    0.20260045378385175    0.21035969884910918    0.2660172589525104    
  0.36067271178995475    0.39855955268302556    0.26395147236644584    0.1092460308533389    0.06366082653850208    
  0.11948701501662429    0.17121191341588016    0.31016497167472046    0.39095656106126886    0.32636661281876217    
  0.2297256296114069    0.17172123419237414    0.15393034220614035    0.16666879828565012    0.20223700989491447    
  0.24814280616747217    0.2862076189390341    0.3009035609902626    0.2862077339118709    0.24814251800530096    
  0.2022373624237259    0.16666841844476035    0.15393072811570807    0.17172082122706664    0.2297260972593283    
  0.32636611063530874    0.3909569219838372    0.3101646713694861    0.17121203392482492    0.11948701501662429    
  0.17207169586371923    0.22346842790394772    0.3418583178507389    0.3865871403339841    0.3102691455972562    
  0.2173168215853004    0.16297450876112238    0.1463340451403845    0.15822658887424385    0.19141336304517284    
  0.23441133369595177    0.2704040369170972    0.2844159090253582    0.27040394760359016    0.23441158808612417    
  0.1914130896004306    0.15822695614168542    0.14633364087663014    0.16297492242842593    0.21731639948895876    
  0.3102695720071339    0.3865867290696053    0.34185859390266865    0.22346830573442808    0.17207169586371923    
  0.31614242820158517    0.3468386616221035    0.3890315801950616    0.3567407182630268    0.2657361507577065    
  0.1852999501835926    0.14059985006096562    0.12693783874183126    0.13664466571114897    0.16365354107871405    
  0.19889990252343137    0.22894911094319123    0.24079254793313243    0.2289492289188871    0.19889968896810042    
  0.16365381126785628    0.13664433318858138    0.12693820427969793    0.14059949289736806    0.18530035471195955    
  0.26573568297934697    0.3567411778491901    0.3890312658648592    0.3468388619300844    0.31614242820158517    
  0.40812508605406755    0.4019256744514961    0.36591864702499033    0.2907676088800983    0.20762553828579045    
  0.1464623801989366    0.11339922015123484    0.10319855817048927    0.11023703588735656    0.12981132036039963    
  0.15539303855955047    0.17738437093199586    0.18609284619915709    0.17738427511895413    0.15539319131035711    
  0.12981106746531149    0.11023733783105737    0.10319823015613447    0.11339958573556046    0.1464620141824848    
  0.207625916044079    0.2907672269931025    0.36591891359996465    0.40192544416799797    0.40812508605406755    
  0.3564607007033785    0.33745135431555584    0.28510806312550313    0.2170180098537992    0.15561104685279967    
  0.11287823947863722    0.08961027045212867    0.08219406783577655    0.0868896483197112    0.10015640584261289    
  0.1173933915917594    0.13214509192058013    0.13795850038668422    0.132145172011558    0.11739322986306941    
  0.10015662412240776    0.08688939301673654    0.08219437340575281    0.08960994099421515    0.1128785763708005    
  0.155610680090106    0.21701834233724432    0.28510783426183955    0.3374514199852602    0.3564607007033785    
  0.2739419264349441    0.257711550329085    0.21607113568181052    0.16554624947245572    0.12136884387364533    
  0.09066841736423985    0.0737087587056264    0.06804727793895224    0.07105399854213226    0.08012748854309815    
  0.09195294346809374    0.10203564868928731    0.10599655676163397    0.10203555341664329    0.09195309403733941    
  0.08012730172855563    0.07105425766701236    0.06804699637604211    0.07370904994800367    0.09066811641414116    
  0.12136913435528154    0.16554594511427662    0.2160714025698358    0.2577114305517609    0.2739419264349441    
  0.23519337289960107    0.2214632333146799    0.18662137941733356    0.14445385959338813    0.10726754129842074    
  0.08124710791392839    0.06678636326915453    0.06173596422716911    0.06382550891632728    0.07091280615160796    
  0.08029287297481452    0.08831531793313299    0.09147081344752062    0.08831538402784792    0.08029269996744205    
  0.07091300164945445    0.06382528222689296    0.06173621229080015    0.06678609342432557    0.08124742445823592    
  0.1072672363687292    0.14445414475426863    0.18662114776995195    0.2214633595653562    0.23519337289960107    
  0.2490484528983886    0.23433992862911734    0.19702002726260842    0.15184402614445147    0.11201556533819394    
  0.08411153720538089    0.06848002802866097    0.06285594602521188    0.06479797059357256    0.07192604415595166    
  0.08139880687820697    0.08952409411327146    0.09272837468129166    0.08952402759466044    0.08139894641374724    
  0.07192583940833579    0.06479822226830277    0.06285567304865586    0.06848031098331399    0.08411123825845168    
  0.11201584085636092    0.15184373710600182    0.19702028646322345    0.2343397844341045    0.2490484528983886    
  0.30890207905049794    0.2910413239495606    0.24430359520339404    0.186091842941047    0.1344014725895393    
  0.09830628063422601    0.07808434780451376    0.07073980694900171    0.07308780731017665    0.08200391829890168    
  0.09390100654730345    0.10417741869123814    0.10824700743685235    0.10417751894658911    0.09390085279711251    
  0.08200412969678153    0.07308756290893881    0.07074007996382696    0.07808405334238987    0.09830661761959289    
  0.13440110993846324    0.1860921360114692    0.24430332300335572    0.29104149714554667    0.30890207905049794    
  0.3812238862156206    0.36505202650434004    0.31508100978028436    0.2419375648999866    0.17161818900665024    
  0.12169363030653141    0.09397576193599701    0.08394779264474952    0.08703033377302966    0.0991451203562317    
  0.11554628590677145    0.12985366132114046    0.13555295192326489    0.12985354726943263    0.11554647542759017    
  0.0991448849378828    0.08703061963017636    0.08394749285958376    0.0939760802234092    0.12169330996792087    
  0.17161852360240853    0.24193724080085624    0.31508131291831976    0.3650517901981761    0.3812238862156206    
  0.39187861928506085    0.39308961672408066    0.37103989243911145    0.3015597760222292    0.21514346343023952    
  0.14922968434726183    0.11250707684232937    0.09931312309664615    0.10333954956575303    0.11949579574879467    
  0.14158950593497457    0.16099931781116633    0.16878649086237454    0.16099940481289565    0.14158932759802287    
  0.11949606051756499    0.10333928026738856    0.09931342144397849    0.11250673326697387    0.14923008608860905    
  0.2151430175706708    0.30156009535415423    0.3710396618932407    0.3930897822519578    0.39187861928506085    
  0.3327880901863109    0.3572257052124588    0.38436554351827623    0.34174538195308307    0.25029680390395953    
  0.17214685485896755    0.12784045671581223    0.11194214902827909    0.11676634918601721    0.13640650704743176    
  0.1634646742380962    0.18741810666625622    0.19710271093424953    0.18741797019409945    0.1634648843120182    
  0.1364062547475821    0.11676665015956848    0.11194178956078028    0.12784086288668217    0.1721464666021672    
  0.25029722323708814    0.34174500677826686    0.38436578427329826    0.35722553547516217    0.3327880901863109    
  0.2970469774151764    0.33045401599475466    0.3805055880012316    0.3544156759100324    0.26361539272102674    
  0.18110909597617958    0.1338542197878772    0.11687831633273822    0.12198637527300943    0.14297005495513232    
  0.17200516995127554    0.197818021773163    0.2083142979355439    0.19781810794735177    0.1720049289038144    
  0.142970340925453    0.12198604373667271    0.11687864191680546    0.13385382959782866    0.1811095140580025    
  0.26361492112081325    0.35441606730685915    0.38050522597981706    0.3304541948818942    0.2970469774151764    
  0.33278806934905264    0.3572257142967412    0.38436543680544777    0.34174543854471157    0.25029680063543097    
  0.1721468698214856    0.12784045023067342    0.11194216626812792    0.1167662913420072    0.13640652824687444    
  0.16346467146976412    0.1874181257959772    0.19710264928238794    0.18741804431698794    0.16346488612312965    
  0.13640628695365933    0.11676661586882042    0.11194181282559058    0.1278408033935099    0.1721465096764492    
  0.2502972013243799    0.3417450106786923    0.3843657805804052    0.3572256032558943    0.33278806934905264    
  0.39187872120896033    0.3930894742850838    0.3710400184148454    0.30155965678500796    0.21514347905542275    
  0.14922962130917627    0.11250712053033961    0.09931307812500323    0.10333959303086575    0.1194957681674287    
  0.1415895428462576    0.16099928426668478    0.16878654080874822    0.16099936617794508    0.1415893495155118    
  0.11949600732466532    0.10333931218956892    0.09931338633046602    0.1125067574164788    0.1492300246141638    
  0.21514305123676392    0.30156009075477963    0.37103966466968147    0.3930896406323609    0.39187872120896033    
  0.38122376963396026    0.36505215308536393    0.31508097281373637    0.24193766637022202    0.17161812074138558    
  0.12169371087057644    0.09397568980855094    0.08394784448347563    0.08703027366433677    0.09914518563828842    
  0.11554622889690795    0.1298537617708053    0.13555286785779225    0.1298536391874014    0.11554640889592464    
  0.0991449493603445    0.0870305605398289    0.08394754345680529    0.09397601864327629    0.12169339988160884    
  0.17161844963201517    0.24193729460480237    0.31508121426460795    0.3650520004023921    0.38122376963396026    
  0.30890221164785703    0.2910412329860433    0.2443036976631352    0.18609169540111634    0.13440156467738582    
  0.0983061963259647    0.07808442235499359    0.0707397448362748    0.07308786148262732    0.08200385047912283    
  0.09390108716368442    0.10417735761414003    0.10824708300503236    0.10417743666857515    0.0939009392061762    
  0.0820040356985652    0.07308764186675396    0.0707400073239075    0.0780841297492067    0.09830654514603483    
  0.13440121592269536    0.18609202527565674    0.24430347059799645    0.2910413519350932    0.30890221164785703    
  0.24904830193301783    0.23434003213114588    0.1970199350905128    0.15184414771149246    0.11201545046377835    
  0.08411160304311036    0.0684799492118127    0.06285602084643475    0.0647979093346399    0.07192611208698506    
  0.08139871000692774    0.08952414584264355    0.0927282695500752    0.08952408747153366    0.08139888957904684    
  0.0719259055954166    0.06479815572153642    0.06285574514919995    0.06848024744624667    0.08411131247288905    
  0.11201575006564335    0.15184384555621128    0.19702017088853135    0.23433992531360318    0.24904830193301783    
  0.23519352651638675    0.22146307324606188    0.18662149785252444    0.14445374903349756    0.10726762661362894    
  0.08124703745900433    0.06678643892359763    0.06173588553979742    0.06382557740280925    0.07091273758623204    
  0.08029294868373008    0.08831522579209994    0.09147090372902611    0.08831531407089477    0.0802927848350422    
  0.07091292166944006    0.06382534880837093    0.061736139810768115    0.06678615900559105    0.08124734888285744    
  0.1072673164653348    0.14445402667245583    0.18662128324794441    0.2214632124122121    0.23519352651638675    
  0.27394179136466357    0.2577116771325118    0.21607102856056837    0.16554634792002654    0.12136876104734196    
  0.09066850363772604    0.0737086768865287    0.06804735586146483    0.07105391993046863    0.08012757863180839    
  0.09195286895468589    0.102035744625333    0.10599646124890376    0.10203565911113205    0.09195301741747294    
  0.08012735441447519    0.07105418394663066    0.06804706796524422    0.07370897254031049    0.09066820009402381    
  0.12136903918758543    0.16554605731363206    0.2160712622250445    0.2577115574376094    0.27394179136466357    
  0.3564607759714779    0.3374511625312619    0.2851082104120409    0.21701792440636464    0.15561115096820105    
  0.11287813536534473    0.08961032987380883    0.08219401080192415    0.08688973042653714    0.10015632754908947    
  0.11739348855184772    0.13214497604261477    0.13795856540576573    0.13214509303669592    0.11739330476143836    
  0.10015654297665755    0.08688946703379799    0.08219430856811547    0.08961001879665802    0.11287850653085389    
  0.15561076121605102    0.21701824918591905    0.28510794451191046    0.33745136199112225    0.3564607759714779    
  0.40812498425000526    0.4019257806980945    0.3659185182655833    0.2907677153077433    0.20762545492390108    
  0.14646244963315808    0.11339915244278086    0.10319862571012019    0.11023699069537077    0.12981137879810087    
  0.15539299281618743    0.17738449580474744    0.18609276852424508    0.17738433556778993    0.15539319287596826    
  0.12981112093710218    0.11023728789257167    0.1031982996318881    0.11339950609185277    0.14646208127711277    
  0.20762582750794725    0.29076732322588245    0.365918880191507    0.401925595002073    0.40812498425000526    
  0.3161425201989212    0.34683862709267166    0.3890316453464085    0.3567406563547131    0.2657362324500402    
  0.1852998955530095    0.14059990395735222    0.1269377859028789    0.13664467903208719    0.16365347024401444    
  0.19889996042217778    0.22894904109398198    0.24079259870848865    0.2289491834166343    0.1988997328165233    
  0.16365375643027322    0.1366443894219945    0.1269381181942017    0.14059953428718924    0.18530034525934533    
  0.26573574626896623    0.35674103641788635    0.38903136365277646    0.3468387673007936    0.3161425201989212    
  0.17207167035443507    0.22346848710627037    0.3418582619693164    0.38658715777906344    0.3102690764842646    
  0.21731683274605185    0.16297447015396885    0.14633409087087376    0.1582265920185468    0.19141340545019603    
  0.23441128788123297    0.2704041056320246    0.28441589035409404    0.27040393906171817    0.23441154240187703    
  0.19141311663092253    0.15822691738950898    0.14633369669024193    0.16297492203554143    0.21731640635345703    
  0.31026951999723457    0.3865867858815582    0.3418585632807742    0.22346834952012362    0.17207167035443507    
  0.11948701501662429    0.17121191341588016    0.31016497167472046    0.39095656106126886    0.32636661281876217    
  0.2297256296114069    0.17172123419237414    0.15393034220614035    0.16666879828565012    0.20223700989491447    
  0.24814280616747217    0.2862076189390341    0.3009035609902626    0.2862077339118709    0.24814251800530096    
  0.2022373624237259    0.16666841844476035    0.15393072811570807    0.17172082122706664    0.2297260972593283    
  0.32636611063530874    0.3909569219838372    0.3101646713694861    0.17121203392482492    0.11948701501662429    
  0.29704726889690664    0.33045384950633905    0.3805056000415204    0.354415805128668    0.26361520924939263    