#     DFTpy    
  CRYSTAL 
    
  PRIMVEC    
  1.4247052205208954    -2.467661827750812    0.0    
  1.4247052205208954    2.467661827750812    0.0    
  0.0    0.0    4.817046461034482    
  PRIMCOORD    
  2    1    
  Si    1.4247052205208954    0.822553942583604    1.2042616152586205    
  Si    1.4247052205208957    -0.822553942583604    3.6127848457758613    
  BEGIN_BLOCK_DATAGRID_3D    
  3d_datagrid_density    
  BEGIN_DATAGRID_3D#0    
  13    13    21    
  0.0    0.0    0.0    
  1.4247052205208954    -2.467661827750812    0.0    
  1.4247052205208954    2.467661827750812    0.0    
  0.0    0.0    4.817046461034482    
  0.0957155755665338    0.10136837097849767    0.11800484209885316    0.14416656122177446    0.1746401088170482    
  0.1998787115105428    0.2098599174652431    0.19987868478945747    0.1746401521469861    0.14416654734425452    
  0.11800482057821556    0.10136839180692131    0.0957155755665338    0.10136839388764547    0.10136671565165227    
  0.11251712396587489    0.13408111754329816    0.16299962557299472    0.19171549084941386    0.21008365145436594    
  0.210084019865304    0.19171573440911122    0.16299915826329134    0.13408192574404407    0.11251604958795573    
  0.10136839388764547    0.11800481550674981    0.1125171278333375    0.11800554713259649    0.13408145861710608    
  0.15889146518891223    0.18728742346658953    0.2105793936716004    0.21971426563300891    0.21057877069997283    
  0.18728772652012846    0.15889091959744608    0.13408196562708055    0.11800481550674981    0.14416656266884229    
  0.13408109719451647    0.13408146458771436    0.14416563903488253    0.16299970268290073    0.18728728269336217    
  0.21085726053791012    0.22552228718353928    0.2255224721593022    0.21085746336682626    0.1872877247302372    
  0.16299916836794884    0.14416656266884229    0.174640088609692    0.1629996114514969    0.15889148195872266    
  0.16299973379247948    0.17464068104804548    0.19171508968096884    0.21057974418690767    0.22552215947876625    
  0.23111915919572165    0.22552242361818248    0.21057872486057422    0.1917157651635297    0.174640088609692    
  0.1998786847391008    0.19171546304073717    0.1872874195800602    0.1872872923068581    0.19171509259432337    
  0.19987881555140202    0.2100833381112751    0.21971418297638715    0.22552217446130254    0.22552229087822978    
  0.2197142657367615    0.21008403378104434    0.1998786847391008    0.20985993379452958    0.21008367469295336    
  0.21057943191908743    0.2108572451691318    0.21057975835089485    0.21008338439651889    0.20986064302324833    
  0.2100833826900766    0.21057978710029704    0.21085724145531687    0.21057943000194018    0.21008367707613818    
  0.20985993379452958    0.19987869044035525    0.2100840127821575    0.21971428453414873    0.22552226249843682    
  0.2255221594941993    0.21971417746873345    0.21008336234360053    0.19987877912630678    0.19171507064191604    
  0.18728726552153063    0.1872873624249612    0.1917154830049985    0.19987869044035525    0.17464006465309762    
  0.19171570599778529    0.21057876103090845    0.22552243914672396    0.2311191479560428    0.22552215973472864    
  0.21057971973119935    0.19171508152329672    0.17464071217367394    0.1629997112987548    0.15889146896709255    
  0.16299962682932817    0.17464006465309762    0.1441665831875532    0.16299913846022984    0.1872877370266225    
  0.21085746006534622    0.22552241079339994    0.22552229489242132    0.21085722880764943    0.18728728558031513    
  0.16299975233157457    0.14416560918724003    0.13408144690695112    0.13408114165509455    0.1441665831875532    
  0.1180048236502924    0.1340819282680631    0.1588909441009124    0.1872877476184942    0.2105787714346354    
  0.219714314390486    0.21057940741129239    0.1872873830833399    0.15889148789086496    0.13408144720936968    
  0.11800552514782887    0.1125171705410941    0.1180048236502924    0.10136836820051658    0.11251601416864618    
  0.13408194607439203    0.16299918064244348    0.19171571284198502    0.2100840764943959    0.21008362492058702    
  0.19171547025453126    0.162999658793894    0.13408112284792714    0.1125171263063482    0.10136672732461346    
  0.10136836820051658    0.0957155755665338    0.10136837097849767    0.11800484209885316    0.14416656122177446    
  0.1746401088170482    0.1998787115105428    0.2098599174652431    0.19987868478945747    0.1746401521469861    
  0.14416654734425452    0.11800482057821556    0.10136839180692131    0.0957155755665338    0.10229864894314    
  0.10854834314956152    0.12683846602281554    0.15534542172371996    0.18851419389599017    0.21602735728847863    
  0.22686888966100793    0.21602770822508735    0.1885142138531451    0.1553454531981961    0.12683910447296812    
  0.10854847446664646    0.10229864894314    0.1085484745492755    0.10854865104883701    0.11795819089351867    
  0.13610735465102533    0.16004801107157912    0.1835322785463013    0.19862836351597288    0.19862848091571267    
  0.18353112399232704    0.1600488529755221    0.13610684878773624    0.1179579103046495    0.1085484745492755    
  0.12683909662282733    0.12376041848800363    0.12683862526200063    0.13610677424181838    0.15046928036351262    
  0.16641104784143132    0.1793128604133436    0.1844581051322573    0.1793140259179568    0.16641082426542403    
  0.15046899562116714    0.13610687984222863    0.12683909662282733    0.15534545302911673    0.15307527850154592    
  0.1530753902197539    0.15534600771061666    0.16004799600831274    0.16641144477338968    0.17260369912798995    
  0.17656495022243024    0.17656322743960645    0.17260429389543125    0.16641082192550916    0.1600488629362249    
  0.15534545302911673    0.18851413355429406    0.19259918615399402    0.19413787128572174    0.19259889795570082    
  0.18851483622885987    0.1835308664840793    0.17931393033659246    0.17656309987913982    0.17559402920298917    
  0.17656320774694184    0.17931396612383554    0.18353113506309598    0.18851413355429406    0.21602770554090878    
  0.23214002331601613    0.2417362491403251    0.24173739895201882    0.2321384015890386    0.21602859262242471    
  0.19862779410894116    0.18445904024031384    0.17656308946709479    0.17656495692224455    0.1844580860492532    
  0.1986285242014347    0.21602770554090878    0.2268689320594476    0.2570702095333891    0.28014082018962694    
  0.288617383295342    0.2801410197596866    0.2570705840955313    0.22686882556425567    0.19862779736584527    
  0.17931398444423108    0.1726036919333506    0.17931288902512885    0.1986284251791639    0.2268689320594476    
  0.2160273407036466    0.25707201259113976    0.29460880059424216    0.316068408195409    0.3160675515990385    
  0.29460888728010004    0.25707058467919003    0.21602855047259611    0.18353090073175027    0.166411430911804    
  0.16641102967804244    0.18353228830649437    0.2160273407036466    0.18851420245478653    0.2321386762867129    
  0.28014006006866854    0.31606769128165974    0.32863700433811754    0.316067607006408    0.2801409842775289    
  0.23213844645000717    0.18851486307158394    0.1600479933898646    0.15046926628711485    0.1600480084228831    
  0.18851420245478653    0.15534542771360488    0.19260032470841243    0.24173687870797042    0.2886183276550976    
  0.3160676593756589    0.31606843069828894    0.28861736308209185    0.24173737478244994    0.1925989008384361    
  0.15534601823060282    0.13610676340309896    0.13610735521490905    0.15534542771360488    0.12683848579999993    
  0.15307534178000665    0.19413652899691788    0.24173685544461707    0.2801400567859516    0.2946088114241944    
  0.280140775791352    0.24173623041372366    0.19413792161419693    0.153075386771832    0.12683858052229416    
  0.11795823052970314    0.12683848579999993    0.10854833963369519    0.12376106374924191    0.15307537178625302    
  0.19260035209696164    0.23213868235481266    0.25707211204045705    0.25707015025965624    0.23214005696521567    
  0.1925992230998305    0.15307530924946955    0.12376040613788426    0.10854868226663578    0.10854833963369519    
  0.10229864894314    0.10854834314956152    0.12683846602281554    0.15534542172371996    0.18851419389599017    
  0.21602735728847863    0.22686888966100793    0.21602770822508735    0.1885142138531451    0.1553454531981961    
  0.12683910447296812    0.10854847446664646    0.10229864894314    0.12114057473387727    0.12899583072573512    
  0.15200677771901824    0.1874602248994866    0.22801766074902952    0.26077935488397536    0.2732538664800988    
  0.2607803493285297    0.22802114516077215    0.1874585077919137    0.15200723707133795    0.12899564662425586    
  0.12114057473387727    0.12899563217163965    0.12899587099771184    0.13868930088216583    0.1567424452478297    
  0.1798476287074342    0.2022357435083991    0.2163790645656635    0.21638032053868045    0.20223386115473352    
  0.17984650229634283    0.15674239653786673    0.13868932996677968    0.12899563217163965    0.15200723288291812    
  0.15042363938205996    0.15200724532032894    0.15674204891386045    0.16400517994178912    0.17204014734570144    
  0.1785334280517968    0.18110590742131516    0.17853381817133224    0.17203982012115984    0.16400675732197914    
  0.15674243229540094    0.15200723288291812    0.18745852552325243    0.19227544089821702    0.19227378906773088    
  0.187460506232646    0.1798479213659342    0.17203988172145113    0.1658051363409276    0.16237590416815065    
  0.16237467103625067    0.16580606218708974    0.17203983829925903    0.17984651380704766    0.18745852552325243    
  0.22802112008690203    0.24778882511062292    0.2549688290698125    0.24778839068751168    0.22801738869010624    
  0.2022353700192728    0.1785337192064172    0.16237486858394767    0.15669216862365604    0.16237466647912163    
  0.178533772507606    0.20223389861694033    0.22802112008690203    0.2607803238101548    0.30024250316950774    
  0.3213797111344501    0.32138386425540183    0.3002458884191425    0.2607797725456663    0.21637966042844883    
  0.18110632808119215    0.16237489510805608    0.16237589582766337    0.1811058851297282    0.21638034014868265    
  0.2607803238101548    0.2732539156808678    0.33036271187594285    0.36489299500299655    0.37400996447502033    
  0.36488244860766605    0.33036742880969866    0.2732521261234678    0.21637970196473721    0.17853378782702622    
  0.16580513307070494    0.1785334719033058    0.2163791068231356    0.2732539156808678    0.26077932746760013    
  0.3303673806231445    0.37765666724179625    0.3904933240975728    0.3905056135276424    0.37765202052474006    
  0.3303674276116441    0.26077972916937947    0.20223535246000954    0.17203985346653586    0.17204012086673823    
  0.2022357260289897    0.26077932746760013    0.2280176318546534    0.3002462872525346    0.3648817731163189    
  0.39050575689792283    0.39161656199623984    0.3905056511742843    0.36488240066515865    0.30024588962674686    
  0.2280174064210763    0.17984793983333208    0.1640051647736004    0.17984763157865835    0.2280176318546534    
  0.18746019704804923    0.2477877849081134    0.3213845689059864    0.3740058671242283    0.39050565755992667    
  0.39049334596445107    0.37400996589204233    0.32138388686498853    0.24778841056990475    0.1874604990274046    
  0.15674204589220853    0.1567424477745084    0.18746019704804923    0.15200674729521216    0.19227539598993174    
  0.25496662283487587    0.32138453487979063    0.3648817718495406    0.37765670034724635    0.3648929943067633    
  0.3213796898450709    0.25496884090510474    0.19227373315906376    0.15200722549225149    0.13868930859259485    
  0.15200674729521216    0.12899582205107987    0.1504234526919972    0.19227541217854702    0.2477877965194772    
  0.3002463348654613    0.330367439587782    0.3303626685847823    0.3002424876270924    0.24778884157829253    
  0.1922754747573743    0.15042363698665975    0.1289958926857032    0.12899582205107987    0.12114057473387727    
  0.12899583072573512    0.15200677771901824    0.1874602248994866    0.22801766074902952    0.26077935488397536    
  0.2732538664800988    0.2607803493285297    0.22802114516077215    0.1874585077919137    0.15200723707133795    
  0.12899564662425586    0.12114057473387727    0.1481971554635074    0.15809242399725051    0.18745528138147027    
  0.23228700623817283    0.2810557365589281    0.31687152099684435    0.32914326841198593    0.3168644262893991    
  0.2810953244384885    0.23227962723835874    0.1874435610205159    0.1580929779616658    0.1481971554635074    
  0.15809296263368905    0.15809600927213321    0.16890285195287275    0.18870792253846655    0.2135812787629966    
  0.23701533899043523    0.2511097770485192    0.25112643487887143    0.23701799210556462    0.2135498329294291    
  0.18871194910624495    0.1689161236272094    0.15809296263368905    0.18744354342600122    0.18697257315880275    
  0.18745489015451017    0.1887182714582902    0.19076104001927954    0.19354350591094976    0.19586658317983738    
  0.1966905594285697    0.19585565205742977    0.19353776575428164    0.1907925660696883    0.18871198648670806    
  0.18744354342600122    0.23227958409924132    0.24342801131686972    0.24341141511850395    0.23227628083648832    
  0.21358080126803938    0.1935339563465785    0.17733227993924355    0.16830676012167273    0.1683037064655556    
  0.17734494413899096    0.19353780013301855    0.21354982719363916    0.23227958409924132    0.2810952667421964    
  0.3128131338702595    0.32347060410351425    0.31281958620409395    0.2810567480478178    0.2370256913256297    
  0.1958666662884761    0.16830313447943734    0.15884571748686882    0.1683036824414452    0.19585560780105776    
  0.23701803388823517    0.2810952667421964    0.31686445610424757    0.36480938391595535    0.38082263551455664    
  0.3808459360694226    0.3648503732148802    0.3168593187990586    0.2511100459793782    0.196694675521999    
  0.16830314725032028    0.16830672799066834    0.1966905775307427    0.2511264926207121    0.31686445610424757    
  0.329143345680505    0.38368986089015666    0.3821402914594731    0.36825417663657606    0.382063126596955    
  0.38370737999510623    0.3291561510092908    0.25111009076593166    0.1958667354966275    0.1773322873958657    
  0.19586663027599407    0.2511098120073079    0.329143345680505    0.3168714947959616    0.3837110967490321    
  0.3695893403521305    0.3159046786942811    0.31597482780284497    0.3695779799175278    0.38370735876845213    
  0.3168592590401838    0.2370257021499077    0.19353393507177954    0.19354345766874806    0.23701532174054493    
  0.3168714947959616    0.28105573268734896    0.3648499926986127    0.38206534875676246    0.31597494554875377    
  0.2746340210381349    0.3159748663118419    0.382063085056848    0.3648503724482397    0.2810567670405479    
  0.21358083177818168    0.19076103197984812    0.21358129698498407    0.28105573268734896    0.23228699905838734    
  0.3128091093945061    0.3808401556786915    0.36824072960083576    0.3159748932937425    0.31590469887490547    
  0.3682541977965614    0.3808459382157656    0.3128195804236756    0.23227625128003723    0.18871825503291867    
  0.18870793766891855    0.23228699905838734    0.1874552642150663    0.24341110993417425    0.32348384576386147    
  0.38084017316769847    0.38206530937715943    0.36958936595747477    0.3821402488281157    0.3808226273380609    
  0.32347060778360415    0.24341137422574757    0.18745486677036896    0.16890287693314204    0.1874552642150663    
  0.1580924241083478    0.18697647565321335    0.24341112091525188    0.3128091044969947    0.3648499956474087    
  0.3837111473781727    0.3836897877206501    0.3648093664117043    0.3128131715690515    0.24342802805435246    
  0.18697257793836652    0.15809605123820225    0.1580924241083478    0.1481971554635074    0.15809242399725051    
  0.18745528138147027    0.23228700623817283    0.2810557365589281    0.31687152099684435    0.32914326841198593    
  0.3168644262893991    0.2810953244384885    0.23227962723835874    0.1874435610205159    0.1580929779616658    
  0.1481971554635074    0.17322924062255635    0.18499258023367374    0.22002497846107397    0.27223436265394196    
  0.32465584054382746    0.357418070419464    0.36651640417929876    0.35738923898169583    0.3247540626745208    
  0.272221691524263    0.2199833945098654    0.1849987385238774    0.17322924062255635    0.1849987219564282    
  0.1850094515279515    0.19690720049100954    0.21881287152288595    0.24575140241606183    0.2699481771834746    
  0.2837724100375563    0.2838306927190407    0.26996236969759047    0.2456682247012971    0.21881959106557664    
  0.196952207196262    0.1849987219564282    0.2199833744406672    0.22039669880786403    0.22002514368860152    
  0.21883544788082368    0.21742857721256467    0.21669855710841868    0.2162622946701637    0.21599876123249015    
  0.2162207541824338    0.21668325103951758    0.2175133891391265    0.218819594114796    0.2199833744406672    
  0.27222171459018374    0.2876800969051706    0.28762194154331167    0.2722072945868327    0.24575125890304972    
  0.216676707843706    0.1932153858948472    0.18049190505149382    0.18048178814937677    0.1932595264768243    
  0.21668324400286526    0.2456682364408902    0.27222171459018374    0.32475396811982016    0.35964314109760903    
  0.36975302033679974    0.3596718025853638    0.3246560516531107    0.2699748179114104    0.21626173178101618    
  0.18047571686037264    0.1684741309890588    0.18048174571520192    0.2162206727366846    0.26996240048950493    
  0.32475396811982016    0.3573892309383882    0.39031646929125335    0.38242674365806734    0.3824864922382201    
  0.39039925743749126    0.35739642758321255    0.28376205135190846    0.21602463953233783    0.18047572947658758    
  0.1804919126342942    0.21599875353720854    0.2838307741969874    0.3573892309383882    0.36651646285164874    
  0.3809595121350331    0.311910101798244    0.2695235395123644    0.311763730359119    0.3809801165559501    
  0.3665787218949063    0.28376207502713496    0.21626180016762497    0.19321539655335065    0.21626233193341365    
  0.2837724988706242    0.36651646285164874    0.3574180759626019    0.3810187001646791    0.2691423956140376    
  0.1638669077006671    0.16395339778368775    0.26914862514598686    0.3809801250285038    0.35739640140129064    
  0.2699748460001215    0.2166766720689036    0.21669852297534542    0.26994819073822046    0.3574180759626019    
  0.32465584900103883    0.3903995368051974    0.31176393061474195    0.1639534600901583    0.10898293358867622    
  0.1639534105164513    0.31176369448694313    0.39039930714080345    0.324656125206817    0.24575125126681915    
  0.21742856512852268    0.24575141133952672    0.32465584900103883    0.27223439834331137    0.35964988036719847    
  0.38244717416068674    0.2695296319642632    0.1639534417100348    0.16386691554222874    0.26952351373102357    
  0.38248648403099506    0.3596717895920251    0.2722073107380564    0.2188354190714865    0.2188128629489481    
  0.27223439834331137    0.22002498683420146    0.2876107693636442    0.36981663157331696    0.3824471405823924    
  0.31176397108898063    0.26914243694962103    0.3119100317247226    0.3824267219758977    0.3697530590995665    
  0.2876219147446665    0.22002511824537754    0.1969072548624039    0.22002498683420146    0.18499261078213944    
  0.22042318850412373    0.28761078903952964    0.35964992728907713    0.39039953840366937    0.3810188313023172    
  0.380959490572444    0.3903165298908106    0.3596431922012411    0.2876801586603544    0.22039667080861844    
  0.18500948480180893    0.18499261078213944    0.17322924062255635    0.18499258023367374    0.22002497846107397    
  0.27223436265394196    0.32465584054382746    0.357418070419464    0.36651640417929876    0.35738923898169583    
  0.3247540626745208    0.272221691524263    0.2199833945098654    0.1849987385238774    0.17322924062255635    
  0.1833959137549573    0.19601709974823076    0.23348768765744526    0.2883280297080988    0.3409088809524816    
  0.37057796017910954    0.37751132413172817    0.3705371412759557    0.34102016817901537    0.2883215077117018    
  0.23342687808790413    0.19602761881535835    0.1833959137549573    0.1960275979793603    0.1960425124727176    
  0.20851439850540687    0.23146140743737015    0.25913447359631214    0.28326549088249    0.2967529535509239    
  0.29683036089055154    0.28328974759200987    0.2590332195549212    0.2314653311995683    0.20857818747654047    
  0.1960275979793603    0.23342686796911594    0.2341520945892524    0.23348688681669877    0.2314847413002465    
  0.22882790983679294    0.22656977153011335    0.22494202795353965    0.22427051966214653    0.22488311482552725    
  0.2265496518761078    0.2289331281622083    0.23146536963188366    0.23342686796911594    0.28832151803253064    
  0.30515476139063724    0.3050757662895748    0.2882980916751398    0.25913499608750706    0.22654517990992126    
  0.2001835252854644    0.18613440885386595    0.18611991987069162    0.20024638246134302    0.22654965812643127    
  0.25903322724892686    0.28832151803253064    0.3410200867058714    0.3749783194939101    0.38376368549670886    
  0.37502015553979334    0.34090744390141303    0.2832965557332829    0.224943166251081    0.18610981648599761    
  0.1732478281148424    0.18611986162578556    0.22488307003128286    0.283289756991245    0.3410200867058714    
  0.370537143542872    0.3912798477256714    0.3695799649439553    0.36964795754273033    0.3913656092597673    
  0.37056000434093156    0.296729432780775    0.22431105299380208    0.18610983916205884    0.1861344084034747    
  0.2242705116946353    0.2968304025940225    0.370537143542872    0.37751136605172386    0.36687114785277836    
  0.2686797254896559    0.21796249086879893    0.26853894402094275    0.36687054744405073    0.3776138690557199    
  0.296729471383151    0.22494321985478655    0.20018352258521818    0.22494206459880012    0.2967530129547647    
  0.37751136605172386    0.3705779294869451    0.36694077698956096    0.21716850630127843    0.10735142907291828    
  0.10740643623631838    0.21720146413902933    0.3668705287388367    0.37055995090670424    0.2832965304315544    
  0.2265451735356801    0.22656971438637516    0.28326547988327017    0.3705779294869451    0.34090884280532047    
  0.39136503248976334    0.2685383371886781    0.10740623826742676    0.05948591163537347    0.10740643481086183    
  0.26853894473487366    0.3913655993889138    0.340907507261083    0.25913497211901526    0.2288279195207033    
  0.2591344724290934    0.34090884280532047    0.2883280319625969    0.3750011373083819    0.369579235821525    
  0.21799641182468027    0.10740621364641346    0.10735144613415555    0.2179624581532085    0.36964795932912997    
  0.3750201639865057    0.2882980429763164    0.23148472532397624    0.23146143957931037    0.2883280319625969    
  0.2334876988990258    0.3050528029934794    0.38386553294923387    0.3695792821865827    0.2685383767566603    
  0.2171685412441585    0.2686796891674831    0.36957994316143483    0.3837637358787765    0.3050757355273559    
  0.23348685326865792    0.20851444647910244    0.2334876988990258    0.1960170857033556    0.23419386188049232    
  0.3050528082016924    0.3750012159699491    0.39136507539777476    0.3669408609260777    0.36687108792356693    
  0.39127987564312383    0.37497838520241855    0.3051548005381558    0.23415209609759782    0.1960425348211017    
  0.1960170857033556    0.1833959137549573    0.19601709974823076    0.23348768765744526    0.2883280297080988    
  0.3409088809524816    0.37057796017910954    0.37751132413172817    0.3705371412759557    0.34102016817901537    
  0.2883215077117018    0.23342687808790413    0.19602761881535835    0.1833959137549573    0.17322923195610607    
  0.18499259575354365    0.22002496028080687    0.27223439224609414    0.3246558495685891    0.3574181077958512    
  0.36651638612513116    0.35738921993831657    0.3247540392707575    0.2722216843223512    0.21998340667350771    
  0.18499875010614106    0.17322923195610607    0.18499874046920653    0.18500944094843538    0.19690721593102364    
  0.21881284975051066    0.2457514210672761    0.269948197990952    0.2837724110137992    0.283830711387002    
  0.26996236670354673    0.24566820847939727    0.21881959947820026    0.19695220687905918    0.18499874046920653    
  0.21998339892960148    0.22039670067531958    0.22002515791885663    0.2188354339653395    0.21742856804773306    
  0.21669855861760504    0.21626229913160727    0.21599877145433014    0.21622073460658323    0.21668324469057157    
  0.2175133917249462    0.2188195950178823    0.21998339892960148    0.27222171454428423    0.28768010869030514    
  0.2876219458921908    0.2722072918371481    0.24575125195530861    0.21667670826918012    0.19321538936724197    
  0.1804919071624857    0.18048177437123394    0.19325953961658138    0.21668322830894188    0.24566825447662233    
  0.27222171454428423    0.3247539561308109    0.35964316124669476    0.3697530115134797    0.35967179009182415    
  0.3246560432286613    0.26997481920648053    0.21626172698771676    0.18047574046845308    0.1684741221957876    
  0.18048175790355422    0.21622067489433655    0.26996238868530514    0.3247539561308109    0.35738924283093937    
  0.39031648672701    0.3824267332124514    0.38248652852265974    0.3903992756250057    0.35739647670456565    
  0.2837620635407451    0.21602463743622144    0.18047572265101766    0.1804919207501486    0.21599874698224944    
  0.2838307440323225    0.35738924283093937    0.3665164472405987    0.38095950924659366    0.31191011078144226    
  0.2695235567594738    0.31176374136031154    0.3809800988993668    0.36657872418612597    0.2837620640105226    
  0.2162617878722085    0.19321538861753268    0.21626232380883975    0.2837725050942349    0.3665164472405987    
  0.35741807630679034    0.38101870666471016    0.26914239046806676    0.1638669030211266    0.16395339545949425    
  0.2691486167645895    0.3809801064634011    0.3573964072256766    0.2699748287700244    0.21667667786910888    
  0.21669852962974043    0.2699482004778873    0.35741807630679034    0.3246558417169611    0.3903995156998037    
  0.31176395590897527    0.1639534599939375    0.10898293411050165    0.16395341118455534    0.31176370023435873    
  0.3903992846859768    0.32465611619231205    0.24575123384211162    0.21742854883222693    0.24575140871623502    
  0.3246558417169611    0.27223437245958676    0.359649860295188    0.3824471685451673    0.2695296313398024    
  0.1639534382901656    0.1638669256966031    0.26952351690492626    0.3824864957646766    0.3596718174328771    
  0.2722073049137726    0.21883542154541846    0.2188128636732129    0.27223437245958676    0.2200249852843337    
  0.2876107757181055    0.369816643540421    0.38244713891500925    0.31176394951273884    0.2691424143341848    
  0.31191004763678604    0.3824267226213134    0.3697530669239749    0.2876219321245647    0.22002509736961365    
  0.19690725680739019    0.2200249852843337    0.18499259684843014    0.22042317313672224    0.2876107803117304    
  0.35964992025528586    0.39039955052261377    0.3810188017404831    0.3809594662554497    0.39031651151886265    
  0.35964320439776204    0.28768013998616493    0.22039668518377784    0.18500947615670363    0.18499259684843014    
  0.17322923195610607    0.18499259575354365    0.22002496028080687    0.27223439224609414    0.3246558495685891    
  0.3574181077958512    0.36651638612513116    0.35738921993831657    0.3247540392707575    0.2722216843223512    
  0.21998340667350771    0.18499875010614106    0.17322923195610607    0.14819715461252764    0.1580924411632055    
  0.18745529130449215    0.2322869838780301    0.28105575763155705    0.31687150885734866    0.3291432660359445    
  0.31686445134158914    0.28109532427261796    0.23227960141525097    0.18744355519308448    0.15809299265567772    
  0.14819715461252764    0.15809296746239418    0.1580960052172219    0.1689028681073301    0.18870791984474516    
  0.21358128014058161    0.23701534894468876    0.25110977249079774    0.2511264415206924    0.23701800172566126    
  0.21354980127554893    0.1887119429320388    0.16891610937645757    0.15809296746239418    0.18744355298143023    
  0.18697258651567342    0.18745488977305766    0.18871827001845282    0.19076105214085892    0.19354351493884597    
  0.19586657860435536    0.1966905667488947    0.19585563906139913    0.19353776741572626    0.19079257876217542    
  0.18871198772849862    0.18744355298143023    0.2322796115411285    0.24342802677432895    0.2434114236653028    
  0.2322762888383199    0.2135808037257094    0.19353394651785696    0.17733228359836792    0.1683067370118498    
  0.16830371991912235    0.17734493944721488    0.19353780411767965    0.2135498400405488    0.2322796115411285    
  0.2810952953755421    0.3128131299975482    0.3234706059373479    0.3128195905283401    0.28105673163117234    
  0.2370256893507297    0.1958666648278456    0.1683031333321269    0.1588457116319456    0.16830367982682495    
  0.19585561915223115    0.23701804190297437    0.2810952953755421    0.31686445639708705    0.3648093876160577    
  0.3808225954674582    0.3808459343244917    0.36485036953589756    0.3168593225061635    0.2511100462922717    
  0.1966946812514514    0.1683031290610817    0.16830672416754708    0.19669054738476266    0.25112646756951534    
  0.31686445639708705    0.32914334021268277    0.383689843997034    0.38214025493728176    0.36825417601593186    