#     DFTpy    
  CRYSTAL 
    
  PRIMVEC    
  9.160650987402649    7.3067158948e-07    1.2062747479999999e-06    
  7.306717630799999e-07    9.160654128791322    1.21946767138e-06    
  1.2062749022799999e-06    1.21946769938e-06    9.160653493832267    
  PRIMCOORD    
  16    1    
  Si    1.3517480948157599    7.808904577604256    3.228579109380176    
  Si    7.808903535240185    1.3517510031540303    5.93207307098904    
  Si    1.3517494718710834    1.3517498101507461    1.351750285879211    
  Si    3.228583851279005    3.2285851920418547    3.228584854723297    
  Si    7.808901313870875    3.2285793346690537    1.3517487705365465    
  Si    1.351747792726882    5.932078218508962    7.808904506161943    
  Si    3.228578125810694    1.351751280293561    7.808905243319758    
  Si    5.932072737675109    7.8089066954584805    1.3517488806002949    
  Si    5.932072274838455    3.2285857311582995    7.808909510005916    
  Si    3.2285805144677386    5.932070171987474    1.3517444358800266    
  Si    5.932069236657837    5.93207472876396    5.932072945521019    
  Si    7.808903794700941    7.8089081106620455    7.808906400971487    
  Si    3.228584210391559    7.808912257192942    5.932073269127724    
  Si    5.932067880918217    1.3517439340293878    3.2285817456797288    
  Si    7.8089070697203375    5.932073891122922    3.2285850718701234    
  Si    1.3517443291583635    3.2285828552990803    5.9320700952977115    
  BEGIN_BLOCK_DATAGRID_3D    
  3d_datagrid_density    
  BEGIN_DATAGRID_3D#0    
  41    41    41    
  0.0    0.0    0.0    
  9.160650987402649    7.3067158948e-07    1.2062747479999999e-06    
  7.306717630799999e-07    9.160654128791322    1.21946767138e-06    
  1.2062749022799999e-06    1.21946769938e-06    9.160653493832267    
  0.012385565022096173    0.012825245088143701    0.014080513563564313    0.01590808643525212    0.01787444790676316    
  0.019455012217295592    0.020234293769445    0.020152549477867727    0.019555622137340172    0.01892818216550347    
  0.018666224809883922    0.018928200053632736    0.019555661440938975    0.020152641418605434    0.0202343053360984    
  0.01945510946566892    0.017874454016156935    0.015908204999652203    0.014080484833552957    0.01282535641230003    
  0.012385558346886007    0.012825393779070096    0.01408056125021664    0.015908271753378795    0.01787458635570619    
  0.019455216902972385    0.020234435334843086    0.020152732675066974    0.01955575952976706    0.018928254268367427    
  0.018666311854234438    0.018928214926557566    0.01955574210127468    0.02015260516008316    0.020234387989747395    
  0.0194550644162728    0.01787454114164959    0.015908116467578833    0.014080543013865332    0.012825250473684975    
  0.012385565022096173    0.012825249794264436    0.014747055314224294    0.01773004002833161    0.02147789355731107    
  0.02529364974036176    0.02822748482143317    0.02953214692945415    0.029187769535112987    0.027881444098401778    
  0.026581375773244736    0.026055146557296904    0.02658138321326692    0.027881532665905907    0.029187816452788624    
  0.029532297960169228    0.02822753343874838    0.025293825854094832    0.021477890406389064    0.01773016308104258    
  0.014747025573997142    0.012825362226250431    0.011942421336825547    0.011924967974619595    0.012520682163900775    
  0.01338831246896756    0.014186818114787248    0.01465263651437123    0.014701194171704375    0.014475714508107645    
  0.01420302956001556    0.014082781681423757    0.014203027884388326    0.014475663147357109    0.014701177765525035    
  0.014652540594009493    0.014186802202753843    0.013388194029940011    0.012520684288028883    0.011924853496531931    
  0.011942418106669768    0.012825249794264436    0.014080512425737664    0.017728789423281863    0.023045593563540367    
  0.02963846419816559    0.03633853389587286    0.041423968938235384    0.04357416770247459    0.04277513700765923    
  0.04026596162316619    0.03783040426951603    0.036857886816716985    0.03783044140990766    0.04026599330561796    
  0.042775321674893195    0.04357424917803717    0.04142419352549212    0.036338631849071705    0.029638641760945713    
  0.023045595203183604    0.01772892864080755    0.014080497576022737    0.01192858266452358    0.010917544966572592    
  0.010691722012108827    0.010909919695910548    0.011269650900227867    0.011556958707733545    0.01166641047132578    
  0.011631236137291242    0.011546097949699834    0.01150361639955882    0.01154607295888405    0.011631232777421768    
  0.011666358694725237    0.011556950343758006    0.011269577496494758    0.010909907537552681    0.010691646860640667    
  0.010917544985927865    0.01192847413912422    0.014080512425737664    0.015908075141594695    0.021502755641269626    
  0.029691871728537978    0.03999422404872734    0.0505857560138872    0.058661595838780424    0.06201536951342075    
  0.060564950841534064    0.05637017114577798    0.052364077655117    0.05077342599163261    0.05236413309295923    
  0.05637032902329942    0.060565085864335476    0.06201568285016033    0.05866172574234521    0.050586088231207936    
  0.039994280417925514    0.029692073839438348    0.021502758912552343    0.015908196485256446    0.012519647384240334    
  0.010700106975372142    0.009913897585306794    0.00974224322467269    0.009868558943392548    0.010068038763581645    
  0.010210613988862671    0.010270175112402413    0.010280730181751371    0.010277706596472593    0.010280742966373206    
  0.010270149707179155    0.010210616602159337    0.0100679922210177    0.009868572218500982    0.009742161508069017    
  0.009913907260602936    0.010700004007306705    0.012519653906318345    0.015908075141594695    0.017874473325246054    
  0.025335836050456705    0.03645974689268603    0.0507092468023765    0.0655825335816267    0.07703405847237019    
  0.08179859602148706    0.07965109915492591    0.07360126561794211    0.06787661304829672    0.06561574320566048    
  0.06787670812714461    0.07360139273705506    0.07965142090966597    0.08179878490217543    0.07703443288300159    
  0.06558272877896602    0.05070954442917378    0.03645978275475916    0.025336013628895333    0.017874458519985474    
  0.013410882464139793    0.010989634471228272    0.009852438871195315    0.009480603839935693    0.009509292283798524    
  0.009687329637157965    0.009856052211965175    0.009959618444029022    0.010010144078659198    0.010025258486362447    
  0.01001013753645692    0.009959627717612727    0.009856004528205906    0.009687346354240199    0.009509247815753036    
  0.00948063581381865    0.009852375059874763    0.01098964735613206    0.013410774250211782    0.017874473325246054    
  0.01945502401684917    0.02818676521196624    0.041442750670524484    0.05871283586941479    0.07696529859443364    
  0.09114234032912749    0.097128158246391    0.09457274081367377    0.08714259074336486    0.08010566191300555    
  0.07733494010600218    0.08010574377037057    0.08714291487512747    0.09457294816436801    0.09712857469235182    
  0.09114259473226244    0.07696579985971719    0.058712988640384406    0.04144302112826138    0.028186788491759773    
  0.019455161377755503    0.014326339208706388    0.011591233138044839    0.010336208191354399    0.009949486680348164    
  0.01000800832827966    0.010221858273535299    0.010418702017488247    0.010534116819249937    0.01058600323304075    
  0.010599783048007946    0.010586011839669169    0.010534104385405084    0.01041873031014197    0.010221832488342977    
  0.010008051930026162    0.009949453377838948    0.010336241938215045    0.011591154975385275    0.014326342594820464    
  0.01945502401684917    0.020234320860238346    0.029169000065925457    0.042936907375626124    0.06108149498112238    
  0.08044451572407839    0.09563457154830221    0.10220720002079188    0.09973032355302827    0.09197677952772668    
  0.08457874779003792    0.0816637515363711    0.08457887618843872    0.09197696404186016    0.09973067110102994    
  0.10220746655517267    0.09563505197393787    0.08044473873406387    0.0610818713179191    0.0429369819299791    
  0.02916919131210553    0.020234310338025335    0.015094062298026524    0.01246407826266613    0.01138922225860853    
  0.01121531847517407    0.011457644392652747    0.01178485825482363    0.012011401345504304    0.01209675233369501    
  0.012100529560152796    0.012092878943457175    0.01210054775608143    0.012096796253589783    0.012011394663382611    
  0.011784920295105762    0.011457597455315065    0.011215376616265442    0.011389171945085836    0.01246410593879464    
  0.015093941906496098    0.020234320860238346    0.020152543228499395    0.02807985426926089    0.04046632066160455    
  0.05690333098860979    0.07459572093631046    0.0886860778464196    0.09499947860920167    0.09300357788147168    
  0.08611872080791473    0.0794485265234622    0.07680717377386416    0.07944853913507521    0.08611894265981294    
  0.09300378969817075    0.0949998753489808    0.08868636880211156    0.07459613728276492    0.056903456700534316    
  0.04046662705639259    0.028079855193401653    0.020152677956052915    0.015755307463686065    0.013738681122866801    
  0.013231281848118457    0.013576351441112966    0.014231168242781627    0.014790591276204336    0.015046580153799657    
  0.015022922952382995    0.014897857871043616    0.014835351463470559    0.014897877228886181    0.01502295211449047    
  0.015046661857887722    0.014790594011632104    0.014231259879162305    0.013576316184619259    0.013231353569411707    
  0.013738584491706    0.015755321719108747    0.020152543228499395    0.019555676811369715    0.025525754020686738    
  0.035126841477553704    0.04800183742995794    0.061978258162452865    0.07329579641672278    0.07860040076503849    
  0.07734251903562261    0.0721633276451537    0.06701424814009396    0.06493985580532023    0.06701434480146368    
  0.0721634636882451    0.07734285144945861    0.07860060144033598    0.07329615690935486    0.061978449247943865    
  0.04800214273240832    0.03512687682696646    0.02552592087881165    0.01955566638484609    0.01656031724525402    
  0.01569846403764493    0.016266668238783675    0.017605722889940344    0.019039645832766443    0.020009296300952842    
  0.020268531188643888    0.019994330694291317    0.019596468367432757    0.019419872893167284    0.019596473572593483    
  0.019994428068144533    0.020268587176641695    0.02000939815042044    0.019039647435270025    0.01760580404765885    
  0.016266607472054204    0.01569851623404334    0.016560208546377988    0.019555676811369715    0.018928162740492246    
  0.02248589762846705    0.02880656959493085    0.037545641721894916    0.04716605206536635    0.05511143017780945    
  0.05905996376279256    0.05851617850542662    0.055211909479388095    0.05179098448231312    0.050385110511920836    
  0.05179094949797359    0.05521209295017481    0.05851624648882263    0.05906019703554553    0.05511152843640418    
  0.04716634713613778    0.03754568771911463    0.028806754025864183    0.02248588989893053    0.018928298498009366    
  0.017824561257076196    0.01871156160371763    0.021069004874423678    0.024143445897626303    0.026944908977249115    
  0.02858677973959962    0.02876437593826526    0.02795626844186563    0.02700346777420279    0.02659616935569285    
  0.027003537420794865    0.027956350003414638    0.028764545531849286    0.028586829385652927    0.02694505451141314    
  0.024143427634040864    0.02106907660592341    0.018711445209852223    0.01782457334820335    0.018928162740492246    
  0.018666283378555873    0.019790467827761723    0.023089096059073784    0.028165069360053266    0.03398725040823443    
  0.03895262080519927    0.04160161782454437    0.04153832262810247    0.039742411890219695    0.03779001476059207    
  0.03697347309191263    0.03779006919680175    0.03974245850015086    0.041538467190548684    0.041601634033456326    
  0.03895280750975288    0.03398728953691121    0.028165246326351707    0.023089105587890308    0.019790619424227086    
  0.018666293588878873    0.019790659693292974    0.023089150915797736    0.028165262585707018    0.03398730596531739    
  0.0389527969590758    0.0416015905267032    0.04153830700228826    0.039742319273626425    0.037789893182462626    
  0.03697341691042762    0.037789961267708214    0.03974248017228593    0.04153838470586928    0.04160174767554635    
  0.038952748915905194    0.03398739734075164    0.028165137894227962    0.02308914944120944    0.01979049242370112    
  0.018666283378555873    0.018928182522262756    0.017824588344791528    0.018711411126234454    0.021069040238981117    
  0.024143362187429577    0.0269449406472091    0.02858679648444258    0.02876451095310733    0.02795633871809314    
  0.027003573822417495    0.0265962898651453    0.02700356484148719    0.027956430690917095    0.02876450855504454    
  0.02858690822389881    0.026944979540598636    0.0241435058975942    0.021069033295700215    0.018711580458273102    
  0.017824597536595817    0.01892835744357311    0.02248603353372416    0.028806903167361075    0.03754588177817047    
  0.04716649119068264    0.055111715268480264    0.059060219904576286    0.05851625010140192    0.055211925169282264    
  0.051790897356525416    0.0503850265838028    0.0517910197731027    0.055212060347138645    0.05851637172274648    
  0.05906022610757955    0.055111749233174974    0.04716630589769317    0.037545835102500744    0.028806669267445704    
  0.02248595277982993    0.018928182522262756    0.019555720927673964    0.01656023421236153    0.015698518446184685    
  0.016266596895023855    0.01760577653855739    0.019039631170560442    0.020009377859335816    0.020268605200090755    
  0.019994430074066545    0.01959654431791128    0.019419921013800193    0.019596570473620057    0.01999443047074207    
  0.02026865137404701    0.02000934279848798    0.019039707510005954    0.017605785893699617    0.016266717694972756    
  0.015698539670828453    0.016560401345255178    0.01955581270194072    0.025526154401670775    0.03512724498351327    
  0.048002552572754764    0.06197892626341032    0.0732965877221686    0.07860098467305364    0.07734291752065861    
  0.07216357634465213    0.06701431158032492    0.06493997768691528    0.06701435909592608    0.07216371118489036    
  0.0773428938189313    0.07860092970970124    0.07329621759732187    0.061978717220571446    0.048002123142534464    
  0.03512704781654216    0.02552584331237468    0.019555720927673964    0.02015259777251113    0.01575538171400652    
  0.0137386229331493    0.01323133867778751    0.013576325428379986    0.014231229197781628    0.01479059238039835    
  0.015046660835922635    0.015022971208122748    0.014897907674643723    0.01483542627477332    0.01489791913711235    
  0.015023007356679103    0.015046649687443561    0.014790660829064741    0.014231236195744158    0.013576433450815984    
  0.01323136297989081    0.01373875396545644    0.01575542173642165    0.02015288408715675    0.02808021667558589    
  0.040467107137832255    0.05690421343987968    0.07459695880356193    0.08868733998867419    0.09500069187450114    
  0.09300441023235882    0.08611921588698469    0.0794488693888156    0.07680741081916066    0.07944890780812934    
  0.08611913634178277    0.09300425376006263    0.09500007619932811    0.08868680707858725    0.07459624831630103    
  0.056903776427294786    0.040466545519823295    0.028079989903832477    0.02015259777251113    0.020234412146273324    
  0.015093999983018004    0.012464154316605504    0.011389183035907045    0.011215366299343511    0.011457610535924867    
  0.011784936872581217    0.01201143890830244    0.012096822746065657    0.012100594784878125    0.012092911104057505    
  0.01210058749645886    0.012096814836870489    0.012011459264722288    0.011784910565270664    0.011457672190627285    
  0.01121538133257399    0.0113892873595757    0.012464168709826667    0.015094208562653012    0.02023458218130871    
  0.029169637900334416    0.042937722731861944    0.06108281640767813    0.08044600655044933    0.09563637951891216    
  0.10220874319793971    0.09973159543349107    0.09197771712242928    0.08457934261802981    0.08166430936593357    
  0.08457924700011378    0.0919775561159268    0.09973096081242667    0.10220810847546528    0.09563532098772008    
  0.0804452357285387    0.06108191448435794    0.04293723542156448    0.029169143564231642    0.020234412146273324    
  0.01945509406872812    0.01432641010040989    0.011591183826754725    0.010336272362247932    0.009949458720043089    
  0.010008048222277601    0.010221841624506268    0.010418748498363859    0.0105341230262293    0.010586033968409006    
  0.010599801437799688    0.010586042526059493    0.010534164362178805    0.010418724566062383    0.010221902874145443    
  0.010008049331981938    0.009949558386173797    0.01033627698103855    0.011591331073319963    0.01432649996912062    
  0.019455426501188502    0.028187294175541198    0.041443792968873565    0.058714184360696794    0.07696713954850486    
  0.09114429586066862    0.09712999686746095    0.09457424194106598    0.08714376247269694    0.08010655320591871    
  0.07733555975300326    0.080106372218096    0.08714330137442244    0.0945736666160353    0.0971289412163801    
  0.09114324325583947    0.07696595525061516    0.05871339487959366    0.04144302210975451    0.028186961619687017    
  0.01945509406872812    0.0178745679954974    0.013410806790555303    0.010989696131294103    0.009852386974465482    
  0.009480645088391906    0.009509234581584567    0.009687352660866625    0.00985603901036701    0.009959623048193858    
  0.01001014303327437    0.010025276521392812    0.010010178647677153    0.009959651009983708    0.009856089774732289    
  0.00968736832404933    0.009509326644335528    0.009480663159973876    0.009852506142858604    0.01098973770066531    
  0.013411038181992067    0.01787475670441829    0.025336488425375957    0.03646060752258906    0.050710589441854484    
  0.06558411783855349    0.0770359880974443    0.08180036394048634    0.07965263375206269    0.07360242572648168    
  0.0678774186793494    0.06561646627416215    0.06787718571988478    0.07360201379207647    0.07965179259613381    
  0.08179941122188053    0.07703472033316087    0.06558319467292323    0.05070963169241696    0.036460042799183585    
  0.025335960745730083    0.0178745679954974    0.0159081313069563    0.012519719301963935    0.010700021243027633    
  0.009913935202445993    0.009742169913535935    0.009868557564392725    0.01006797045986087    0.010210620385805379    
  0.010270154520829567    0.0102807539266156    0.010277737323144843    0.010280760939368833    0.010270228678853285    
  0.010210660755275327    0.010068081787757923    0.009868606355289284    0.009742315732674124    0.009913968793264082    
  0.01070019546651006    0.012519807342475577    0.015908443758001493    0.02150319192960593    0.029692695280148618    
  0.03999524799233433    0.050587183492834434    0.05866307406771535    0.06201689845779312    0.06056618447824687    
  0.05637114505299604    0.05236485833434506    0.05077394467662734    0.052364677056459905    0.05637066476130811    
  0.060565630696986034    0.062015945587766984    0.05866222528093174    0.050586222407727074    0.0399946108202793    
  0.029692061197668207    0.02150290272421052    0.0159081313069563    0.01408057631876733    0.011928503583861551    
  0.010917588467714037    0.010691637082493204    0.010909914585040356    0.01126955994267407    0.011556926880278835    
  0.011666346451227588    0.011631211328150771    0.011546094685489448    0.011503640790733748    0.011546156605578584    
  0.011631291264253855    0.011666501839016996    0.011557027912932928    0.011269747838756602    0.010910015346038802    
  0.010691825202450355    0.010917664732347508    0.011928716680292913    0.014080734566136762    0.017729230337369985    
  0.02304610959132696    0.02963926121690548    0.036339490447109206    0.04142508549034927    0.043575241014117465    
  0.04277602910765263    0.0402666770747533    0.03783091069806058    0.03685838535285983    0.037830721747173876    
  0.04026643612783792    0.042775510031113635    0.043574615527634336    0.041424295204449346    0.03633891423252769    
  0.029638644589021074    0.02304576142418591    0.01772886900463842    0.01408057631876733    0.012825277532883423    
  0.011942468355827204    0.011924867386274003    0.012520694656520105    0.01338817455877542    0.014186768820047933    
  0.014652511485785946    0.014701160471559482    0.014475646469804045    0.014203033455479566    0.014082825413624187    
  0.014203088741754518    0.014475852101496777    0.014701334320979937    0.014652789521843589    0.014186982580957823    
  0.013388465570223568    0.012520847093299547    0.011925093393673614    0.01194257910122986    0.012825530735015252    
  0.014747308395597484    0.01773048939415461    0.021478353182038477    0.025294324361633248    0.028228162320442573    
  0.029532821292191716    0.029188373531815713    0.0278818913775484    0.026581768881637935    0.026055369350100794    
  0.026581697928838098    0.027881662877636635    0.0291880843034321    0.029532355988507984    0.02822777673307725    
  0.02529383482048864    0.021478062003265776    0.017730125388805095    0.0147471153675255    0.012825277532883423    
  0.01238560423661367    0.012825276295817483    0.01408057791673928    0.015908101977053772    0.017874502011866793    
  0.019454993554945055    0.02023432314591032    0.020152559433297815    0.019555682238929915    0.01892821272915897    
  0.01866635500754582    0.01892836857622105    0.019555952999993798    0.020152955371846037    0.020234718524899324    
  0.019455505988684958    0.01787485814661337    0.015908498641971826    0.01408075929342191    0.012825543170183723    
  0.012385741777358086    0.012825536711408068    0.014080744228181659    0.01590843212127276    0.017874794939140903    
  0.019455441517061394    0.020234696039482292    0.020152915193210625    0.01955596027257469    0.018928387840986508    
  0.018666455443333778    0.018928300285192698    0.019555851824589604    0.02015268567714944    0.020234466384850828    
  0.019455104503354064    0.01787461092168165    0.015908148458064052    0.014080587562713336    0.012825284369576686    
  0.01238560423661367    0.01282527312049134    0.014747125260259744    0.017730086515447455    0.021477986466418193    
  0.025293698870702278    0.028227569701114685    0.029532140003066105    0.029187830298240198    0.02788144419328094    
  0.02658148972063695    0.026055291180712703    0.02658170068206911    0.02788193396041953    0.029188426907021676    
  0.029532934939677343    0.0282282546629056    0.02529444500322958    0.021478430362195444    0.017730523563899    
  0.014747321078801476    0.012825543081191949    0.011942593938978103    0.011925094355876296    0.012520833180184156    
  0.01338841148235588    0.014186985576259007    0.014652747865744567    0.014701334504519997    0.014475806549272153    
  0.014203139050610623    0.014082835999721011    0.014203105943459813    0.014475716657433484    0.014701258166656874    
  0.014652562116737992    0.014186850014657623    0.013388212239031007    0.012520729438094421    0.01192485933439758    
  0.011942468178403852    0.01282527312049134    0.014080595602859423    0.017728854600246095    0.023045740554913634    
  0.02963852275152594    0.03633870959406429    0.04142399284715473    0.04357424475498916    0.04277512756656214    
  0.04026601781670645    0.03783047152798627    0.03685819052789294    0.03783085302052984    0.04026672882154477    
  0.04277621313856956    0.04357536186720805    0.04142528172917385    0.03633967505089991    0.029639407313340263    
  0.02304619040268485    0.01772926382075866    0.014080759993109404    0.01192872295832786    0.010917687851497718    
  0.010691793036415305    0.010910020980614136    0.011269732055767862    0.011557061843272319    0.011666469479902002    
  0.011631320131736211    0.01154613488183689    0.011503692734472718    0.01154609726677531    0.011631288712337836    
  0.011666380661411376    0.011556989542330164    0.011269577262797927    0.010909955995987625    0.010691651398488704    
  0.01091760228689874    0.011928499362149252    0.014080595602859423    0.015908123837149134    0.021502919473776326    
  0.029692008087380414    0.03999444226009691    0.050585894452446975    0.05866174673916471    0.06201535693309065    
  0.06056499486398949    0.05637009804668035    0.05236426066283116    0.050773652746833216    0.052364776984138134    
  0.05637121039963463    0.06056644031882523    0.062017193962640896    0.058663393029810475    0.05058747974604106    
  0.03999545299405137    0.029692799873755286    0.021503268037889437    0.015908461998803858    0.0125198495734765    
  0.01070019401108138    0.009914001028883151    0.009742280468053546    0.009868631022150517    0.010068065164552222    
  0.010210687031115417    0.01027019139885467    0.010280793220758762    0.010277709924288081    0.010280797654468054    
  0.01027016252746853    0.01021066621002128    0.010067974175376141    0.009868610852548313    0.009742169557094577    
  0.009913973721706701    0.010700027073108213    0.012519752952079103    0.015908123837149134    0.017874612641249434    
  0.02533596912159132    0.0364600242455101    0.050709455657292145    0.06558283510190331    0.07703415764944459    
  0.08179866541110829    0.07965101556934212    0.07360123680691925    0.06787660504279193    0.06561612147154494    
  0.06787728518615692    0.07360255746959002    0.07965292833250459    0.08180077050221352    0.0770363921089086    
  0.06558458747987339    0.05071087264450524    0.03646077060633707    0.025336544388711375    0.017874826901667692    
  0.013411055515251954    0.010989792134816068    0.009852485460066373    0.009480687498733655    0.009509313766871256    
  0.009687398282318222    0.009856064452194667    0.009959680448763721    0.010010143366136894    0.01002530977581769    
  0.010010131739810663    0.009959666544619215    0.00985600549242706    0.00968738526152623    0.009509231786196745    
  0.009480679096083999    0.009852371019487173    0.01098973487074249    0.013410814717905738    0.017874612641249434    
  0.019455106162175873    0.028187013327230007    0.041442993851577306    0.058713236672516024    0.07696555482435428    
  0.09114257858967773    0.09712809411315917    0.09457272163530106    0.08714243093152854    0.08010571188970611    
  0.07733511499728729    0.08010641612608405    0.08714394198557764    0.09457467352235861    0.09713049970613169    
  0.09114485113006271    0.07696767197859557    0.05871453465204745    0.041443988517604155    0.02818742801104626    
  0.019455468499489672    0.014326552766717184    0.011591323247548108    0.010336296953103792    0.00994951100527989    
  0.01000808158407437    0.010221878111394272    0.010418766747624167    0.010534136822131434    0.010586064165477499    
  0.0105997956709808    0.01058605862632222    0.010534103149558072    0.010418772782417807    0.010221802521645233    
  0.01000808045148669    0.009949446484678721    0.010336302325836242    0.011591186397642063    0.014326452448149209    
  0.019455106162175873    0.02023448000373626    0.029169163447639458    0.04293724324043215    0.061081777303518756    
  0.08044488945860133    0.0956346729067884    0.10220728811393649    0.09973009104294941    0.091976635593403    
  0.08457855947326222    0.08166392465140644    0.08457922133880516    0.09197795013543919    0.09973199474044346    
  0.10220932302487376    0.09563692803958163    0.08044660733425614    0.061083150200842984    0.04293795018641945    
  0.029169700069419147    0.020234655810411492    0.015094226497789463    0.012464221009002456    0.011389273323335725    
  0.011215399837552702    0.011457655179623952    0.011784936389896776    0.012011421683176732    0.012096829069283808    
  0.012100546936450627    0.012092930851864601    0.012100527812543107    0.012096835980540573    0.012011367020061071    
  0.011784950670286124    0.011457569714561537    0.01121541491510572    0.01138916392923372    0.012464188120685855    
  0.015093989044217545    0.02023448000373626    0.020152616970371812    0.028080081989298986    0.04046655951867102    
  0.0569036878776019    0.07459595140260619    0.08868636198088062    0.09499944520468025    0.0930034978310336    
  0.08611836833287875    0.07944838655163226    0.07680700859007648    0.07944880515620573    0.08611938123585693    
  0.0930048008634551    0.09500107077183238    0.08868788939617107    0.07459743202179855    0.05690453898845524    
  0.04046727522340405    0.02808032557849742    0.02015291226132969    0.015755490978111797    0.013738766278188094    
  0.013231389768821291    0.013576388985487645    0.014231253253771815    0.014790630175361905    0.015046681075841095    
  0.015022947876625023    0.014897945349374522    0.014835358851992412    0.014897940725366102    0.015022924223849982    
  0.015046668206452897    0.014790542706863734    0.01423125588132221    0.013576285831570755    0.013231379449544008    
  0.0137386005003165    0.01575542531138078    0.020152616970371812    0.019555813635924613    0.02552585084660391    
  0.0351271143371111    0.048002036855255295    0.061978567122301355    0.07329585243247648    0.07860041560187905    
  0.07734228235915355    0.07216314068908948    0.06701392182897446    0.06493974920662443    0.0670142602580033    
  0.07216370900677785    0.07734327245065586    0.07860135666805357    0.07329694409160827    0.061979349065118185    
  0.04800274092039453    0.03512740168270428    0.025526176623916704    0.01955590603075179    0.016560416985158533    