#     DFTpy    
  CRYSTAL 
    
  PRIMVEC    
  1.6446165252201115    -2.848559380648615    0.0    
  1.6446165252201115    2.848559380648615    0.0    
  0.0    0.0    3.0956999929655162    
  PRIMCOORD    
  1    1    
  Si    0.0    0.0    0.0    
  BEGIN_BLOCK_DATAGRID_3D    
  3d_datagrid_density    
  BEGIN_DATAGRID_3D#0    
  15    15    15    
  0.0    0.0    0.0    
  1.6446165252201115    -2.848559380648615    0.0    
  1.6446165252201115    2.848559380648615    0.0    
  0.0    0.0    3.0956999929655162    
  0.07729103520063443    0.13432335048299135    0.3149889182094554    0.4258922858206348    0.3263113547535074    
  0.19655652849424346    0.1248525619214321    0.10432247805241254    0.12485258512791306    0.19655651893457476    
  0.32631132601928226    0.4258922981073218    0.3149888732392004    0.13432338026522483    0.07729103520063443    
  0.13432334473020321    0.13427407516464565    0.25973929391048955    0.4132862295893107    0.3796634683034618    
  0.24375520366756942    0.14684913675664302    0.10534530459090899    0.1053585868147286    0.14683291775101448    
  0.24378069488516652    0.3796486137402201    0.4132155139256301    0.25978031226981185    0.13432334473020321    
  0.31498890437940885    0.25973926725207397    0.3151211826372953    0.41322728899220657    0.39519825268768327    
  0.27178067207333484    0.1645294409289105    0.10785675821204316    0.09138553158251325    0.10785567005778535    
  0.16453097951569903    0.27175580017707246    0.39529936749483024    0.41321558329255137    0.31498890437940885    
  0.42589229263069506    0.41328625436714095    0.41322726692132056    0.42581080235307167    0.37962171014816626    
  0.27184516603858255    0.17116123056598004    0.10996435314943011    0.08348673922486181    0.08350239714396149    
  0.10994719931417657    0.17119689433520216    0.2717557784373133    0.37964865692203975    0.42589229263069506    
  0.3263113303918691    0.3796634391537106    0.3951982360157938    0.37962163325900894    0.3264121846045295    
  0.24378075625418164    0.16448317975787974    0.10995787888921214    0.08103787779905623    0.07222841631445312    
  0.08103833498100788    0.10994721062757666    0.16453096235075582    0.24378069003819006    0.3263113303918691    
  0.19655649442316814    0.2437552046717812    0.2717806643760017    0.2718451863108302    0.24378079913567358    
  0.19647090103438594    0.14683372809916986    0.10789551629017535    0.08349082124899944    0.07223329240413051    
  0.07222840872117607    0.08350239177041652    0.10785564461988346    0.14683290112612077    0.19655649442316814    
  0.12485255322179084    0.14684913781982872    0.1645294489795164    0.17116122472968096    0.1644831806691137    
  0.14683372911073708    0.12492580188947774    0.10534998051344967    0.09135521183733615    0.08349080711884294    
  0.08103786471129847    0.08348674312455419    0.09138551633550876    0.10535857311320178    0.12485255322179084    
  0.10432248134741709    0.10534528965501741    0.10785677829303993    0.10996436657784792    0.1099578910735072    
  0.10789554423292286    0.10534998074060214    0.1042611186885645    0.10534999127072507    0.1078955316611987    
  0.10995786987494134    0.10996436754599326    0.10785676662309046    0.10534532126453666    0.10432248134741709    
  0.12485257307848983    0.10535857859250353    0.09138553389649985    0.08348672585350174    0.0810378784825567    
  0.08349081673396963    0.09135518394731834    0.10534998908431965    0.12492581900434882    0.14683373118531287    
  0.16448318217307575    0.17116123383296672    0.16452942624567432    0.1468491745422942    0.12485257307848983    
  0.19655650617071826    0.14683291770744825    0.10785566983445811    0.0835023957053692    0.0722284144994989    
  0.07223328056024704    0.08349079678750873    0.1078955259606185    0.1468337445150517    0.1964709152737718    
  0.2437807675960301    0.2718451567100591    0.2717806509490879    0.2437551883653593    0.19655650617071826    
  0.326311307417917    0.24378068996243113    0.1645309701368096    0.1099471957668512    0.08103834839042748    
  0.07222841456197787    0.08103786463761462    0.10995787596617093    0.16448318705906007    0.2437807673239614    
  0.3264121781084242    0.37962170598820966    0.3951982526213588    0.3796635337362758    0.326311307417917    
  0.4258923003406523    0.3796485832803606    0.27175579873241307    0.17119687395437386    0.10994718208845805    
  0.08350240004266553    0.08348672220350288    0.10996435782717051    0.17116122812027754    0.27184517216386106    
  0.379621689705287    0.4258107726242351    0.4132272641091421    0.4132862767160422    0.4258923003406523    
  0.31498886404404386    0.4132156296277869    0.39529936515658354    0.27175578401822853    0.16453100151297828    
  0.10785565550419575    0.09138552245495918    0.10785675275245278    0.16452946320121034    0.27178071303251955    
  0.39519828933272466    0.4132272742554945    0.31512111116048525    0.2597392828421389    0.31498886404404386    
  0.1343233576693783    0.25978029354950827    0.41321561465475826    0.3796485857807465    0.24378064714130648    
  0.1468329199910031    0.10535856940964473    0.1053453021058944    0.14684917034766604    0.24375520436623302    
  0.37966351591925807    0.4132862618472226    0.25973929679553204    0.13427404024514245    0.1343233576693783    
  0.07729103520063443    0.13432335048299135    0.3149889182094554    0.4258922858206348    0.3263113547535074    
  0.19655652849424346    0.1248525619214321    0.10432247805241254    0.12485258512791306    0.19655651893457476    
  0.32631132601928226    0.4258922981073218    0.3149888732392004    0.13432338026522483    0.07729103520063443    
  0.1269189708316542    0.18990534500090367    0.3543872449512665    0.4206059761442899    0.3090501498901124    
  0.18588995575251177    0.11911744594686449    0.09993821012298439    0.1191174696155224    0.1858899297761763    
  0.30905015143353104    0.4206059716424271    0.3543872009482712    0.1899053648663745    0.1269189708316542    
  0.1899053339182178    0.18982976979247254    0.3084869147051259    0.42222848180128675    0.36302443388243977    
  0.23016629357760257    0.13958274122647574    0.10089994276865254    0.10090873772772871    0.13957138493583898    
  0.23018501316868537    0.3630086902417321    0.4221845842004233    0.30850384058181646    0.1899053339182178    
  0.35438722492911273    0.30848688503575095    0.3545265165157318    0.42217197576496546    0.3800570304874939    
  0.25681295060627574    0.15603027557786783    0.10320621884093452    0.08780279477659393    0.10320735054894208    
  0.15602714379878554    0.2568056886410514    0.3801165961566237    0.42218465957990253    0.35438722492911273    
  0.42060597031948155    0.4222284925259768    0.42217196905381404    0.42052901832865075    0.3629939901398254    
  0.2568680188326075    0.16221609684377444    0.10511675538934463    0.08036319831478657    0.0803713400742194    
  0.10510757547713502    0.16223688574598655    0.2568056702295319    0.363008723058209    0.42060597031948155    
  0.309050098898213    0.3630244679617313    0.38005704786495015    0.3629939564772414    0.3091412723220088    
  0.23017986400401186    0.15599264519346767    0.10511364537462384    0.07804184412617239    0.06977346186410793    
  0.07804175801345922    0.10510759043127915    0.15602712359093873    0.2301850167098436    0.309050098898213    
  0.18588992769297263    0.23016629832631427    0.25681295847781543    0.2568680291341846    0.23017987116329577    
  0.18581714940565494    0.13957596421353552    0.10323500641764874    0.08036550773879554    0.06977509569038017    
  0.0697734499904502    0.0803713237630617    0.10320732516910741    0.1395713630348837    0.18588992769297263    
  0.11911743555627374    0.13958275267530718    0.15603029975457636    0.16221608919172728    0.15599264206775185    
  0.13957596025090338    0.11917528653356169    0.10090263263446916    0.08777976924767439    0.08036549307423627    
  0.07804182796868978    0.08036321629193839    0.08780277530124665    0.10090872542459296    0.11911743555627374    
  0.09993820946436503    0.1008999282583024    0.10320622451402803    0.10511675611075211    0.10511366158306343    
  0.1032350307575645    0.10090262112395786    0.09988856778170745    0.10090264015858527    0.10323501498841574    
  0.10511364988895544    0.10511674049440488    0.10320620872935668    0.1008999544479654    0.09993820946436503    
  0.11911745014968703    0.10090872115460471    0.08780279857937917    0.08036319728968107    0.07804183841286198    
  0.08036551273618874    0.08777975431268528    0.10090264931323689    0.11917530080573448    0.13957595510827275    
  0.15599264907089674    0.16221608678979754    0.15603027109137582    0.13958277708624078    0.11911745014968703    
  0.18588990586062693    0.13957137749615317    0.10320734011719908    0.08037134304460307    0.06977346571865536    
  0.06977508931243509    0.08036549118441769    0.10323501120914008    0.1395759749870176    0.18581717303028603    
  0.23017983944274176    0.25686800263457193    0.2568129120768859    0.23016628720102134    0.18588990586062693    
  0.3090501433363311    0.23018500766177302    0.15602714679068072    0.10510757635053003    0.0780417568242847    
  0.0697734581230896    0.07804182670444815    0.10511364664474412    0.15599264687151995    0.23017986153950332    
  0.30914127276617404    0.3629939892062215    0.3800570520053611    0.36302451416382475    0.3090501433363311    
  0.42060597531419197    0.363008678112251    0.2568056872799243    0.1622368800216913    0.1051075663307854    
  0.08037134099418689    0.08036319222694202    0.10511674613537456    0.162216111863472    0.2568680349108878    
  0.3629939781882204    0.420529016538287    0.4221719542250592    0.4222285343188752    0.42060597531419197    
  0.3543872226796538    0.42218465732752997    0.3801165764846239    0.25680566835550084    0.15602716488966403    
  0.1032073365368323    0.08780277571990999    0.10320620275969611    0.15603029155852507    0.2568129823950757    
  0.3800570815537065    0.4221719492170919    0.3545264717882795    0.30848688649054046    0.3543872226796538    
  0.1899053637555003    0.3085038179401134    0.42218462176644084    0.3630086722407981    0.23018498471053833    
  0.1395713902319539    0.10090872795913118    0.10089993043734787    0.13958276549312312    0.23016628264006664    
  0.3630245167029778    0.4222285288977678    0.30848689205266516    0.18982974536337274    0.1899053637555003    
  0.1269189708316542    0.18990534500090367    0.3543872449512665    0.4206059761442899    0.3090501498901124    
  0.18588995575251177    0.11911744594686449    0.09993821012298439    0.1191174696155224    0.1858899297761763    
  0.30905015143353104    0.4206059716424271    0.3543872009482712    0.1899053648663745    0.1269189708316542    
  0.2889284930113492    0.338632438047531    0.4177181692878723    0.38471461728793294    0.26156093700912575    
  0.15823112373770507    0.10399189626160514    0.0882350881454619    0.10399190508488075    0.15823111604415346    
  0.261560955837573    0.3847145789401206    0.4177181371018808    0.33863245355213273    0.2889284930113492    
  0.338632404820641    0.33855210682076964    0.4027303388317525    0.41256461092059143    0.31211053096890506    
  0.1945286810609365    0.12062658474080934    0.08903440184498003    0.08904202649431099    0.12061700330069645    
  0.1945421810277568    0.3120969418128443    0.41255567200871596    0.4027212724450651    0.338632404820641    
  0.41771816215617863    0.40273033635848077    0.41780820893095527    0.4125412330568366    0.3300351189573537    
  0.21684953331077123    0.13395208989231328    0.09090957137536348    0.07819522432683855    0.09091040557298641    
  0.1339511402500263    0.21684558168371615    0.33005799340555564    0.41255581121210483    0.41771816215617863    
  0.38471462584100313    0.41256464698230105    0.4125412434726001    0.3846618251728772    0.31210162543174236    
  0.21686745840434485    0.13899803500250324    0.09243479199286918    0.07203170664987812    0.07203474305620956    
  0.09243068552824962    0.13900682020309946    0.2168455663875525    0.3120970025825992    0.38471462584100313    
  0.26156092058927183    0.3121105261608422    0.3300351065607086    0.3121015919732743    0.26160976839761807    
  0.19453146701635135    0.13394136169599655    0.09243256933749942    0.07010310624364607    0.06321970014850008    
  0.07010327032445486    0.09243069197933121    0.13395112907127288    0.19454219785126214    0.26156092058927183    
  0.15823110966832174    0.19452868211595203    0.2168495117671933    0.2168674886059662    0.1945314775562702    
  0.1581963844379526    0.12062309626926139    0.09091821480060781    0.07203362732213042    0.06321908364763001    
  0.06321969152743047    0.07203472515947888    0.09091038574489549    0.12061699550567054    0.15823110966832174    
  0.10399189247049748    0.12062660536654607    0.1339521038872896    0.13899802450748258    0.13394137011940058    
  0.12062310959269111    0.10401924525281159    0.08903781397471729    0.07818721537391113    0.07203361681125987    
  0.07010310233930571    0.07203170444326651    0.07819520150969421    0.0890420179141397    0.10399189247049748    
  0.08823508222603967    0.08903439381585875    0.09090959110357999    0.0924347981694124    0.09243257737952713    
  0.090918237326853    0.08903780958633718    0.0882100746537078    0.08903782408970387    0.09091822430190888    
  0.0924325712559284    0.09243478597008598    0.090909582796354    0.08903441473268155    0.08823508222603967    
  0.10399189149677225    0.08904201552876939    0.07819521569282743    0.07203169979900276    0.07010310862389493    
  0.07203362409856857    0.07818718688395065    0.08903781831811537    0.10401926032551233    0.12062309649513972    
  0.13394137888082086    0.13899802211499115    0.13395208092604963    0.1206266119074219    0.10399189149677225    
  0.15823110310976507    0.12061701804705513    0.09091040764043803    0.07203475240760261    0.0632196978108511    
  0.0632190738044987    0.07203361490924404    0.0909182224129079    0.12062309466669409    0.15819641026883524    
  0.1945314917773735    0.21686747721595684    0.21684950568148997    0.19452867314651393    0.15823110310976507    
  0.261560892948754    0.1945421664324496    0.1339511298747846    0.09243067765472474    0.07010327074434548    
  0.0632196916710107    0.07010309656322984    0.09243256903877008    0.1339413719592394    0.19453148774933302    
  0.26160980197826483    0.31210163411187447    0.33003511632226434    0.31211057041399615    0.261560892948754    
  0.3847145862692949    0.3120969471070147    0.21684559880367818    0.13900681064740972    0.0924306724796804    
  0.07203475265964535    0.07203169248015417    0.09243478132549127    0.13899803502784502    0.21686749125201807    
  0.312101587181629    0.38466185243321455    0.4125411737077708    0.4125647076733395    0.3847145862692949    
  0.4177181391303715    0.4125557720104502    0.3300579951439697    0.21684557243860753    0.13395115809022368    
  0.09091040021986979    0.07819520670527359    0.09090956382265658    0.13395210272979874    0.21684953356897377    
  0.3300351286181701    0.4125411841143997    0.4178081727356725    0.40273030534944937    0.4177181391303715    
  0.33863245598858577    0.4027213138358306    0.41255575720918136    0.31209692844743214    0.19454216608081173    
  0.12061702156252911    0.08904200248037313    0.08903439310243769    0.12062661103956954    0.19452866963353269    
  0.3121105373153394    0.4125646731256989    0.4027303179078219    0.33855206241127794    0.33863245598858577    
  0.2889284930113492    0.338632438047531    0.4177181692878723    0.38471461728793294    0.26156093700912575    
  0.15823112373770507    0.10399189626160514    0.0882350881454619    0.10399190508488075    0.15823111604415346    
  0.261560955837573    0.3847145789401206    0.4177181371018808    0.33863245355213273    0.2889284930113492    
  0.4207614524847335    0.4227504680992811    0.39322024335998873    0.30323530132850657    0.19818601421807355    
  0.12346636222173375    0.08462058668580029    0.0730866689981738    0.08462060099865536    0.1234663591562986    
  0.19818598168390703    0.30323530413824273    0.3932202086242932    0.42275047167939067    0.4207614524847335    
  0.42275042698118337    0.42272737443199715    0.40724501877790314    0.33999498905012554    0.2371436895776014    
  0.14936628338261432    0.0966088921420858    0.07369207844079956    0.07369290236714082    0.09660803791456872    
  0.14936798568062476    0.23714066398803801    0.33999858768565716    0.40723491436630677    0.42275042698118337    
  0.39322023253866567    0.4072450019260571    0.39323765309565684    0.3399906934978864    0.25180653328890995    
  0.16538496455232227    0.10615131602563697    0.07507504856299947    0.06569355233351576    0.07507510812696516    
  0.10615051935698898    0.16538635784940328    0.25180418764890333    0.3399986709357845    0.39322023253866567    
  0.30323533356546073    0.3399950070184248    0.339990659009208    0.30322795941904135    0.23714387776517196    
  0.16538533400402208    0.10976824558375145    0.07619572047857325    0.06115582819139347    0.061155785908280955    
  0.07619610006081935    0.10976798292432219    0.16538637290590166    0.23714073753129794    0.30323533356546073    
  0.19818598018523073    0.2371436590033084    0.25180652874966625    0.23714385107502714    0.1981906584746487    
  0.14936668205657005    0.10615102490738873    0.07619595942390892    0.059746911437834005    0.05460590055584888    
  0.059746797318380715    0.07619610687695098    0.10615052100178182    0.1493680063027676    0.19818598018523073    
  0.12346635159842485    0.14936626547583978    0.16538496270550668    0.16538536797837883    0.14936669645905998    
  0.12346263553327799    0.0966078430365327    0.07507580603571029    0.06115480373605143    0.05460706188851704    
  0.05460589030199038    0.06115576762399569    0.07507508938430933    0.09660804531363766    0.12346635159842485    
  0.08462058444949679    0.09660890746582368    0.10615132330084809    0.10976823096438787    0.1061510250919908    
  0.09660785064772019    0.08462503097208698    0.07369134466098018    0.0656947139627054    0.061154786460787036    
  0.05974690986777583    0.06115582218933571    0.06569353638893226    0.07369289695871953    0.08462058444949679    
  0.07308665585559072    0.07369207915178856    0.07507506640010768    0.07619573193226557    0.07619597843141548    
  0.07507582477956443    0.07369134385318007    0.07308453743186479    0.07369134905349992    0.07507582538792877    
  0.07619595962147757    0.07619572642308405    0.07507506275735906    0.0736921036292622    0.07308665585559072    
  0.08462059253776702    0.07369289653155062    0.06569355554562288    0.061155813075242565    0.05974691094769465    
  0.06115480208049503    0.0656946937829181    0.07369135190994273    0.08462503265011302    0.0966078465159453    
  0.10615104079683585    0.10976823323998573    0.10615131631961028    0.09660890783483127    0.08462059253776702    
  0.12346635148504631    0.09660803663453336    0.07507510609024062    0.06115579105953155    0.054605900455361005    
  0.05460707085123076    0.061154791367494604    0.07507581998966559    0.09660784925086847    0.12346265904422275    
  0.14936670344847278    0.16538531237164011    0.16538496744229528    0.14936627922239124    0.12346635148504631    
  0.19818595466808048    0.1493679891962829    0.10615051814461969    0.07619610010128343    0.05974679524291404    
  0.05460589258352627    0.059746896932323386    0.07619596552677516    0.10615102810508463    0.14936669526326513    
  0.19819066310917147    0.2371438732026565    0.2518065410336989    0.23714369501775615    0.19818595466808048    
  0.3032352763192531    0.23714067338846068    0.16538639787170165    0.10976796756543968    0.0761960920782278    
  0.06115579060422229    0.06115580502169159    0.07619572589638977    0.1097682475698376    0.16538534201124935    
  0.23714386176076047    0.30322792190291875    0.3399906552301604    0.3399950456441509    0.3032352763192531    
  0.393220216483839    0.33999863803405994    0.2518041878854388    0.16538639101737154    0.10615054081741057    
  0.07507509821835112    0.06569354636819126    0.07507505575155991    0.10615132385334884    0.16538498212956332    
  0.25180654851783313    0.3399906706186673    0.39323757463476744    0.40724499395324154    0.393220216483839    
  0.422750513692943    0.40723493633638636    0.3399986454815013    0.23714070422206854    0.14936797782113326    
  0.09660804612077735    0.07369287831475076    0.07369207845515918    0.09660891283353171    0.1493662784849859    
  0.23714371059015596    0.3399950100386193    0.40724498163093414    0.4227273493069837    0.422750513692943    
  0.4207614524847335    0.4227504680992811    0.39322024335998873    0.30323530132850657    0.19818601421807355    
  0.12346636222173375    0.08462058668580029    0.0730866689981738    0.08462060099865536    0.1234663591562986    
  0.19818598168390703    0.30323530413824273    0.3932202086242932    0.42275047167939067    0.4207614524847335    
  0.3608169963866227    0.341790438491612    0.28580006957727183    0.2089681711425667    0.1390538421147987    
  0.09152313026651943    0.0663310505695057    0.05866792129483528    0.06633105934956599    0.09152312413216386    
  0.1390538431634059    0.20896816231503057    0.28580005112795986    0.34179046054222467    0.3608169963866227    
  0.34179039617371604    0.3417891836329462    0.3038561383786455    0.23656317150831885    0.16413162843009965    
  0.10806566947205934    0.07420056079008815    0.059085823017432905    0.05908644999458107    0.0742005024824093    
  0.10806536872132098    0.16413151571882947    0.23656214279273824    0.3038563177383705    0.34179039617371604    
  0.2858000541379922    0.30385612026526    0.2858027315581234    0.23656003928770739    0.17374140980155087    
  0.11827839357947349    0.08042701800967705    0.060011344275376265    0.053710831775735254    0.06001077240502386    
  0.08042730833383752    0.11827899956077123    0.17374150758034967    0.2365622096221377    0.2858000541379922    
  0.2089681721761417    0.23656321122882087    0.236560014955852    0.2089685498040355    0.16413358224354133    
  0.11827871386204278    0.08278178781264721    0.060740538440942626    0.05060763852491905    0.05060744425223736    
  0.060741346157703054    0.08278053533455168    0.11827899625272181    0.16413155188817657    0.2089681721761417    
  0.13905382681286757    0.16413161837253212    0.17374141334741894    0.1641335897243945    0.13905197083680126    
  0.10806468800053422    0.08042658269216871    0.06074119105507395    0.04963444523952367    0.04611499371646923    
  0.04963420593016583    0.060741344263756096    0.08042730759735564    0.10806538165816094    0.13905382681286757    
  0.09152310975480117    0.10806564506042585    0.11827836890372588    0.11827873364377331    0.10806469574480003    
  0.09152469222774684    0.07420133896462865    0.0600110088823765    0.0506073423301577    0.046115146567958946    
  0.046114989523740824    0.050607432826221134    0.060010757430297025    0.0742005116528165    0.09152310975480117    
  0.0663310458066891    0.07420058283986249    0.08042701309233706    0.08278177566811977    0.08042658868007833    
  0.07420134447983762    0.06632897917356045    0.05908587647362449    0.05371109588915362    0.05060733001688323    
  0.04963444498796968    0.05060762466005503    0.05371081450361585    0.059086444107411734    0.0663310458066891    
  0.058667910430705045    0.05908583190033527    0.060011356237289974    0.060740547648464274    0.060741200212813005    
  0.060011023642657806    0.059085878451582245    0.058670008385365235    0.059085886133846195    0.06001102456307899    
  0.06074118655571291    0.06074054088301845    0.06001135822451207    0.05908584620926781    0.058667910430705045    
  0.06633104802843404    0.0590864393841315    0.05371082547439787    0.05060762279105446    0.049634447187342425    
  0.050607334759685985    0.05371107802997607    0.05908588638701089    0.06632898423722278    0.07420133606525842    
  0.08042659870794783    0.08278177563582635    0.08042701488222968    0.07420057710324175    0.06633104802843404    
  0.09152311518256034    0.0742004951861544    0.06001077043492731    0.05060745099583574    0.04611499737034603    
  0.04611515576603322    0.0506073278440183    0.06001102039614896    0.07420133907532189    0.09152470330572798    
  0.1080647048448994    0.11827870734199454    0.11827838071669489    0.10806565542008774    0.09152311518256034    
  0.13905381926482094    0.1080653681615154    0.08042731056721085    0.060741347207303016    0.04963420823796586    
  0.04611498749938145    0.04963443426961578    0.06074119616359339    0.08042659056070928    0.10806469011022095    
  0.1390519780013228    0.1641335831252645    0.17374141339387944    0.16413165178444533    0.13905381926482094    
  0.2089681391574852    0.16413153496424746    0.11827900944269353    0.08278052944780841    0.060741341975360574    
  0.05060745394628219    0.0506076194072268    0.060740539564354386    0.0827817946888358    0.11827871889805608    
  0.16413357974615672    0.20896853220295744    0.2365600156956594    0.23656323661278297    0.2089681391574852    
  0.2858000701295631    0.23656217877755945    0.17374150850226877    0.11827900233347749    0.08042731814698713    
  0.060010769899276124    0.053710824033003146    0.06001134400752901    0.08042702381085942    0.11827840680462597    
  0.17374142196415895    0.2365600259793045    0.28580264341363526    0.30385612868705786    0.2858000701295631    
  0.34179045468433883    0.30385632542060587    0.23656218036107965    0.16413152922869106    0.10806535025909743    
  0.07420050562280292    0.05908642546743311    0.05908582583396146    0.07420057971736232    0.10806565711297213    
  0.16413165310984623    0.23656320959163601    0.30385610648890116    0.34178914812146444    0.34179045468433883    
  0.3608169963866227    0.341790438491612    0.28580006957727183    0.2089681711425667    0.1390538421147987    
  0.09152313026651943    0.0663310505695057    0.05866792129483528    0.06633105934956599    0.09152312413216386    
  0.1390538431634059    0.20896816231503057    0.28580005112795986    0.34179046054222467    0.3608169963866227    
  0.2385067969984013    0.22374927158955837    0.1853815269542712    0.13828274021055087    0.0969275832140964    
  0.06824146018767252    0.052480352494317234    0.04756662028970046    0.05248036325817398    0.06824145498933014    
  0.09692760122174546    0.13828273213505962    0.18538150352297925    0.22374928844507558    0.2385067969984013    
  0.22374924997666248    0.22374760488355225    0.1971994274238849    0.15485878003984266    0.1118316624935145    
  0.07837167976960527    0.05747060848686873    0.04784785879992302    0.04784886992588178    0.05746951522777157    
  0.07837210807182073    0.11183130696694865    0.15485793925978358    0.19719953372361396    0.22374924997666248    
  0.1853815082984748    0.1971994319094497    0.18538304395746458    0.15485826862027263    0.11756887477911854    
  0.0846248379561313    0.06141071452411871    0.0484552996417492    0.04438257193791675    0.04845528612713217    
  0.06141165101719582    0.08462407731563266    0.11757090660266938    0.1548579996832219    0.1853815082984748    
  0.13828274216539807    0.1548588006449381    0.154858274799158    0.13828161426736552    0.11183201918629851    
  0.08462573478742665    0.06291202734393461    0.04891886443980768    0.042325236752230974    0.04232556443806836    
  0.04891767320664363    0.06291267543923267    0.08462408005691836    0.11183133330856342    0.13828274216539807    
  0.09692757584149402    0.11183166692892779    0.11756887329701263    0.1118320144350372    0.09692844877210087    
  0.07837026983747118    0.06141131679245203    0.04891747987747372    0.04165591281005329    0.03932071738689457    
  0.04165663973927244    0.04891767581284536    0.06141165081087422    0.07837213111312297    0.09692757584149402    
  0.06824145867705132    0.07837168435462552    0.08462482287529366    0.0846257528327552    0.07837027684940241    
  0.06824293911406806    0.05746968693148164    0.048456148045971516    0.04232590455538354    0.039320911787551885    
  0.0393207186040719    0.04232554989529353    0.048455276439130134    0.0574695113926684    0.06824145867705132    
  0.05248035331355538    0.057470618817976354    0.061410716438195866    0.06291202867062018    0.06141131933296568    
  0.05746970259198381    0.05247994127481244    0.04784889169762818    0.04438091896879115    0.04232589061608579    
  0.041655911348022594    0.04232522992754486    0.04438255374774199    0.04784886169922304    0.05248035331355538    
  0.047566609106843245    0.0478478593567234    0.048455312771111675    0.04891887135175263    0.04891748685139894    
  0.04845616987307192    0.047848883810127016    0.047566149765623865    0.04784889272078644    0.048456157995354056    
  0.04891748148063069    0.04891885921343198    0.04845531675794681    0.04784787615010138    0.047566609106843245    
  0.05248035201854779    0.04784885800847694    0.0443825614671085    0.042325233141821364    0.04165590759045374    
  0.04232589746670456    0.04438089700298912    0.04784889582214141    0.052479950888388575    0.05746969355250903    
  0.06141132696658405    0.06291202091341488    0.06141071151752988    0.05747062460250726    0.05248035201854779    