#     DFTpy    
  CRYSTAL 
    
  PRIMVEC    
  4.456344827586207    0.0    0.0    
  0.0    4.456344827586207    0.0    
  0.0    0.0    4.456344827586207    
  PRIMCOORD    
  8    1    
  Si    0.0    0.0    0.0    
  Si    1.1140862068965518    1.1140862068965518    1.1140862068965518    
  Si    0.0    2.2281724137931036    2.2281724137931036    
  Si    1.1140862068965518    3.3422586206896554    3.3422586206896554    
  Si    2.2281724137931036    0.0    2.2281724137931036    
  Si    3.3422586206896554    1.1140862068965518    3.3422586206896554    
  Si    2.2281724137931036    2.2281724137931036    0.0    
  Si    3.3422586206896554    3.3422586206896554    1.1140862068965518    
  BEGIN_BLOCK_DATAGRID_3D    
  3d_datagrid_density    
  BEGIN_DATAGRID_3D#0    
  19    19    19    
  0.0    0.0    0.0    
  4.456344827586207    0.0    0.0    
  0.0    4.456344827586207    0.0    
  0.0    0.0    4.456344827586207    
  0.05283706112084165    0.10914823541761746    0.32533139674733824    0.5147098223619739    0.45550864817795417    
  0.3158258136347767    0.21193392703347672    0.15185097059644814    0.12273517240028198    0.11436391323310238    
  0.12273516601798426    0.1518509449572467    0.21193394838480453    0.3158257807217381    0.4555085289265866    
  0.5147098493289647    0.32533142691908506    0.10914824084735125    0.05283706112084165    0.109148256847901    
  0.1803930504114121    0.39506574979718223    0.5359881788987029    0.4577595548884778    0.3208613233449944    
  0.21973609231152225    0.16046732606574038    0.13125944321617802    0.12273513639134055    0.1312594242320208    
  0.160467353125234    0.21973609347207962    0.32086127559713956    0.4577596505891703    0.5359882615280435    
  0.39506576040597746    0.1803930349233777    0.109148256847901    0.3253314126649162    0.3950657289870318    
  0.5311463221744593    0.556965410801554    0.4544779223478886    0.33286870888722014    0.24329022918635249    
  0.18863625760598485    0.1604673648554001    0.15185096737931061    0.16046738338844738    0.18863619485051406    
  0.24329022014261423    0.3328686777997069    0.4544779326518508    0.5569653771130246    0.5311462931223315    
  0.39506574884726375    0.3253314126649162    0.5147098628051563    0.5359881653432071    0.5569653706625144    
  0.5184811549218021    0.4339648898115273    0.34941237039466094    0.2853934827884826    0.24329029582601572    
  0.219736087772861    0.21193393659168755    0.21973612344792215    0.2432901993946206    0.2853934801758471    
  0.34941236798683234    0.43396491082802036    0.5184810933799383    0.5569655059331828    0.535988164681309    
  0.5147098628051563    0.455508620023143    0.45775952316926655    0.45447796452349376    0.4339648578684331    
  0.401281739969262    0.371338704603946    0.3494122764028793    0.3328687310213235    0.32086132109402177    
  0.315825761375397    0.32086134268122296    0.3328687332083204    0.34941234532487925    0.37133866174946434    
  0.40128169047975026    0.4339648476665935    0.45447791949973654    0.4577595311015826    0.455508620023143    
  0.31582581481057154    0.3208613348142918    0.33286874430199614    0.34941230386156    0.3713386669943008    
  0.40128171336123974    0.4339648970861658    0.4544780015005153    0.45775961007897903    0.4555085056361461    
  0.45775955370095206    0.45447798676750295    0.4339649112586759    0.40128161049547106    0.3713386822114021    
  0.3494123487331082    0.33286872297505066    0.3208613515992333    0.31582581481057154    0.21193393617363493    
  0.21973608866826663    0.24329024747234432    0.2853935270556578    0.3494123579438701    0.4339648543025991    
  0.518481126080433    0.5569653651208412    0.5359882209434007    0.5147097978226441    0.5359882656431897    
  0.5569653374577783    0.5184812287706668    0.43396486506381515    0.349412343227542    0.28539346870422966    
  0.24329027894381347    0.21973607814572824    0.21193393617363493    0.151850978213447    0.16046734770256532    
  0.1886362107608271    0.24329020650199332    0.33286870325664936    0.45447802915507424    0.5569653465350084    
  0.531146362040593    0.39506574388192933    0.32533131499216283    0.3950657655275893    0.5311463078227505    
  0.5569653839225192    0.4544779982503957    0.3328687395879859    0.243290245888687    0.1886362196241208    
  0.16046733761108825    0.151850978213447    0.1227351808183229    0.13125942992742182    0.1604673477835675    
  0.2197360924910363    0.320861347180114    0.4577595379227417    0.5359882080705003    0.3950658249607357    
  0.18039304693262662    0.10914824359701016    0.18039308091107958    0.3950657851198326    0.5359881457731932    
  0.45775957409564516    0.3208613643117938    0.21973611094510004    0.160467362555465    0.13125943285586997    
  0.1227351808183229    0.11436391782001785    0.12273516614675015    0.15185097045277868    0.2119339457192562    
  0.31582582859626207    0.45550857250301713    0.514709778559763    0.32533142089025313    0.10914823716171303    
  0.052837048879786866    0.10914824248785412    0.3253313489140653    0.51470991470305    0.455508576799266    
  0.3158257840230676    0.21193394823343956    0.15185095872652826    0.12273517731603253    0.11436391782001785    
  0.12273515941091566    0.13125942994113624    0.16046735294522976    0.21973613173968418    0.320861314260161    
  0.4577595749532821    0.5359881656805974    0.3950657507577663    0.18039303107368573    0.1091482254190168    
  0.1803930633747475    0.3950657730515516    0.5359880951088706    0.45775954265346114    0.3208613694205293    
  0.21973611777967564    0.16046735452833152    0.13125941849962774    0.12273515941091566    0.1518509531209018    
  0.16046735408223925    0.1886362224640673    0.24329025400412524    0.33286868569331923    0.45447807108927446    
  0.5569654472930505    0.5311463164743064    0.39506571452167255    0.32533140214659984    0.39506575141914485    
  0.5311462762744075    0.5569654365461687    0.4544779384901221    0.3328686887944293    0.2432902354061151    
  0.18863622448299808    0.16046735234426548    0.1518509531209018    0.21193393832069354    0.21973610463473092    
  0.24329020076472724    0.2853934926905679    0.3494123427940604    0.4339648903847135    0.5184810640324269    
  0.5569654260516318    0.5359881436322071    0.5147098232688889    0.5359882822102146    0.5569654170477524    
  0.5184811977617357    0.43396489671564337    0.3494123187603156    0.2853934739559964    0.24329030525377426    
  0.21973611309297708    0.21193393832069354    0.31582578698378533    0.320861348985638    0.3328686783144301    
  0.3494123373512602    0.37133872861797423    0.40128169517372514    0.4339647997420487    0.45447798630518765    
  0.4577595998243323    0.45550854154826775    0.4577595463542385    0.45447793236395706    0.43396482200930037    
  0.40128162216890856    0.37133871857224005    0.3494123568107943    0.33286873672782136    0.32086133193213046    
  0.31582578698378533    0.4555086049314272    0.45775946216562663    0.45447798930374966    0.433964871544885    
  0.4012816600541115    0.3713386727139012    0.34941233906677827    0.3328687609869835    0.32086134348425266    
  0.315825769513131    0.32086134559602175    0.33286873601428474    0.3494123754666738    0.37133866820738104    
  0.40128170676919667    0.43396487770580583    0.4544779890521244    0.4577595357741515    0.4555086049314272    
  0.5147098909851726    0.5359881748770258    0.5569654055815751    0.5184811751904835    0.4339648616933813    
  0.3494123636709764    0.2853934490253914    0.24329026328597939    0.2197361341640676    0.21193390636062812    
  0.2197361394396407    0.24329021549696567    0.2853935214240837    0.34941230797329664    0.43396490014319133    
  0.5184810745096624    0.556965438705713    0.5359881353678109    0.5147098909851726    0.32533140744251104    
  0.39506571595445533    0.5311463546957255    0.5569653537535464    0.4544780276648119    0.3328687989629283    
  0.24329019330853582    0.18863625870455347    0.1604673283462895    0.1518509430413283    0.160467373221372    
  0.18863626457303811    0.24329018642557743    0.3328686670507058    0.45447795366421245    0.556965461575821    
  0.5311463080564751    0.39506572466469975    0.32533140744251104    0.10914825249060592    0.18039304931432637    
  0.395065779579634    0.5359881829503191    0.4577595650991264    0.32086128243539197    0.21973608893168176    
  0.1604673546213723    0.13125942521645453    0.12273515312861355    0.1312594284970525    0.1604672960017725    
  0.21973611537385915    0.3208613179232103    0.4577595828001454    0.5359881715287066    0.39506570168962685    
  0.18039306777841627    0.10914825249060592    0.05283706112084165    0.10914823541761746    0.32533139674733824    
  0.5147098223619739    0.45550864817795417    0.3158258136347767    0.21193392703347672    0.15185097059644814    
  0.12273517240028198    0.11436391323310238    0.12273516601798426    0.1518509449572467    0.21193394838480453    
  0.3158257807217381    0.4555085289265866    0.5147098493289647    0.32533142691908506    0.10914824084735125    
  0.05283706112084165    0.10914824821598004    0.1803930558118369    0.39506572195103146    0.5359882018901605    
  0.457759605426932    0.32086133318642074    0.21973611116728597    0.1604673708703733    0.13125944702308437    
  0.12273513556964377    0.13125944851876153    0.16046732946407435    0.21973613675493261    0.32086131378847993    
  0.45775951221442135    0.535988192618972    0.39506576312361086    0.18039304463192557    0.10914824821598004    
  0.18039302828413656    0.2803229898971968    0.5127614788042029    0.6296347579184965    0.5287263868864404    
  0.37522865625330215    0.25940833339350866    0.18808626496571237    0.14876906860042424    0.13125940227596017    
  0.1313234342732849    0.15115287085441115    0.19770186211631294    0.2800337813329923    0.39542342228646443    
  0.47892340583723614    0.40245058687135254    0.23790944264802272    0.18039302828413656    0.3950657877235886    
  0.5127614662846418    0.6786839830805443    0.7029490556324944    0.5786055881588336    0.4292065609204841    
  0.3141130276768781    0.236927149477195    0.18808627666855665    0.16046733114044168    0.151152855034961    
  0.1608099505690267    0.19364542870535567    0.25516313185972117    0.3452477622884181    0.4353766171298909    
  0.4557546713417603    0.40245060166408    0.3950657877235886    0.5359882529138968    0.629634756928248    
  0.7029490205747163    0.6778197822981245    0.57513920448059    0.46688732938624716    0.3816863402915642    
  0.31411308618816297    0.2594083716129583    0.21973608043055146    0.19770187919616036    0.19364542496999085    
  0.20934519318884404    0.24614081159215256    0.30379089380188207    0.37410185591148215    0.4353767494304018    
  0.478923292296052    0.5359882529138968    0.45775957986055726    0.5287263254013118    0.5786056017618717    
  0.5751391575014013    0.532832910045722    0.49419354358077644    0.46688722355266893    0.42920656009378544    
  0.37522864966726865    0.32086132947745405    0.28003376370296956    0.25516311515498724    0.24614076954032316    
  0.25154991177945774    0.2712122549114199    0.3037909222185981    0.34524775472752955    0.39542336389179716    
  0.45775957986055726    0.3208613209407932    0.3752286556107265    0.42920657323536576    0.4668872541290589    
  0.4941934513916034    0.5328329138220003    0.5751391808893098    0.5786055834002336    0.5287264120055017    
  0.45775944160806775    0.3954233916080014    0.3452477418775559    0.30379095785450655    0.2712122404251866    
  0.2515498588282968    0.2461408059070092    0.25516313954785763    0.2800338283678783    0.3208613209407932    
  0.21973609235280234    0.25940836578811205    0.31411313595699786    0.3816863879057894    0.466887337734521    
  0.5751391833093795    0.6778198151963115    0.7029490032703133    0.6296348134930967    0.5359881990192605    
  0.4789234614051676    0.4353766466590592    0.37410193855738794    0.3037909052979261    0.24614079155103927    
  0.20934515448200713    0.19364545990021748    0.1977018029374614    0.21973609235280234    0.16046732646708034    
  0.18808627974430298    0.2369271683239092    0.31411303587542094    0.429206540475144    0.578605700914636    
  0.7029488850744249    0.6786840713583083    0.5127614017812486    0.3950656982991041    0.4024506308812451    
  0.45575463282373896    0.43537664977016766    0.3452477523389715    0.25516317953038475    0.1936454369243388    
  0.1608100073108687    0.15115280929935615    0.16046732646708034    0.1312594377340189    0.14876907053867278    
  0.1880862518352608    0.25940834610127866    0.37522864732263833    0.5287263441368935    0.6296348707009082    
  0.5127614581710607    0.2803229581280269    0.18039306351978276    0.23790948621559627    0.40245058932377437    
  0.47892335115667517    0.39542335073707363    0.2800338217001505    0.19770185715590466    0.15115283000654448    
  0.13132344284598438    0.1312594377340189    0.12273514354226155    0.13125944936353276    0.1604673520649553    
  0.21973610006100733    0.32086138167445866    0.4577595613459037    0.535988165306125    0.39506577342782107    
  0.18039303553488756    0.10914821663298904    0.18039305091938837    0.39506570763555005    0.5359882678986883    
  0.45775956732860856    0.32086129191474944    0.219736095859061    0.16046733270191751    0.1312594297935299    
  0.12273514354226155    0.13125942575025504    0.1313234116929022    0.1511528400319065    0.19770184291937645    
  0.28003376607815544    0.3954234160823657    0.4789233796946444    0.40245060906584706    0.23790944825408347    
  0.18039304125071612    0.28032297904986897    0.5127614941543928    0.6296346921209219    0.5287263848688373    
  0.37522870058466856    0.259408374411234    0.18808626980506019    0.14876907359884137    0.13125942575025504    
  0.1604673318458065    0.15115284311768223    0.16080999474800026    0.19364545518360504    0.25516311851744233    
  0.34524785286980997    0.43537665326398994    0.45575461738192213    0.40245060810678296    0.3950657267698591    
  0.5127614321070534    0.6786840413661692    0.702949021471599    0.578605551039061    0.42920649186048637    
  0.31411305697381187    0.23692714434242207    0.18808627888581564    0.1604673318458065    0.2197361003039295    
  0.19770183581871523    0.19364538393620254    0.20934516309864848    0.24614075800108706    0.303790915251876    
  0.37410188044567    0.4353767040768743    0.47892333282447563    0.5359882292981742    0.6296348749635733    
  0.702949080573118    0.6778198305147249    0.575139205770028    0.4668872947028039    0.3816863672103032    
  0.3141131064205118    0.2594083368458735    0.2197361003039295    0.3208613307371153    0.28003379847578264    
  0.2551631353836288    0.24614080460488433    0.25154991860286263    0.271212272822158    0.3037908523857641    
  0.3452478353175348    0.39542341930151514    0.457759488650707    0.5287263489160752    0.5786056287937441    
  0.5751391386007179    0.5328328680727397    0.494193487938316    0.4668873124072132    0.42920657798078915    
  0.3752286494766612    0.3208613307371153    0.4577596248730435    0.3954233807300474    0.3452478235916832    
  0.3037909073079492    0.27121224901643065    0.25154989502256436    0.2461407993217385    0.2551631349427798    
  0.28003382716932085    0.3208613136169201    0.3752286481368215    0.42920656241360267    0.466887329125565    
  0.49419343125276527    0.532832908251738    0.5751391585965597    0.5786056323124283    0.5287263555765446    
  0.4577596248730435    0.5359882631035814    0.47892339024084973    0.43537668510733907    0.37410191257353315    
  0.3037909090777117    0.24614079710637876    0.20934514227865966    0.19364540614494657    0.19770187625200322    
  0.21973604633520627    0.2594083837770958    0.3141130271555139    0.3816864075866466    0.46688726313077283    
  0.5751391971502969    0.6778196658134806    0.7029491041107393    0.6296346897329543    0.5359882631035814    
  0.39506571480367336    0.4024505476872843    0.45575462973404446    0.4353766542264866    0.3452478088152866    
  0.255163201486464    0.19364538239735354    0.16081001493764785    0.15115282248400477    0.16046730358519135    
  0.1880863235989934    0.2369271798844743    0.3141130565667833    0.4292065105282263    0.5786056037060638    
  0.7029491209378128    0.6786840602404618    0.5127614432745269    0.39506571480367336    0.18039308079536392    
  0.23790941596560605    0.4024506462040557    0.4789233986880089    0.395423391877275    0.2800337403129515    
  0.19770182301174222    0.15115286511875786    0.13132342022030946    0.1312594433390154    0.1487690882428913    
  0.18808624189468304    0.2594083896499837    0.375228639713284    0.5287264441916579    0.6296347114700417    
  0.5127614088085934    0.2803230095797978    0.18039308079536392    0.10914824821598004    0.1803930558118369    
  0.39506572195103146    0.5359882018901605    0.457759605426932    0.32086133318642074    0.21973611116728597    
  0.1604673708703733    0.13125944702308437    0.12273513556964377    0.13125944851876153    0.16046732946407435    
  0.21973613675493261    0.32086131378847993    0.45775951221442135    0.535988192618972    0.39506576312361086    
  0.18039304463192557    0.10914824821598004    0.3253313962067781    0.3950657233550181    0.5311462821628127    
  0.5569654198759759    0.4544780464554894    0.33286870978276356    0.2432902514340319    0.18863625061200592    
  0.16046734634822404    0.15185094613869432    0.16046738357386747    0.18863618812462746    0.24329028312908552    
  0.3328687090062887    0.4544779793534726    0.556965439618403    0.5311463378285792    0.39506572666962714    
  0.3253313962067781    0.3950657370675093    0.5127614558214045    0.6786840616266081    0.7029490243607173    
  0.5786055996774015    0.429206549350044    0.31411304801201906    0.23692716495673527    0.18808626143591362    
  0.1604673217492098    0.15115281760369179    0.16081000276303536    0.1936454414163328    0.25516310580059764    
  0.3452478000462323    0.4353767378144405    0.45575466782085083    0.40245057721267413    0.3950657370675093    
  0.5311463651054936    0.6786840620421787    0.8124720404774074    0.7931303009879135    0.6489708887475719    
  0.49934648043419605    0.3883816742576986    0.3039552228884468    0.23692717501975313    0.18863622648122613    
  0.16081001447915727    0.15347106405030442    0.16769347078420507    0.2054395947715948    0.2674950196670643    
  0.34474196936735624    0.4106154946570747    0.4557546361596119    0.5311463651054936    0.5569654324572294    
  0.7029489630854188    0.7931301958877705    0.7375754905657023    0.5956481800393406    0.49252465581838134    
  0.4418865952358702    0.3883816732628177    0.31411306694161933    0.24329025814656902    0.19364546419518863    
  0.1676934881631804    0.16394184482327112    0.18058340137307033    0.21705265979718935    0.27268032181921764    
  0.3447421249828782    0.43537665538688336    0.5569654324572294    0.4544779929165202    0.5786055659221154    
  0.6489709066381928    0.5956481420858745    0.49064597196844023    0.4566523568860836    0.49252453842783417    
  0.4993464745922962    0.429206503667561    0.3328687018980159    0.25516311584984513    0.20543965801486017    
  0.18058337519784773    0.17540214633435466    0.1873861645052931    0.21705268995336635    0.26749502332698927    
  0.34524776995125306    0.4544779929165202    0.33286872933912215    0.4292065475163523    0.49934649969150946    
  0.49252459303440943    0.45665229241252386    0.4906460319434707    0.5956481798157149    0.6489709123169891    
  0.5786056662054999    0.4544779334315183    0.3452477763902738    0.26749502389495455    0.21705272712395732    
  0.18738612746935843    0.1754021293071321    0.18058339446414867    0.20543965086242644    0.2551631454370461    
  0.33286872933912215    0.24329024764729568    0.31411304367935916    0.3883817266372327    0.4418866354471841    
  0.49252459426918205    0.595648212044761    0.7375754471406726    0.7931302500612591    0.7029490393119565    
  0.5569654719761367    0.43537676146626797    0.34474196734750157    0.2726803731532039    0.2170526642924068    
  0.1805834140330994    0.16394183185564762    0.16769352384825478    0.19364540754633877    0.24329024764729568    
  0.18863623269042545    0.23692713954004135    0.3039552154549813    0.38838161248282027    0.49934645476704215    
  0.6489709269619635    0.7931300595973337    0.812472051948859    0.6786839961898975    0.5311462281344216    
  0.455754645637885    0.4106155190054722    0.34474195643209316    0.2674950225616227    0.20543965057870947    
  0.16769348821633595    0.15347107124300874    0.1608099789424254    0.18863623269042545    0.160467352732097    
  0.1880862517062223    0.23692718689891284    0.314113066884315    0.4292065712784645    0.5786055225421021    
  0.7029490924957794    0.6786841129328608    0.5127614610572945    0.39506576746009    0.4024506338354271    
  0.45575466437308554    0.43537664275118454    0.34524771043590186    0.25516316796254274    0.19364543938795284    
  0.16080999462822101    0.1511528474519409    0.160467352732097    0.15185094155578066    0.16046735629337397    
  0.18863622905300215    0.24329024159786997    0.33286874940134675    0.45447798413673357    0.5569654103948729    
  0.5311463450407063    0.39506571438098737    0.3253313431771957    0.3950657826309618    0.5311463225965082    
  0.5569654668032502    0.454477980017784    0.33286867920434776    0.24329024602558916    0.18863620763917785    
  0.16046733132285404    0.15185094155578066    0.16046736011110138    0.15115283942555946    0.1608100105535644    
  0.1936454448703649    0.25516313740129754    0.3452477724977416    0.4353766944126298    0.4557546673522821    
  0.40245060676939565    0.39506571060376094    0.512761449699937    0.6786840821822259    0.702948958061818    
  0.5786055598834939    0.42920656007562624    0.3141131501586033    0.2369271848978789    0.18808626459328065    
  0.16046736011110138    0.1886362512558643    0.16080999572239235    0.15347107852008307    0.16769349337795642    
  0.20543963647088326    0.267495069248694    0.3447419944995956    0.41061549646270223    0.45575463398181126    
  0.531146342076812    0.6786840668063204    0.812471928386073    0.793130270790963    0.6489708067533029    
  0.49934640663996444    0.3883816557630233    0.3039551763091888    0.2369271768919052    0.1886362512558643    
  0.2432902175117719    0.19364542079008112    0.16769344814908516    0.16394185340082032    0.18058338530467619    
  0.21705271282130056    0.27268028313504417    0.34474204252849044    0.43537668059402523    0.5569654091561778    
  0.7029491437918111    0.7931301781068528    0.7375754439088914    0.5956482119579537    0.49252463274073943    
  0.4418866067137516    0.3883817777630618    0.31411307313676967    0.2432902175117719    0.3328687028462179    
  0.2551631301150273    0.20543963967882697    0.18058341071939774    0.17540216133586806    0.1873861759143274    
  0.21705266341258914    0.2674950616227656    0.345247818083634    0.4544779149907483    0.5786055623000258    
  0.6489708535240727    0.5956481616799458    0.49064593585254446    0.45665229834748944    0.49252464330052725    
  0.4993465235108038    0.42920653648116897    0.3328687028462179    0.4544780105007934    0.3452477550829981    
  0.2674950462667465    0.21705269606039737    0.18738611922260787    0.17540214366234652    0.18058339187473285    
  0.20543965487641508    0.25516318442422936    0.3328686921812445    0.429206539892945    0.4993464781606389    
  0.49252465875184304    0.4566522612924436    0.4906459728761632    0.595648151346761    0.6489708506842253    
  0.5786056007150107    0.4544780105007934    0.5569654730835641    0.43537666901435496    0.34474202380652713    
  0.27268032460027464    0.21705269443738298    0.1805834035147228    0.1639418389334793    0.16769345269436745    
  0.19364544239772438    0.24329019103466148    0.31411311609307313    0.38838169708861764    0.44188665481071343    
  0.4925246017558538    0.5956481961953666    0.7375753346604761    0.7931303265669056    0.7029489433826568    
  0.5569654730835641    0.5311462689684713    0.45575459783347055    0.4106154519342961    0.3447420132078497    
  0.26749502814611376    0.205439698491793    0.1676934462432873    0.15347113199311907    0.16080998775105723    
  0.18863618180992592    0.23692719680556956    0.3039551877167912    0.3883816268958827    0.49934637772173535    
  0.6489708960274816    0.7931303192816932    0.812472063984925    0.678683994916635    0.5311462689684713    
  0.3950657891955752    0.40245058210249024    0.45575466799701486    0.4353766994887028    0.3452477635368284    
  0.25516311358146465    0.19364540679926873    0.16081001053665545    0.15115282194901344    0.16046734075858912    
  0.18808627714358458    0.23692712524154572    0.3141131206331125    0.42920656337086316    0.5786056730169368    
  0.7029489393466953    0.6786839626251415    0.5127614595140588    0.3950657891955752    0.3253313962067781    
  0.3950657233550181    0.5311462821628127    0.5569654198759759    0.4544780464554894    0.33286870978276356    
  0.2432902514340319    0.18863625061200592    0.16046734634822404    0.15185094613869432    0.16046738357386747    
  0.18863618812462746    0.24329028312908552    0.3328687090062887    0.4544779793534726    0.556965439618403    
  0.5311463378285792    0.39506572666962714    0.3253313962067781    0.5147098681092231    0.5359882240767734    
  0.5569654465839599    0.5184811417632813    0.4339649118396378    0.34941232646077286    0.28539345336044364    
  0.24329022827157354    0.2197361041365272    0.21193391887479723    0.2197361222174507    0.2432902215096844    
  0.28539352695908893    0.349412309818191    0.43396486489958774    0.5184811196541964    0.5569654416156005    
  0.5359882367590573    0.5147098681092231    0.5359882239758131    0.6296347878496734    0.7029490012477714    
  0.6778198305259227    0.575139176583337    0.46688729193079714    0.38168635077917434    0.3141130434587403    
  0.2594083767283617    0.21973607926818514    0.19770184774768348    0.19364543305051735    0.209345178948694    
  0.2461407471251734    0.30379094758934916    0.37410192255512215    0.435376714061452    0.47892334865123065    
  0.5359882239758131    0.5569654141460864    0.7029490248256587    0.7931302043499185    0.7375753976946368    
  0.5956481347782664    0.49252457582124015    0.44188657603137055    0.3883817228031393    0.31411307948688155    
  0.24329021859499997    0.1936454675335091    0.16769346898142526    0.16394179851174143    0.18058337752180606    
  0.21705269307035055    0.27268024798819007    0.3447420069480243    0.4353767036588834    0.5569654141460864    
  0.5184811620308484    0.6778198000318869    0.7375753696318204    0.5989549504212598    0.41425553930888837    
  0.35593419064426945    0.40717808153857005    0.44188664191149535    0.3816863496978493    0.2853934993998619    
  0.2093452036288726    0.1639418335059191    0.14474247247074046    0.14650520832669608    0.16679550574870713    
  0.20699576148335191    0.27268037617128116    0.37410186093491515    0.5184811620308484    0.433964903135741    
  0.5751391441248568    0.5956481829020879    0.4142555433706544    0.24443723146324264    0.22934520405317635    
  0.35593412226110804    0.49252461071620063    0.46688729753786756    0.3494123174076371    0.24614078454996488    
  0.1805833919589891    0.1465052119363592    0.13515452135183464    0.14168564779369544    0.1667954929535916    
  0.21705265947388772    0.30379090191844366    0.433964903135741    0.34941234095298634    0.46688728302728927    
  0.4925246400535632    0.3559341441159937    0.22934514921420385    0.2444372356817141    0.41425555575512024    
  0.5956482470202817    0.5751392423925841    0.43396479866768906    0.3037909566387384    0.2170526967660858    
  0.1667955074155957    0.14168559940437606    0.13515452403522993    0.14650520992382016    0.18058341008193138    
  0.24614079935497005    0.34941234095298634    0.28539347506594537    0.3816863427919343    0.4418866223333114    
  0.4071781767723143    0.35593416224120467    0.4142555779731838    0.5989548875187943    0.7375753377357056    
  0.6778197965180435    0.5184811209253146    0.37410194770656324    0.2726802743416193    0.20699581329631475    
  0.16679546322450228    0.1465051993432298    0.1447424361293977    0.16394186628494709    0.20934518167420357    
  0.28539347506594537    0.24329026893155187    0.3141130545507186    0.388381672167719    0.4418865219348028    
  0.49252459121770253    0.5956482781946282    0.7375752685115449    0.7931303336167892    0.7029490295772488    
  0.556965335236596    0.43537671536182826    0.34474202360692113    0.27268029432333923    0.21705269653519865    
  0.18058340620880903    0.16394185830821964    0.1676934815405267    0.19364540839574315    0.24329026893155187    
  0.21973613915216283    0.25940835466280837    0.31411308202745225    0.38168634044076116    0.46688736299289524    
  0.5751391769239156    0.6778198060142486    0.7029491138062608    0.6296347351397352    0.5359881630156117    
  0.4789234318092715    0.43537672393570803    0.37410187316023585    0.3037908830578488    0.24614078917521992    
  0.2093452212286417    0.19364543043740992    0.1977018850861549    0.21973613915216283    0.21193391870937328    
  0.2197360842886811    0.24329024108198716    0.28539348609368187    0.34941236693376276    0.43396487067932776    