#     DFTpy    
  CRYSTAL 
    
  PRIMVEC    
  1.1489558230007222    -1.990049861089365    0.0    
  1.1489558230007222    1.990049861089365    0.0    
  0.0    0.0    3.8847148879310347    
  PRIMCOORD    
  2    1    
  Si    1.1489558230007222    0.663349953696455    0.9711787219827587    
  Si    1.1489558230007224    -0.663349953696455    2.9135361659482752    
  BEGIN_BLOCK_DATAGRID_3D    
  3d_datagrid_density    
  BEGIN_DATAGRID_3D#0    
  11    11    17    
  0.0    0.0    0.0    
  1.1489558230007222    -1.990049861089365    0.0    
  1.1489558230007222    1.990049861089365    0.0    
  0.0    0.0    3.8847148879310347    
  0.2922390813345265    0.30890350895038005    0.35607948354455626    0.4205595144877801    0.47777601090448796    
  0.5011153756156427    0.4777759471829752    0.42055952876468955    0.3560794707226389    0.30890354572472145    
  0.2922390813345265    0.3089035213542301    0.3089008359901019    0.34098140127783055    0.3972431327708453    
  0.4579671965367302    0.4978703289434965    0.4978651321599719    0.4579732210799775    0.3972406424444768    
  0.3409838214214016    0.3089035213542301    0.35607947039531124    0.34098152419663963    0.35607807115152057    
  0.39724667187690105    0.44982045821504785    0.4923398580056421    0.5083770188764811    0.49234104144232305    
  0.44982287790487174    0.39724066828124377    0.35607947039531124    0.42055956102967307    0.397243204166444    
  0.3972467443098882    0.4205587460369142    0.45796462026411294    0.4923383613821309    0.5104891947124208    
  0.5104796159234778    0.4923410020532323    0.4579731987256645    0.42055956102967307    0.47777601084834254    
  0.45796717187267716    0.44982042859115623    0.4579646017058226    0.47778531655818673    0.4978628251141341    
  0.5083814979484481    0.5104891400113731    0.5083769632585643    0.4978651287965095    0.47777601084834254    
  0.501115331104514    0.4978703186346539    0.49233989246827625    0.4923383095806345    0.4978628274586709    
  0.5011183090708297    0.4978628208171453    0.49233829169830423    0.492339858500215    0.49787029505394514    
  0.501115331104514    0.4777759957459785    0.49786517506112077    0.5083769901850894    0.5104891529739497    
  0.5083815038620743    0.49786288123459377    0.47778540495431127    0.4579646798216128    0.44982040661124034    
  0.4579672227400163    0.4777759957459785    0.42055956010474005    0.4579731458817326    0.49234105725873684    
  0.5104796211784018    0.510489123434355    0.49233832844429287    0.45796470064078876    0.4205587293640153    
  0.3972466624141978    0.397243138947729    0.42055956010474005    0.356079521423441    0.39724074769000733    
  0.4498228873572677    0.49234104006955903    0.5083769717525292    0.49233983561710803    0.44982052684004953    
  0.3972466428019757    0.3560780092769889    0.3409814194502606    0.356079521423441    0.3089034643043503    
  0.3409838315581265    0.3972406903367252    0.45797310753314385    0.49786504525723424    0.49787036058068124    
  0.45796718395727204    0.39724314844379033    0.3409814101700397    0.308900843438491    0.3089034643043503    
  0.2922390813345265    0.30890350895038005    0.35607948354455626    0.4205595144877801    0.47777601090448796    
  0.5011153756156427    0.4777759471829752    0.42055952876468955    0.3560794707226389    0.30890354572472145    
  0.2922390813345265    0.31680303026468026    0.33359675187058424    0.3803461455301855    0.44160876397157084    
  0.49208251121107716    0.5112883060943009    0.4920894377663296    0.44161517344260226    0.38034665089401387    
  0.3335960371165192    0.31680303026468026    0.3335960063043185    0.33359336900665826    0.36106494883162255    
  0.40842060531218105    0.4578013041323176    0.489250408212046    0.4892466798931455    0.45780496000523835    
  0.40841737805958583    0.36106274051597365    0.3335960063043185    0.38034663232691246    0.36968181833345426    
  0.3803423178692487    0.40841511417224013    0.4423518934780397    0.46928247325930433    0.47976054229915277    
  0.46928214238620525    0.44234224882786155    0.40841748797229693    0.38034663232691246    0.44161515893835324    
  0.4289068309084166    0.4289082541003418    0.4416201085609233    0.457791437256603    0.4692797791463515    
  0.4749059218788866    0.47491236240787255    0.46928206786262094    0.45780489282827463    0.44161515893835324    
  0.49208945439054436    0.4845497176421775    0.47885163361347194    0.4845599396388217    0.49209518891496096    
  0.48924766146325416    0.47976916766819    0.47490587219828895    0.4797604507233295    0.4892466512295348    
  0.49208945439054436    0.5112882593080095    0.5143451674996149    0.5030145448084506    0.503018082663163    
  0.5143219319546158    0.5113008798364812    0.48924753127445547    0.4692796997445666    0.4692825009397988    
  0.4892504816720123    0.5112882593080095    0.49208248548625505    0.5143371809953905    0.5066156574352838    
  0.49576074312220225    0.5066213983858754    0.5143219661424764    0.49209527980860207    0.4577914795698622    
  0.44235190325062407    0.45780136954775186    0.49208248548625505    0.44160873921051685    0.4845743152529516    
  0.5030104445595378    0.4957520170951487    0.49576073917322394    0.5030181424834584    0.4845600204151588    
  0.44162013234827746    0.40841513814701125    0.408420553229072    0.44160873921051685    0.3803462077242853    
  0.42890288523269576    0.4788598623416069    0.5030104322052678    0.5066156880321111    0.5030145225244822    
  0.47885170161476454    0.4289082145361167    0.38034226814750544    0.3610649776322553    0.3803462077242853    
  0.33359673612445256    0.3696810424614756    0.428902809473355    0.48457426090918093    0.5143370901879479    
  0.514345202170596    0.4845497591585469    0.4289068050287441    0.3696817392436239    0.33359335344601554    
  0.33359673612445256    0.31680303026468026    0.33359675187058424    0.3803461455301855    0.44160876397157084    
  0.49208251121107716    0.5112883060943009    0.4920894377663296    0.44161517344260226    0.38034665089401387    
  0.3335960371165192    0.31680303026468026    0.3837446796762796    0.40019593764083966    0.44218451373028633    
  0.48651115080640756    0.5093212692930041    0.5133989052851186    0.5092881240286078    0.48652299385723274    
  0.4422145472446815    0.4001868685959504    0.3837446796762796    0.40018687138273173    0.400183303968673    
  0.4220622600694974    0.4570484969812305    0.48880781939631934    0.5055454098854231    0.5055537708191502    
  0.4888454621695066    0.4570433656365877    0.4220308949325165    0.40018687138273173    0.4422146120635956    
  0.43562737214168645    0.44217599476265995    0.45703669118026885    0.47076107257748667    0.4788689180713556    
  0.48160247184042015    0.47887082908733725    0.4707144707697811    0.45704336573415877    0.4422146120635956    
  0.4865230096913217    0.47637730299094194    0.4764161915671669    0.4865269718412524    0.4887976186380083    
  0.4788763421677169    0.4692918732149304    0.46928896606782733    0.4788708230741681    0.48884541557600325    
  0.4865230096913217    0.5092881296892663    0.4824776650176068    0.4639300010059599    0.48249736698629764    
  0.5093295960102026    0.5055520246839269    0.48159285584073297    0.46929184159435877    0.4816024188192773    
  0.5055537211330376    0.5092881296892663    0.5133989000934193    0.4623865041188527    0.3993058472219979    
  0.3992928764873954    0.462321584645649    0.5134311478262076    0.5055519714623832    0.4788763054586169    
  0.4788689099955553    0.5055453910126929    0.5133989000934193    0.5093212501039509    0.4623608056942923    
  0.3624988482191607    0.31353265981120654    0.3625506703123689    0.4623216700197777    0.5093295887939006    
  0.48879764114714813    0.47076102601183545    0.4888078201620535    0.5093212501039509    0.48651118510223956    
  0.4824950719758911    0.39930006794182377    0.313551724697614    0.31353269079780405    0.3992929340472755    
  0.4824973533304558    0.48652696392043315    0.45703672927137107    0.45704850035452416    0.48651118510223956    
  0.44218457602326416    0.4764168270268706    0.4639283782780138    0.3993000805774748    0.3624988556709662    
  0.3993058848540139    0.4639300715569084    0.4764160830393967    0.44217597054293833    0.4220623101458329    
  0.44218457602326416    0.4001959016646535    0.43560102131061706    0.4764167517098033    0.48249504358187983    
  0.4623607347571878    0.46238653772216903    0.4824776170847247    0.47637721518091664    0.43562728186417765    
  0.40018331747562885    0.4001959016646535    0.3837446796762796    0.40019593764083966    0.44218451373028633    
  0.48651115080640756    0.5093212692930041    0.5133989052851186    0.5092881240286078    0.48652299385723274    
  0.4422145472446815    0.4001868685959504    0.3837446796762796    0.4601976157307129    0.47580643698864516    
  0.5078425068007534    0.5208068611803391    0.4997155824819528    0.4824811163985174    0.49963009551377285    
  0.5208199984478648    0.5079242756619833    0.47578655699865924    0.4601976157307129    0.47578655623053934    
  0.47578061391741483    0.4925787594697173    0.5138322758285591    0.5247649427085663    0.5241569955668358    
  0.5241805792829517    0.5248469106684052    0.5138267000793953    0.4924967000758711    0.47578655623053934    
  0.5079242409303595    0.5034703530583556    0.5078323574875775    0.5138124319285714    0.5120481386106699    
  0.5046346387618208    0.5005994473439593    0.5046445603609193    0.5119565845101649    0.5138268102543276    
  0.5079242409303595    0.5208199920231295    0.5016745344100313    0.5017734442098937    0.520816883576225    
  0.5247693611757774    0.5046469937773893    0.4844916970065446    0.4844531669083683    0.5046445171341462    
  0.5248468108582383    0.5208199920231295    0.49963018346600635    0.4271496777389096    0.38771852548161145    
  0.42717401675967287    0.4997066080096944    0.5241793216324883    0.5005620287499843    0.4844917121652904    
  0.50059939183928    0.5241806281570977    0.49963018346600635    0.4824811339718344    0.3470232966668585    
  0.23708441813690387    0.23705274076547347    0.3469391461670057    0.4825285776991701    0.5241792665356226    
  0.5046469884259327    0.5046346094479717    0.5241570284919307    0.4824811339718344    0.4997156737505601    
  0.34698476795425304    0.17864661660429107    0.12164399017706033    0.17871592582677603    0.3469391796260085    
  0.4997066654092027    0.52476942584432    0.5120481448004428    0.524764925936329    0.4997156737505601    
  0.5208068993638171    0.427142777231991    0.2370873745707705    0.12166384743689936    0.12164400960517914    
  0.23705279260545228    0.4271741276751988    0.5208168602173248    0.5138125168602284    0.5138322615617213    
  0.5208068993638171    0.5078425294974412    0.5017842432830105    0.3876928789784501    0.2370873684882578    
  0.1786466292374326    0.23708443686744485    0.38771860921704004    0.5017733317431082    0.5078323032219556    
  0.49257881195147313    0.5078425294974412    0.4758064234291255    0.5034082187390038    0.5017841709299588    
  0.42714268247597276    0.3469847265362963    0.34702332685599835    0.4271497463067543    0.5016744991408209    
  0.5034702401107708    0.4757805847013962    0.4758064234291255    0.4601976157307129    0.47580643698864516    
  0.5078425068007534    0.5208068611803391    0.4997155824819528    0.4824811163985174    0.49963009551377285    
  0.5208199984478648    0.5079242756619833    0.47578655699865924    0.4601976157307129    0.49390149237149056    
  0.5092352902490985    0.5358653605620248    0.5313872164435857    0.48782546839238045    0.4606396247261733    
  0.48774118294644525    0.5313955498587636    0.5359631360385343    0.5092113154255663    0.49390149237149056    
  0.5092112828998578    0.5092204971413632    0.5243743157470915    0.5394549608104534    0.5399575294868085    
  0.5305906495723522    0.5306176421806532    0.5400455424468846    0.5394424005415456    0.5242894501542614    
  0.5092112828998578    0.5359631064493943    0.5316224204410535    0.5358529083940015    0.5394282615686503    
  0.5315948391114416    0.5172661544379261    0.5100957837145889    0.5172765595270676    0.5315060279700434    
  0.5394423886743306    0.5359631064493943    0.5313955808156448    0.5052583373280533    0.5053595202858532    
  0.531399821445225    0.539971120850774    0.5172745129875164    0.49285034640654457    0.49279030489313264    
  0.5172764885348375    0.540045439629784    0.5313955808156448    0.48774126579958604    0.3923040396132765    
  0.3443403961557594    0.3923362328738637    0.48779816115810976    0.530633197577728    0.5100355501225701    
  0.49285033749368246    0.5100957153574528    0.5306176481424312    0.48774126579958604    0.46063959783514535    
  0.29091025955036953    0.17265598106531582    0.17261985733878243    0.2908510899988299    0.46067593281185076    
  0.5306331869856421    0.5172744626638521    0.5172661108971899    0.5305906152483936    0.46063959783514535    
  0.48782542201538387    0.2908822089203286    0.11575614070672044    0.06695907895049028    0.11580272361926135    
  0.2908511365203319    0.4877981787432996    0.5399711835059932    0.5315947396943855    0.5399575425989246    
  0.48782542201538387    0.5313872937952838    0.39229231915738566    0.17266382654638301    0.06696074591606518    
  0.0669590910753909    0.17261988688479604    0.3923363092754833    0.5313997698647415    0.5394282701629832    
  0.5394549751367985    0.5313872937952838    0.5358653941982771    0.5053776817844922    0.3443096390526833    
  0.17266384728641626    0.11575615638066515    0.17265596708911826    0.3443404971109007    0.505359404847902    
  0.5358528304870334    0.5243743080114842    0.5358653941982771    0.5092352795216066    0.5315579658414298    
  0.5053775891157464    0.3922922848839534    0.2908821436916813    0.29091027405843506    0.3923040231217876    
  0.5052582798267069    0.5316222630801509    0.5092204868158287    0.5092352795216066    0.49390149237149056    
  0.5092352902490985    0.5358653605620248    0.5313872164435857    0.48782546839238045    0.4606396247261733    
  0.48774118294644525    0.5313955498587636    0.5359631360385343    0.5092113154255663    0.49390149237149056    
  0.46019761441780765    0.47580646936591564    0.5078424729372238    0.5208068896995336    0.499715656819687    
  0.4824811503969662    0.49963013663405087    0.5208200029972727    0.5079242714574336    0.4757865473563755    
  0.46019761441780765    0.47578653578056923    0.47578059435625575    0.49257873327982604    0.5138323227749075    
  0.524764965629308    0.5241569896603266    0.5241806304291231    0.5248469002945618    0.5138267265310357    
  0.49249669091819664    0.47578653578056923    0.5079242619952478    0.5034703631090187    0.5078323630885552    
  0.5138124323782868    0.5120481436800971    0.5046346268653743    0.5005994551855688    0.5046445375042672    
  0.5119565501647758    0.5138268182184531    0.5079242619952478    0.5208199844269239    0.5016745732427706    
  0.50177343115718    0.5208168065054044    0.5247693342909258    0.5046470188115985    0.4844917435460305    
  0.48445317519686537    0.5046444999347369    0.5248468372987497    0.5208199844269239    0.4996301450994902    
  0.4271497304413028    0.38771849309922024    0.4271740428467527    0.4997066186392537    0.5241793367266491    
  0.5005619894965463    0.48449172940789487    0.5005993909625697    0.5241805991174475    0.4996301450994902    
  0.4824810763091349    0.34702332932317287    0.23708441866326063    0.23705273406713473    0.3469391935984103    
  0.4825285964930515    0.5241792428462526    0.5046470041642975    0.5046346128090118    0.5241570085881193    
  0.4824810763091349    0.499715673530296    0.34698478011498063    0.1786466053779522    0.12164398579217159    
  0.17871591623625624    0.346939211346118    0.49970662482833345    0.5247693751884935    0.5120481033592302    
  0.524764972294198    0.499715673530296    0.5208068903541523    0.42714270042975133    0.23708736201853448    
  0.12166383862171087    0.12164399678365943    0.2370527749982903    0.42717412285411094    0.5208168802664366    
  0.5138124660143005    0.5138322492392404    0.5208068903541523    0.507842548154109    0.5017843210841365    
  0.3876928780708507    0.23708737585044468    0.17864663767525357    0.23708441805169841    0.38771862531106244    
  0.5017733807273839    0.5078323262871104    0.4925788073147818    0.507842548154109    0.47580641583893973    
  0.5034082017720555    0.5017841896050034    0.427142696202116    0.34698470402130066    0.34702333944314034    
  0.42714971346088326    0.5016745137986762    0.5034702862575156    0.4757806141716542    0.47580641583893973    
  0.46019761441780765    0.47580646936591564    0.5078424729372238    0.5208068896995336    0.499715656819687    
  0.4824811503969662    0.49963013663405087    0.5208200029972727    0.5079242714574336    0.4757865473563755    
  0.46019761441780765    0.38374467310020005    0.40019595443473205    0.44218449952056826    0.4865111226604836    
  0.5093212232664972    0.5133988831104724    0.5092881822360503    0.4865229338540566    0.4422145362959035    
  0.4001868983612872    0.38374467310020005    0.4001868646264907    0.4001833283635316    0.4220623019871143    
  0.457048487273654    0.48880782066133266    0.5055453942732572    0.505553762826776    0.48884547553512897    
  0.457043326230632    0.4220308914238789    0.4001868646264907    0.44221459150562764    0.43562740061334965    
  0.4421759942728827    0.457036704861559    0.47076107373243087    0.4788689613012098    0.481602462839472    
  0.47887084903486254    0.4707144514330239    0.4570433825889934    0.44221459150562764    0.4865229890545517    
  0.4763772662019616    0.476416166717341    0.48652697480701734    0.48879764899107897    0.4788763581264156    
  0.4692918789525495    0.4692889531978576    0.4788708330506438    0.488845461179745    0.4865229890545517    
  0.5092881404772337    0.48247767086840077    0.46392998482423825    0.4824973546951594    0.5093296144149574    
  0.5055520020660567    0.4815928499067999    0.4692918771413959    0.48160239246578135    0.5055537322233559    
  0.5092881404772337    0.5133988719576431    0.46238648214481504    0.39930582174175505    0.3992928631441187    
  0.46232160066975386    0.5134311370396544    0.5055519532703148    0.47887631454876256    0.47886891134108667    
  0.5055454076260798    0.5133988719576431    0.509321286456827    0.4623608263395793    0.3624988385658273    
  0.31353265617521164    0.36255068799843676    0.46232165499464145    0.5093296143014348    0.48879759990234173    
  0.4707609841116366    0.48880783401613054    0.509321286456827    0.48651118815090943    0.48249505984299734    
  0.3993000661229379    0.31355170768501195    0.31353267500435195    0.399292897348228    0.48249740268649616    
  0.4865269537242666    0.45703670831683224    0.45704852071065843    0.48651118815090943    0.44218454244551864    
  0.4764167969315845    0.46392833835387776    0.39930008505898995    0.36249887255634755    0.39930582349093424    
  0.4639300572205251    0.47641612937100103    0.4421759440011226    0.42206231900053826    0.44218454244551864    
  0.40019592163580336    0.4356010360274586    0.4764167710254057    0.48249503967253005    0.46236070754486175    
  0.46238653558549503    0.4824776372501506    0.47637722982322267    0.4356272585490351    0.40018331816057007    
  0.40019592163580336    0.38374467310020005    0.40019595443473205    0.44218449952056826    0.4865111226604836    
  0.5093212232664972    0.5133988831104724    0.5092881822360503    0.4865229338540566    0.4422145362959035    
  0.4001868983612872    0.38374467310020005    0.31680301176224146    0.3335967694342772    0.38034615604672145    
  0.44160873367627473    0.492082451747345    0.511288284317998    0.4920894388232597    0.4416151849046481    
  0.3803466329198562    0.3335960327415896    0.31680301176224146    0.3335960262454567    0.3335933597675896    
  0.36106496811426503    0.4084205878298713    0.4578013409833566    0.4892504414813286    0.48924669903009566    
  0.45780494567027086    0.40841737120641186    0.3610627466494301    0.3335960262454567    0.38034664260765727    
  0.36968185324707126    0.380342321039466    0.4084151218880721    0.44235190313608735    0.4692825030223901    
  0.47976054558817477    0.46928210763939526    0.4423422344101887    0.4084174751051202    0.38034664260765727    
  0.4416151300037961    0.4289068063614828    0.4289082992324939    0.44162016613921345    0.45779145627945494    
  0.4692797471610231    0.4749058827752163    0.47491232374947456    0.4692820924601648    0.4578049057931229    
  0.4416151300037961    0.49208947987643886    0.4845497148396955    0.47885161030626167    0.4845599553173115    
  0.49209519300037147    0.4892476345697272    0.4797691995252572    0.474905892993432    0.4797604751658941    
  0.48924669706330226    0.49208947987643886    0.5112883620816832    0.5143451787118531    0.503014522769397    
  0.5030180703572931    0.5143219262417773    0.5113009058610001    0.4892475266332493    0.46927968713044393    
  0.46928247114004445    0.489250484513658    0.5112883620816832    0.49208249910284857    0.5143371932475815    
  0.5066157015427258    0.4957607286662111    0.5066213823021979    0.5143219380769352    0.49209526332972287    
  0.457791482572043    0.4423518832848069    0.4578013563982366    0.49208249910284857    0.4416087430594008    
  0.48457431811454027    0.5030104605313358    0.49575202628189613    0.49576072210273825    0.5030181000478994    
  0.4845600480739575    0.44162013292629665    0.40841515717544236    0.4084205636306248    0.4416087430594008    
  0.3803461891579213    0.4289028443524237    0.47885986873668906    0.503010401951307    0.5066156790736562    
  0.5030145479971573    0.47885174091546684    0.42890824275024075    0.380342274663015    0.36106498297231165    
  0.3803461891579213    0.33359674615811624    0.3696810570736631    0.42890278801189535    0.4845742603107898    
  0.514337149628    0.5143452355419621    0.4845497676762209    0.4289067811571537    0.3696817348156078    
  0.3335933642701339    0.33359674615811624    0.31680301176224146    0.3335967694342772    0.38034615604672145    
  0.44160873367627473    0.492082451747345    0.511288284317998    0.4920894388232597    0.4416151849046481    
  0.3803466329198562    0.3335960327415896    0.31680301176224146    0.2922390819514347    0.3089035110190151    
  0.3560794841457949    0.42055951514951306    0.4777760093837923    0.5011153726151281    0.4777759380818977    
  0.42055952095993415    0.3560794653974003    0.308903541217716    0.2922390819514347    0.3089035184802542    
  0.30890084376362636    0.3409814011854147    0.3972431343648143    0.45796719199181574    0.4978703379033877    
  0.49786511899341046    0.45797322980829375    0.39724064383070784    0.34098382798943483    0.3089035184802542    
  0.3560794683131338    0.34098152571280316    0.3560780685818136    0.3972466684609086    0.4498204619116863    
  0.49233985592873875    0.5083770080254775    0.4923410402808766    0.44982289284996496    0.3972406657408123    
  0.3560794683131338    0.4205595509024218    0.3972432055326341    0.3972467448512062    0.4205587425967773    
  0.4579646203838595    0.49233837688682136    0.5104892060550141    0.5104796228184119    0.49234099769826684    
  0.45797320433357025    0.4205595509024218    0.4777760124518711    0.4579671705984839    0.44982043466391447    
  0.4579646098814867    0.4777853461820893    0.4978628436413008    0.508381516068469    0.5104891316361065    
  0.5083769518259215    0.4978651148765777    0.4777760124518711    0.5011153193328549    0.4978703171156104    
  0.4923398843739301    0.4923383140975007    0.4978628319039917    0.5011183141267667    0.497862805665276    
  0.492338301932683    0.4923398588066044    0.49787029264294314    0.5011153193328549    0.47777598730941356    
  0.4978651671538721    0.5083769903930648    0.510489138815689    0.5083815202057929    0.49786287089605896    
  0.4777854067305307    0.4579646850838368    0.44982039962435405    0.4579672187647629    0.47777598730941356    
  0.4205595590912651    0.4579731501237318    0.49234107271332966    0.5104796302990228    0.5104891137649491    
  0.4923383143561055    0.45796469047005656    0.42055873327473553    0.3972466536175535    0.3972431451194224    
  0.4205595590912651    0.35607952196838816    0.39724073939370075    0.4498228920467074    0.49234104779336113    
  0.5083769705752581    0.49233983714912943    0.44982052368157516    0.39724664590236575    0.35607800704676285    
  0.3409814105854863    0.35607952196838816    0.3089034601785199    0.3409838345463748    0.3972406888492032    
  0.45797311812483177    0.4978650408223006    0.49787037010481944    0.4579671853206776    0.39724314275164124    
  0.3409814036806186    0.30890083293051995    0.3089034601785199    0.2922390819514347    0.3089035110190151    
  0.3560794841457949    0.42055951514951306    0.4777760093837923    0.5011153726151281    0.4777759380818977    
  0.42055952095993415    0.3560794653974003    0.308903541217716    0.2922390819514347    0.31680302735234567    
  0.333595991584885    0.38034665281682534    0.44161513866615815    0.49208945668389004    0.5112882996945953    
  0.492082482808483    0.44160879239407996    0.3803461454229607    0.3335967955129668    0.31680302735234567    
  0.33359676345383865    0.3335933704855564    0.36968174722353037    0.42890680149454086    0.48454972689803927    
  0.5143451233518748    0.5143371645429405    0.4845743357204007    0.428902698086089    0.3696810470085448    
  0.33359676345383865    0.38034611910942456    0.36106501506132394    0.38034231446208705    0.428908193357293    
  0.478851630340846    0.5030145161360031    0.5066157524224556    0.503010448186363    0.47885979996844347    
  0.42890281799010327    0.38034611910942456    0.44160876986155995    0.40842062686991476    0.4084151594428002    
  0.4416200935654446    0.4845599840709674    0.5030181541058945    0.4957608384489323    0.4957520604577236    
  0.5030103726574175    0.48457426006879073    0.44160876986155995    0.49208248674047744    0.45780130071365066    
  0.44235188933279906    0.4577913609235998    0.4920952007501806    0.5143220328852564    0.5066213768524734    
  0.4957607736022753    0.5066156662365688    0.5143371004444821    0.49208248674047744    0.5112882554926799    
  0.4892504488922172    0.4692825203161096    0.4692796757757966    0.48924757117537926    0.5113008903533568    
  0.5143219050051406    0.5030180884187553    0.5030145416687325    0.5143451973846174    0.5112882554926799    
  0.4920894321411288    0.4892467138692445    0.47976043971961935    0.4749058498637084    0.4797691918894242    
  0.4892476114027244    0.4920952846636079    0.48456004656844115    0.47885164595715485    0.4845498161061359    
  0.4920894321411288    0.44161511500292416    0.45780492109743776    0.4692821482107015    0.4749123205083382    
  0.4749058534792807    0.46927975703871466    0.457791465930458    0.44162013972970987    0.4289082264497068    
  0.4289067575174438    0.44161511500292416    0.38034671289502553    0.408417545629726    0.4423422953940056    
  0.4692821233758829    0.4797604845123579    0.4692824901301713    0.4423519574971367    0.40841512121461226    
  0.38034227039213114    0.3696817925770964    0.38034671289502553    0.33359598538322915    0.3610627279758061    
  0.4084174758030382    0.4578048917047139    0.4892466229085187    0.4892504887889304    0.4578013107763636    
  0.4084206039578151    0.3610649344462275    0.3335933608343835    0.33359598538322915    0.31680302735234567    
  0.333595991584885    0.38034665281682534    0.44161513866615815    0.49208945668389004    0.5112882996945953    
  0.492082482808483    0.44160879239407996    0.3803461454229607    0.3335967955129668    0.31680302735234567    
  0.38374467912714644    0.40018682962955254    0.4422145534791496    0.4865229429685918    0.5092882129352881    
  0.5133988964934406    0.5093211672297536    0.4865111881274182    0.4421845039372676    0.40019596409840463    
  0.38374467912714644    0.4001959715391649    0.40018330129674184    0.43562719562707014    0.4763771772587798    
  0.48247768965324866    0.4623865122945072    0.4623608474608226    0.4824951040179695    0.47641669784554536    
  0.43560104507419756    0.4001959715391649    0.44218457750667134    0.422062425637365    0.4421759947429076    
  0.47641614629218204    0.46392998918701367    0.3993058496266177    0.3624989034712558    0.39930002413860505    
  0.46392834853330456    0.4764167043987493    0.44218457750667134    0.48651121947018666    0.45704859840044193    
  0.45703673862868016    0.4865269843818705    0.4824973947665594    0.39929288169773475    0.31353269574808496    
  0.3135517233858151    0.3993000196947904    0.48249505656304753    0.48651121947018666    0.5093211755789441    
  0.488807799003051    0.47076106751021246    0.4887975863531704    0.509329614335844    0.46232164536674464    
  0.36255065041307605    0.31353266186933354    0.36249883984483416    0.4623607794029139    0.5093211755789441    
  0.5133988893392875    0.5055454157899397    0.47886894633978944    0.47887630825243077    0.5055519549330163    
  0.5134311617974677    0.46232159539773593    0.399292861837255    0.3993058281334105    0.46238648662794957    
  0.5133988893392875    0.5092882066297886    0.5055537525795455    0.48160240469121657    0.4692918330820812    