#     DFTpy    
  CRYSTAL 
    
  PRIMVEC    
  3.3670344827586205    0.0    0.0    
  0.0    3.3670344827586205    0.0    
  0.0    0.0    3.3670344827586205    
  PRIMCOORD    
  2    1    
  Si    0.0    0.0    0.0    
  Si    1.6835172413793102    1.6835172413793102    1.6835172413793102    
  BEGIN_BLOCK_DATAGRID_3D    
  3d_datagrid_density    
  BEGIN_DATAGRID_3D#0    
  15    15    15    
  0.0    0.0    0.0    
  3.3670344827586205    0.0    0.0    
  0.0    3.3670344827586205    0.0    
  0.0    0.0    3.3670344827586205    
  0.061834178596090604    0.11243355666326234    0.27825903224468834    0.38406517222969255    0.3031902227191505    
  0.19410861927766995    0.13254763851480444    0.11417414595816316    0.1325476319248251    0.19410862023240974    
  0.3031902076146843    0.3840651418029774    0.2782590372277555    0.112433548717539    0.061834178596090604    
  0.11243356822715847    0.17018754329195365    0.32144497257158    0.3840095825808966    0.29189836902101407    
  0.18824163668527266    0.13054452111597425    0.1132708963700821    0.1305445179806369    0.18824161353967866    
  0.291898358426193    0.3840095816913268    0.32144497422231666    0.17018755826990137    0.11243356822715847    
  0.2782590705412393    0.3214449517639838    0.387750736238543    0.3590896029143459    0.2582255288929463    
  0.17232054755512555    0.12546045279634518    0.11123547501220636    0.1254604397381818    0.17232055052398196    
  0.25822554166360784    0.3590896039936169    0.38775073351409267    0.32144497124802923    0.2782590705412393    
  0.3840652528722119    0.3840095390935882    0.35908959744461827    0.2907745305533845    0.21105722070738162    
  0.15205809974781034    0.11960375414414841    0.10947895323799461    0.11960373742190732    0.1520580790258694    
  0.2110572334240097    0.29077459008911033    0.35908965162787376    0.38400959389287403    0.3840652528722119    
  0.30319023334009565    0.29189834349167215    0.25822555756489435    0.21105724981103144    0.16629197881347493    
  0.1337880283339993    0.11534612861871507    0.10947937278308457    0.1153461088823025    0.1337880304349829    
  0.16629198090405084    0.2110572422995481    0.2582255484227759    0.291898368087987    0.30319023334009565    
  0.1941086549081185    0.18824159031209156    0.17232053048187043    0.15205808556711942    0.13378801057587006    
  0.12060873874758499    0.11335753874068774    0.11123504503121545    0.11335752769078039    0.12060872478220207    
  0.1337880407832387    0.15205809197966608    0.1723205125236786    0.1882416564405156    0.1941086549081185    
  0.13254766478606764    0.13054451447997825    0.1254604463678263    0.11960373530828769    0.11534612168159707    
  0.11335754511350327    0.11306609730791653    0.11327134851477216    0.11306608597371769    0.11335754005966771    
  0.11534611153616615    0.11960376030978591    0.1254604593796031    0.13054451806303705    0.13254766478606764    
  0.11417414416266708    0.113270875450068    0.11123547803709677    0.10947890800880403    0.10947937027139196    
  0.11123502169773417    0.11327133044424319    0.11417370115837805    0.11327131789526877    0.1112350252636536    
  0.10947936638630207    0.1094789208511538    0.11123547120481392    0.11327087622576619    0.11417414416266708    
  0.13254766548079705    0.130544513143417    0.1254604455011614    0.11960374306511386    0.11534612618585244    
  0.11335755169577268    0.1130660812139346    0.11327134873403774    0.11306608034643408    0.11335754094186995    
  0.11534610445646246    0.11960374048038949    0.1254604570775643    0.13054450882484833    0.13254766548079705    
  0.19410864089244803    0.18824160765874987    0.172320533315558    0.15205808150605338    0.13378803093489078    
  0.12060872628148797    0.11335753130658743    0.11123504276818244    0.1133575386285485    0.12060872994619878    
  0.1337880358466089    0.15205808856515957    0.1723205457452933    0.18824163569990077    0.19410864089244803    
  0.30319024526154476    0.2918983236425868    0.25822554422719823    0.21105722436762145    0.16629197645954377    
  0.13378802586970326    0.11534612902552267    0.10947938065905398    0.1153461202310448    0.1337880244149343    
  0.16629197728281822    0.21105725097339276    0.25822555868715497    0.29189836785300927    0.30319024526154476    
  0.3840652382492654    0.3840095736828223    0.3590896479704637    0.2907745582487182    0.21105724451522292    
  0.15205809526961978    0.11960375643782932    0.10947894738023868    0.11960373675743723    0.1520580836466956    
  0.2110572401746833    0.2907745776771181    0.35908963163147695    0.3840096017044348    0.3840652382492654    
  0.2782590818398754    0.3214449346284537    0.38775069478571855    0.35908962484881984    0.2582255250727437    
  0.17232054271265476    0.1254604543273481    0.11123548737536018    0.12546044043952717    0.17232054576456532    
  0.25822555017497206    0.3590896269865405    0.38775072120020215    0.32144498518112763    0.2782590818398754    
  0.11243357220434379    0.1701875462443793    0.3214449687299592    0.38400958834964505    0.2918983711375264    
  0.18824163397289345    0.13054452460141724    0.11327089965443488    0.13054451201996758    0.18824160859327493    
  0.29189836057628393    0.384009603535963    0.3214449850364595    0.1701875581940107    0.11243357220434379    
  0.061834178596090604    0.11243355666326234    0.27825903224468834    0.38406517222969255    0.3031902227191505    
  0.19410861927766995    0.13254763851480444    0.11417414595816316    0.1325476319248251    0.19410862023240974    
  0.3031902076146843    0.3840651418029774    0.2782590372277555    0.112433548717539    0.061834178596090604    
  0.11243355941247157    0.1701875504910863    0.32144494768793946    0.38400956595315144    0.2918983767424513    
  0.18824162379334014    0.1305445094091347    0.11327090221330512    0.13054450907101905    0.1882416236803045    
  0.2918983795974726    0.38400956720940216    0.32144494553860037    0.17018756178708772    0.11243355941247157    
  0.17018758285195068    0.22822100037814919    0.3548375867287553    0.38005688158097295    0.28147458426249095    
  0.18345668135226934    0.12934844614016067    0.11306655680401317    0.1293484529322724    0.1834566577462895    
  0.2814745709439771    0.3800568721584723    0.35483760497628786    0.22822100166743894    0.17018758285195068    
  0.3214449862826779    0.35483759758195976    0.3949438868559048    0.3496740290869193    0.2510683879829649    
  0.17077490938492643    0.12682387042161225    0.11335710445652691    0.12682386973568044    0.17077490647009086    
  0.2510683960678133    0.34967403405160813    0.3949438804968471    0.3548376141340591    0.3214449862826779    
  0.38400966400779013    0.3800568674344928    0.34967403539990755    0.28296144688910574    0.20929557095666745    
  0.15504927927716694    0.12486389512712202    0.11534658924089998    0.12486387942563013    0.15504927702788576    
  0.20929557468361365    0.2829614793778617    0.3496740443637374    0.3800569032736398    0.38400966400779013    
  0.29189841893649615    0.28147456546399124    0.25106839299272665    0.20929557865308154    0.16993227061771413    
  0.14126580966594263    0.12486436035909171    0.11960330169891524    0.12486436255848189    0.14126582564344922    
  0.16993225291579211    0.20929557350101805    0.25106841067685154    0.2814745957293591    0.29189841893649615    
  0.18824163962247756    0.1834566395622366    0.17077490766801684    0.15504926596990237    0.1412658187439688    
  0.13174864237612488    0.12682339802779485    0.12546094401873037    0.12682337792381038    0.13174863484774726    
  0.14126582701204646    0.15504927865687296    0.17077489319514322    0.18345668213774585    0.18824163962247756    
  0.1305445389891706    0.12934843276068692    0.12682386238997279    0.12486388354077607    0.12486435547040453    
  0.12682338775986385    0.12934892732977554    0.13054404450961704    0.12934892707150247    0.12682339641728738    
  0.12486435433877699    0.12486389184463945    0.1268238666072971    0.1293484463665357    0.1305445389891706    
  0.11327088018977302    0.11306654487776524    0.11335709519730515    0.11534655983501012    0.11960329875492756    
  0.12546092352457203    0.13054403165421868    0.13254815499680353    0.13054403088924496    0.1254609220909103    
  0.11960329250414088    0.11534657613985269    0.11335709204055405    0.11306653473585614    0.11327088018977302    
  0.13054454293323658    0.1293484422494425    0.126823863387151    0.12486389926958509    0.12486436003403022    
  0.1268234132347526    0.12934892610445212    0.13054406035763505    0.12934891681422167    0.12682339476368937    
  0.12486435624925094    0.1248638851360374    0.12682385967071957    0.1293484394231584    0.13054454293323658    
  0.1882416527005873    0.18345666175810718    0.17077490904029624    0.1550492549195866    0.1412658306010819    
  0.13174862215914782    0.1268234029128433    0.12546093791768695    0.1268233995118009    0.13174862216534589    
  0.14126582492498532    0.15504927100238383    0.1707749137557483    0.18345667482117775    0.1882416527005873    
  0.2918984334779922    0.2814745445860534    0.2510684166265358    0.20929555978934003    0.16993225084217256    
  0.14126582083381634    0.12486437214766695    0.11960329609784623    0.12486434605490745    0.14126583353604996    
  0.16993227374406836    0.20929556880613767    0.25106841472524055    0.28147457284024796    0.2918984334779922    
  0.3840096391655872    0.38005685366499653    0.3496740463761017    0.28296147682252065    0.20929556780477848    
  0.1550492739972688    0.12486389596628003    0.1153465939462971    0.12486388784629199    0.15504926258517016    
  0.20929555218308762    0.2829614595542178    0.3496740470629546    0.3800569003473889    0.3840096391655872    
  0.32144498272988803    0.35483757903192276    0.39494386127956677    0.34967403737377795    0.25106837611585375    
  0.1707749305902378    0.12682386536915002    0.11335710945028166    0.12682385307442323    0.17077491179526594    
  0.25106839023465993    0.3496740395891654    0.39494385258677783    0.35483763378585315    0.32144498272988803    
  0.170187579680249    0.2282210066135253    0.3548376110314912    0.38005690657774177    0.2814745732487777    
  0.1834566689986047    0.12934845383981844    0.11306654505327077    0.1293484452588885    0.1834566703657351    
  0.28147458940473    0.38005686093309093    0.35483762060501234    0.22822101171638198    0.170187579680249    
  0.11243355941247157    0.1701875504910863    0.32144494768793946    0.38400956595315144    0.2918983767424513    
  0.18824162379334014    0.1305445094091347    0.11327090221330512    0.13054450907101905    0.1882416236803045    
  0.2918983795974726    0.38400956720940216    0.32144494553860037    0.17018756178708772    0.11243355941247157    
  0.27825906105485765    0.32144494598440876    0.3877507030133632    0.3590896307508451    0.2582255485842488    
  0.17232052149161636    0.12546045459298194    0.11123549035679063    0.1254604365681976    0.17232052446243307    
  0.2582255429165031    0.35908961512321624    0.38775071881211787    0.32144495166052944    0.27825906105485765    
  0.3214449786499647    0.3548375888374799    0.39494387556106736    0.34967403829203    0.25106840351542103    
  0.1707749319794971    0.1268238725960044    0.11335709638426292    0.12682386110191474    0.17077491640894477    
  0.25106838470157805    0.3496740347102558    0.39494387812490517    0.35483759646656404    0.3214449786499647    
  0.3877507440064389    0.3949438711779445    0.38177661893304743    0.31570804145416315    0.231252766398992    
  0.16728929519044952    0.13174813948147535    0.12060918505657894    0.13174813194325868    0.16728929945704296    
  0.23125275947750654    0.3157080553389787    0.38177663382844185    0.39494388265624253    0.3877507440064389    
  0.3590896975476445    0.3496740043824489    0.3157080592345407    0.2607611182068731    0.20533148909758844    
  0.16452793318954698    0.14126632434108416    0.1337875615496745    0.14126630866929762    0.16452791104912723    
  0.20533148032396722    0.26076115597807514    0.3157080693579375    0.349674037178899    0.3590896975476445    
  0.25822559194751854    0.25106838941100645    0.23125278495060414    0.20533150212569778    0.18152970036834065    
  0.1645284435456492    0.1550487658643671    0.15205862601697007    0.1550487348446196    0.1645284355313324    
  0.18152970878399985    0.20533149277970256    0.23125278770822366    0.2510683962722425    0.25822559194751854    
  0.17232054169183642    0.1707748967100979    0.1672893005361718    0.16452790898791114    0.1645284211685535    
  0.1672887698288113    0.17077545632091579    0.17232001709928166    0.17077543115330082    0.16728876743836024    
  0.16452843967492556    0.16452792233254776    0.16728929569411255    0.17077492565867539    0.17232054169183642    
  0.12546046437924355    0.12682385444421654    0.13174813611476718    0.14126632808825942    0.1550487485018993    
  0.17077545215830506    0.18345611785173052    0.18824221224105012    0.18345609651690964    0.17077545116624115    
  0.15504875896461082    0.1412663246973686    0.13174813996370927    0.12682385768264412    0.12546046437924355    
  0.11123547010378786    0.11335708959462992    0.12060918131916158    0.13378753845557478    0.15205861495372988    
  0.17231998103808022    0.18824216438831992    0.19410808364767224    0.18824218347124524    0.17231999958716623    
  0.15205860022278425    0.13378755106692033    0.12060917029960941    0.1133570803571482    0.11123547010378786    
  0.12546046505118302    0.12682385218941503    0.13174812870348737    0.14126631271522447    0.1550487539065757    
  0.17077546558445347    0.18345609264309845    0.18824222317161568    0.18345608517124024    0.17077544221393579    
  0.15504873836316976    0.14126631506323833    0.1317481457545019    0.1268238542372802    0.12546046505118302    
  0.17232054608728584    0.170774904962263    0.16728929598761372    0.16452791630598265    0.16452844218851484    
  0.16728878582930382    0.17077543666018172    0.172320010782767    0.1707754214570127    0.16728876516825264    
  0.16452843295163724    0.16452791404318684    0.16728929357912548    0.1707749143527    0.17232054608728584    
  0.2582255855582492    0.251068367764881    0.23125278277940992    0.2053314760363842    0.18152969667942132    
  0.16452844586342882    0.1550487712472667    0.15205862173522894    0.1550487448395403    0.16452842866754652    
  0.18152971194290693    0.20533146587135745    0.23125279418994146    0.2510683997561537    0.2582255855582492    
  0.35908968961296    0.34967399920189035    0.31570808131451505    0.26076114736089784    0.205331495053053    
  0.1645279243134419    0.14126631652879135    0.13378756776006834    0.14126631134704257    0.16452792044036355    
  0.20533147172977395    0.26076113971220055    0.3157080773247843    0.34967403664131114    0.35908968961296    
  0.3877507657979316    0.39494384066392435    0.3817766183339536    0.31570805427073567    0.2312527514408123    
  0.16728930786142782    0.13174814390071526    0.12060918861080594    0.1317481400078711    0.16728929916317975    
  0.2312527759592658    0.31570805487456444    0.3817766265362387    0.39494388379251444    0.3877507657979316    
  0.32144499622684075    0.35483759409554116    0.39494388602879926    0.349674041076919    0.25106839092033095    
  0.17077491598238256    0.12682386264597426    0.113357104296656    0.12682385627664902    0.17077490650663177    
  0.25106839410059856    0.3496740223537205    0.39494386641173357    0.3548376069773151    0.32144499622684075    
  0.27825906105485765    0.32144494598440876    0.3877507030133632    0.3590896307508451    0.2582255485842488    
  0.17232052149161636    0.12546045459298194    0.11123549035679063    0.1254604365681976    0.17232052446243307    
  0.2582255429165031    0.35908961512321624    0.38775071881211787    0.32144495166052944    0.27825906105485765    
  0.3840652137534828    0.38400956666005914    0.35908963288270657    0.29077455030816707    0.21105724964956862    
  0.15205809081128224    0.11960375824270005    0.10947894265397125    0.11960373737827923    0.15205810017839147    
  0.21105723730687873    0.29077454151040605    0.35908962709299486    0.38400958659295825    0.3840652137534828    
  0.3840096157789775    0.38005689544596305    0.34967407003481293    0.28296144123275013    0.2092955662327662    
  0.15504928790710232    0.12486389137663821    0.1153465945148329    0.1248638833853302    0.15504928362986375    
  0.2092955419416169    0.2829614367607583    0.349674046380054    0.3800568745477295    0.3840096157789775    
  0.3590896769924569    0.3496740204577916    0.3157080736101047    0.2607611361816288    0.2053314852781819    
  0.16452793396864585    0.14126630774286128    0.13378756818035237    0.1412663183788189    0.16452792800619156    
  0.20533147872892993    0.2607611330897205    0.31570807187675587    0.34967404895454757    0.3590896769924569    
  0.2907745967414723    0.28296142197939145    0.26076113773835197    0.23071400916065835    0.2022523536031287    
  0.1815302705771254    0.16993173591732114    0.1662925409511101    0.16993170948883937    0.18153023398197818    
  0.20225236278233885    0.2307140346080717    0.26076114349905477    0.2829614457920854    0.2907745967414723    
  0.21105726400693772    0.20929554080615834    0.2053314914959388    0.2022523850809345    0.202252950363314    
  0.20533088157503854    0.20929615840075264    0.2110566667418548    0.20929613980465267    0.2053309001997274    
  0.20225294275340108    0.20225236440058716    0.2053314909833932    0.20929555646010997    0.21105726400693772    
  0.15205812393334472    0.15504924837663275    0.1645279129668739    0.18153023734378979    0.2053308746050404    
  0.2312534203447582    0.25106775616991717    0.2582262163012812    0.2510677396336458    0.23125343238379517    
  0.2053308883947039    0.18153025650249988    0.1645279100356343    0.15504929109532445    0.15205812393334472    
  0.1196037794088613    0.12486389655099557    0.1412663232844034    0.16993174499529057    0.2092961500763397    
  0.25106777300956196    0.28147529275508565    0.29189771260859604    0.28147526002374884    0.25106775837863493    
  0.20929614039170313    0.16993172729087175    0.1412663270914056    0.12486390316987406    0.1196037794088613    
  0.1094789313300488    0.1153465731595695    0.13378756231992897    0.16629249987910272    0.21105664320855716    
  0.2582261898857372    0.2918976832705783    0.3031909541135287    0.29189766927799227    0.25822618347134574    
  0.21105664903115037    0.16629250456955666    0.13378755045077836    0.11534657785017666    0.1094789313300488    
  0.11960376662796238    0.12486389386002134    0.14126632028425268    0.1699317352321265    0.2092961674084712    
  0.25106777189225443    0.28147524875213675    0.291897717846689    0.28147524173255234    0.2510677649475544    
  0.20929613658629942    0.16993171617773373    0.14126633355218848    0.12486388206406508    0.11960376662796238    
  0.1520581111844246    0.15504927602762392    0.1645279329296719    0.18153024205203466    0.20533089106784794    
  0.23125340496333438    0.2510677696124707    0.2582262264407805    0.2510677486590816    0.23125340200473538    
  0.2053308818125729    0.18153025066276388    0.16452792624328158    0.1550492849721266    0.1520581111844246    
  0.21105727242929698    0.20929552941314578    0.2053314849713121    0.20225236780023265    0.20225293976649086    
  0.20533089757464876    0.2092961516855398    0.21105667078800522    0.20929612769113662    0.20533088574440594    
  0.20225296145367125    0.2022523773303978    0.2053314924927523    0.20929556344745498    0.21105727242929698    
  0.2907746006726226    0.2829614170885964    0.2607611442081872    0.23071403316521855    0.2022523496299331    
  0.18153025139844253    0.16993173552079469    0.16629251330442538    0.16993171641343285    0.18153025628685512    
  0.2022523510761526    0.23071401120567978    0.26076116176073466    0.2829614628523813    0.2907746006726226    
  0.35908964490288847    0.34967403715051254    0.3157080876442407    0.26076112145566716    0.20533145988838278    
  0.1645279597055871    0.14126632272436174    0.13378757704888372    0.14126631303504036    0.16452791973962175    
  0.20533145525169522    0.2607611311219813    0.3157080570428993    0.3496740501436577    0.35908964490288847    
  0.3840096019303884    0.38005688174420743    0.34967405033520443    0.28296147518437725    0.20929555070592232    
  0.15504927692650725    0.12486389494358073    0.11534658787200468    0.12486389341788393    0.1550492876864672    
  0.20929555917282608    0.28296145665274525    0.349674046374752    0.3800568733275419    0.3840096019303884    
  0.3840652137534828    0.38400956666005914    0.35908963288270657    0.29077455030816707    0.21105724964956862    
  0.15205809081128224    0.11960375824270005    0.10947894265397125    0.11960373737827923    0.15205810017839147    
  0.21105723730687873    0.29077454151040605    0.35908962709299486    0.38400958659295825    0.3840652137534828    
  0.3031902173702918    0.29189836430183846    0.258225551164164    0.21105722673878985    0.1662919855139513    
  0.1337880280147358    0.11534612013197347    0.10947939116825255    0.11534610719251011    0.13378803086978322    
  0.16629197224904857    0.21105723150471364    0.25822554114624097    0.29189836840558947    0.3031902173702918    
  0.29189839951575264    0.28147458985545765    0.251068409359837    0.20929554925472518    0.1699322837316714    
  0.14126583097066572    0.1248643550949764    0.11960332050016685    0.12486435330182237    0.141265840362758    
  0.16993225737295328    0.20929553746481536    0.25106840143768305    0.2814745661077068    0.29189839951575264    
  0.2582255775121877    0.25106839071206516    0.2312527847717346    0.20533148198835788    0.18152971204731894    
  0.1645284672835319    0.15504874671957344    0.1520586341666007    0.15504875182775235    0.16452846472138238    
  0.18152970940313223    0.2053314787230346    0.23125278631480434    0.25106841044781514    0.2582255775121877    
  0.21105727998713927    0.2092955404622411    0.20533148275343766    0.2022523611357397    0.20225293635671024    
  0.20533089812043612    0.20929615837278254    0.21105667869330158    0.20929613973142025    0.2053308783005723    
  0.2022529405164523    0.20225237647904556    0.20533149025201397    0.20929555749736792    0.21105727998713927    
  0.1662920027661163    0.16993224849994698    0.18152971012447924    0.20225296253269334    0.2307134122963198    
  0.26076176506663534    0.28296079579208616    0.29077526731712056    0.28296077505884165    0.2607617812365715    
  0.23071338459311602    0.2022529536553384    0.18152972531789716    0.1699322683430139    0.1662920027661163    
  0.13378805080373132    0.14126581045625536    0.16452844461337587    0.20533087313695184    0.26076175535635415    
  0.31570739797541886    0.3496747838881729    0.35908891734246784    0.3496747511457899    0.3157074031079773    
  0.2607617837559919    0.20533089396517826    0.1645284392573644    0.14126583732451697    0.13378805080373132    
  0.11534614701358493    0.12486435687447955    0.15504875379559882    0.2092961520492668    0.2829607734964334    
  0.3496747847658968    0.38005613682797335    0.38401041918784007    0.3800560970794018    0.34967476858985685    
  0.2829607790075395    0.209296159045005    0.15504876599695633    0.12486437015806415    0.11534614701358493    
  0.10947937716946614    0.1196032937053717    0.15205860678151123    0.21105662444214374    0.2907752434762099    
  0.359088879623244    0.38401035030635927    0.38406446250073806    0.3840103558841579    0.35908887345923096    
  0.2907752216449968    0.21105663944784148    0.15205861196423004    0.11960329373247797    0.10947937716946614    
  0.11534613789907837    0.12486435668395292    0.1550487432738799    0.2092961571188223    0.2829608006710694    
  0.34967478300271626    0.38005610873169454    0.38401040752618876    0.3800560966690408    0.34967477418942355    
  0.2829607782259015    0.2092961407506538    0.15504876581638868    0.12486435854670373    0.11534613789907837    
  0.1337880575107374    0.14126582059191337    0.16452845676917904    0.20533089038360638    0.26076178679458134    
  0.3157073673439032    0.34967479294697507    0.35908892137089093    0.3496747642703902    0.31570737745299104    
  0.26076175269887414    0.2053308817712897    0.16452846449841138    0.1412658350932888    0.1337880575107374    
  0.16629200779826162    0.16993224097991375    0.18152971477194993    0.2022529370699932    0.23071340655163808    
  0.26076178970108316    0.28296078017028026    0.29077526170033624    0.28296076169175466    0.2607617810517294    
  0.23071340929376832    0.20225296019000472    0.18152970142557426    0.16993226176931003    0.16629200779826162    
  0.21105727672526037    0.20929552744897234    0.20533148075511787    0.20225237704118282    0.20225293487346155    
  0.20533089772902696    0.20929616845581311    0.21105665238085553    0.20929613894089702    0.20533089753566447    
  0.20225292336444964    0.20225237116570796    0.20533150288185537    0.20929556870592753    0.21105727672526037    
  0.25822555365210736    0.25106838539568127    0.2312527997340953    0.2053314716060235    0.18152968495832852    
  0.16452848496738043    0.15504875182820757    0.15205863647902687    0.1550487454628183    0.16452846026833268    
  0.18152968967149552    0.20533148163896991    0.23125277553957568    0.25106840082032256    0.25822555365210736    
  0.29189839658864436    0.28147457424060296    0.2510684106427411    0.20929557298211504    0.16993225362057898    
  0.1412658350088426    0.12486435719887054    0.11960330399827719    0.12486434967771896    0.1412658411120229    
  0.16993225929616676    0.2092955635143543    0.2510684067940853    0.2814745805896013    0.29189839658864436    
  0.3031902173702918    0.29189836430183846    0.258225551164164    0.21105722673878985    0.1662919855139513    
  0.1337880280147358    0.11534612013197347    0.10947939116825255    0.11534610719251011    0.13378803086978322    
  0.16629197224904857    0.21105723150471364    0.25822554114624097    0.29189836840558947    0.3031902173702918    
  0.1941086362815094    0.18824161060140432    0.17232053711908496    0.15205808386028768    0.13378804886100842    
  0.12060870714013336    0.11335754112358785    0.11123503662902241    0.11335752449728247    0.120608711533883    
  0.133788031050658    0.15205808434234097    0.17232053823260426    0.18824160513069527    0.1941086362815094    
  0.18824163967678348    0.18345665739176284    0.17077490467288067    0.15504927128486434    0.1412658248385885    
  0.1317486447063665    0.1268233914209732    0.12546093603232333    0.12682338148069014    0.13174862332906476    
  0.14126581607710162    0.1550492540723073    0.17077489946782873    0.1834566596458794    0.18824163967678348    
  0.17232053880766365    0.17077489596425435    0.16728928826885836    0.16452790156583738    0.16452844555789697    
  0.16728876124647932    0.17077544469796027    0.17232001342134753    0.17077543574983203    0.16728876147822228    
  0.16452843713396387    0.16452791763427652    0.16728930047675222    0.1707749064042797    0.17232053880766365    
  0.15205813225478396    0.15504924330432684    0.16452791779114045    0.18153024785395075    0.20533090988062785    
  0.23125340068357947    0.251067755276321    0.25822623021655045    0.2510677429818452    0.23125339172776782    
  0.2053308972513506    0.18153026798827698    0.16452792828235827    0.15504927458378087    0.15205813225478396    
  0.13378806674216398    0.14126581972149152    0.16452845845173203    0.20533091102690768    0.2607617742294672    
  0.31570735726484156    0.34967478615744363    0.359088905158015    0.34967475665577724    0.31570735602296723    
  0.2607617848157922    0.20533090319050162    0.1645284534758514    0.1412658186621687    0.13378806674216398    
  0.12060872393168681    0.13174861178852004    0.16728877184762672    0.23125336590203902    0.31570733298188897    
  0.3817774177571055    0.3949431071636637    0.3877515310021867    0.3949430657866072    0.38177742312796153    
  0.31570736646540576    0.23125339107329182    0.16728875754672484    0.13174864059026448    0.12060872393168681    
  0.11335754839415679    0.12682338882954208    0.1707754431421388    0.2510677659698421    0.3496747639335768    
  0.3949431179740766    0.3548383659244762    0.32144428589278895    0.3548383433581881    0.39494309598781524    
  0.34967477134447783    0.2510677479292512    0.170775443597493    0.12682338670452986    0.11335754839415679    
  0.1112350228585973    0.12546092648275783    0.17231999763960706    0.2582261815399718    0.359088878763528    
  0.38775147488973344    0.3214442027979748    0.27825977405212804    0.3214442208042951    0.38775149207723264    
  0.35908886466763196    0.25822619768070487    0.17231999310965102    0.12546091538544363    0.1112350228585973    
  0.1133575494224177    0.12682338091157414    0.17077543097780176    0.25106774251316055    0.34967479717253824    
  0.3949431121494932    0.35483833992696767    0.3214442791008373    0.35483832093130296    0.3949430922058254    
  0.3496747621265406    0.2510677274062113    0.17077545284515708    0.1268233797238721    0.1133575494224177    
  0.12060872714625025    0.13174861494972642    0.16728876715268062    0.23125339158592037    0.3157073503872358    