#     DFTpy    
  CRYSTAL 
    
  PRIMVEC    
  4.3056199588270045    1.8013118378954485e-05    -4.516220689655173e-13    
  -2.1527943795944777    3.728785377771269    -8.836206896551725e-12    
  -7.426372413793104e-13    -1.720540965517241e-11    7.079108211648202    
  PRIMCOORD    
  4    1    
  Si    1.0718343391443493e-05    2.4858627467719754    3.9811051991267914    
  Si    2.15281486088409    1.242940644087172    0.44155104102890386    
  Si    1.0718345009037577e-05    2.4858627467709495    6.637557118342045    
  Si    2.1528148608910773    1.2429406441147874    3.098003064780089    
  BEGIN_BLOCK_DATAGRID_3D    
  3d_datagrid_density    
  BEGIN_DATAGRID_3D#0    
  19    19    31    
  0.0    0.0    0.0    
  4.3056199588270045    1.8013118378954485e-05    -4.516220689655173e-13    
  -2.1527943795944777    3.728785377771269    -8.836206896551725e-12    
  -7.426372413793104e-13    -1.720540965517241e-11    7.079108211648202    
  0.02728460105858974    0.02885597726609712    0.03424346714120967    0.045711991229522256    0.0676109063502659    
  0.10608195009898087    0.16514229360398008    0.23857777337167793    0.3039713939597307    0.3307314158767991    
  0.30397139196479844    0.23857780535134573    0.1651422918643215    0.10608192450812097    0.06761092758473589    
  0.04571200367966327    0.03424346430462196    0.028855978552136965    0.02728460105858974    0.028855976535787305    
  0.028856757225285648    0.03234267403458154    0.0408717638057479    0.058008372882276796    0.08963271774181117    
  0.1421480844269248    0.21549374840345903    0.29408133405782866    0.3468452195868186    0.34682140872776357    
  0.2941000323699001    0.21553060982645575    0.14211609303705788    0.08962965378029336    0.0580164769471227    
  0.040870457355530396    0.03234385956698727    0.028855976535787305    0.034243470586508895    0.03234267187189587    
  0.03424331020212994    0.04087047253741821    0.05539581083612747    0.08374129889675394    0.1338680553022977    
  0.21070043153370466    0.30363709158849383    0.38101201437691773    0.4106635383503786    0.3810175667702668    
  0.3035793551022819    0.21071165164529196    0.13390561399640455    0.083736582427312    0.05539170205492838    
  0.04087046998608885    0.034243470586508895    0.04571200277783005    0.04087176800618252    0.04087047446878407    
  0.045713145362325236    0.058008110183393934    0.08373660074648058    0.13223917138480903    0.21192246905054304    
  0.3146568887006146    0.40173440993090315    0.44145495855807304    0.44149061641583404    0.4017805663769069    
  0.3146686093408875    0.21190756432516286    0.1322236523392202    0.0837365806612964    0.05801648765498605    
  0.04571200277783005    0.06761091293278848    0.05800837651153255    0.05539581064938095    0.0580081096437376    
  0.0676194435266663    0.08962853091775394    0.13388319966899898    0.21191068004885552    0.31872352459828024    
  0.4008280768628531    0.41043907523936407    0.39760716935230556    0.4103466793652451    0.4008517141130046    
  0.31872904662474977    0.2119075506037027    0.13390560467813212    0.0896296461319097    0.06761091293278848    
  0.10608193505112248    0.08963271941388372    0.08374128169239525    0.08373657102420125    0.08962852990244749    
  0.10607735645881794    0.1421494547551697    0.2106960024477156    0.31466632936821454    0.40086733963138366    
  0.3835537409330272    0.3178260814963396    0.31790055683181345    0.38354361965397393    0.40085170341399984    
  0.31466860425516036    0.21071168210821106    0.14211612010972222    0.10608193505112248    0.165142292785975    
  0.1421480969708989    0.1338680638058573    0.13223915005265743    0.133883184751    0.14214945891962863    
  0.1651162191181932    0.2155431878574793    0.30359465903078975    0.4017806564913552    0.4103472670436597    
  0.3179014084595471    0.26536573275302394    0.3179006012889342    0.4103467141900814    0.4017805975323478    
  0.303579399177263    0.21553063594946062    0.165142292785975    0.2385777877264696    0.21549374621449185    
  0.21070041442432735    0.21192246272548945    0.21191062598079144    0.21069597546212845    0.2155431577367497    
  0.23856321328505262    0.294106751092656    0.3810180858682825    0.44148384188158707    0.39759899637493307    
  0.3179013281797169    0.31782604395637226    0.397607095407944    0.4414906602386001    0.38101752324498167    
  0.2941000672016608    0.2385777877264696    0.30397139363749515    0.29408133118022534    0.3036370457893215    
  0.31465686679447524    0.3187235242096946    0.31466628992677453    0.3035946370488887    0.294106725174036    
  0.30399173701504517    0.34682702725771586    0.4106897632437979    0.4414837612272424    0.4103472080319779    
  0.383553717475553    0.4104391216613538    0.4414550009613199    0.4106635022655538    0.3468214548429565    
  0.30397139363749515    0.3307314258438837    0.346845278575661    0.3810120137357311    0.4017343389857058    
  0.40082810264770863    0.4008673191503558    0.4017805959722574    0.38101810058121605    0.34682705222961013    
  0.3307634932349672    0.34682705270845854    0.38101807376733776    0.4017806206952533    0.40086731081916827    
  0.4008281594985136    0.4017343774726772    0.3810119930593873    0.3468453078641914    0.3307314258438837    
  0.3039713817491825    0.34682138747830404    0.4106635055840375    0.44145494012944864    0.41043907497544907    
  0.3835537582558792    0.41034728671433585    0.44148379853189457    0.4106897680210788    0.3468270442206372    
  0.30399178397046334    0.29410674384680396    0.3035946138443962    0.3146663224187694    0.3187235738434376    
  0.3146568750025613    0.303637054468383    0.29408139124636223    0.3039713817491825    0.2385777657199782    
  0.29410003859531864    0.3810175363402968    0.4414906470953925    0.39760709510013215    0.31782609426550534    
  0.3179014184160742    0.3975989543124232    0.4414838180913447    0.3810180609039834    0.2941067755028362    
  0.23856319634342    0.21554314222397566    0.210695968014038    0.2119106428149315    0.21192246097910092    
  0.2107004354410887    0.21549377914730097    0.2385777657199782    0.16514229664148558    0.21553062544715174    
  0.3035793798091809    0.4017805363141903    0.41034670684839214    0.3179005939026141    0.2653657448256813    
  0.31790141094767593    0.41034729403545633    0.4017806299941662    0.30359465810202335    0.21554314781359804    
  0.16511620961329782    0.1421494506790911    0.13388321024668992    0.1322391692800121    0.1338680614805453    
  0.14214810791951338    0.16514229664148558    0.10608194097168865    0.14211609491267618    0.21071164803091602    
  0.3146685769136129    0.40085170509849555    0.38354362707380746    0.3179006256626122    0.31782613598028925    
  0.3835537593055036    0.4008672752037392    0.31466629021046216    0.21069599155180552    0.14214944872744437    
  0.10607735473297945    0.08962854203098189    0.08373658034477843    0.08374128287759543    0.08963272012396843    
  0.10608194097168865    0.06761091464930925    0.08962964426934333    0.13390559437544322    0.21190755074694598    
  0.3187290174758071    0.40085169568013185    0.4103467150149262    0.39760710766478385    0.41043909684345287    
  0.4008281002935689    0.31872351111995795    0.21191065062879003    0.13388316870868153    0.08962853686620138    
  0.06761945549669247    0.05800812342195439    0.05539579894541174    0.05800838724557864    0.06761091464930925    
  0.04571199888753178    0.058016475395665665    0.08373658885290021    0.13222362826977735    0.21190755153137017    
  0.31466861400990914    0.40178055206007535    0.4414906667529637    0.44145499058864335    0.40173437966225856    
  0.3146568517903914    0.2119224766116122    0.13223917315575526    0.08373656871265635    0.0580081165365519    
  0.04571315259735371    0.04087047735063841    0.04087176451415656    0.04571199888753178    0.03424347589599117    
  0.04087046466002662    0.055391700356348945    0.0837365887303838    0.1339055924280586    0.2107116692610067    
  0.3035793698602027    0.38101758521397183    0.41066348027438343    0.3810119673352716    0.30363708733377537    
  0.21070044465831772    0.13386805173243294    0.08374127852290005    0.05539581104587523    0.04087048180544531    
  0.034243305065603184    0.032342677146222416    0.03424347589599117    0.028855975963949575    0.03234385899926032    
  0.04087046144812525    0.05801647412969297    0.08962962826481116    0.14211609929088495    0.21553061560788442    
  0.2940999989886746    0.3468213776079171    0.34684522841304527    0.2940813303106276    0.2154937276790283    
  0.1421480656185851    0.08963270470595983    0.05800837998917292    0.04087176667486154    0.03234266540185083    
  0.02885677200666173    0.028855975963949575    0.02728460105858974    0.02885597726609712    0.03424346714120967    
  0.045711991229522256    0.0676109063502659    0.10608195009898087    0.16514229360398008    0.23857777337167793    
  0.3039713939597307    0.3307314158767991    0.30397139196479844    0.23857780535134573    0.1651422918643215    
  0.10608192450812097    0.06761092758473589    0.04571200367966327    0.03424346430462196    0.028855978552136965    
  0.02728460105858974    0.027069206502236206    0.0285744510222099    0.03374617628327465    0.04474759570834623    
  0.06562987562347351    0.10201868896635569    0.1575219170935944    0.2261626095097479    0.28704592328658335    
  0.3118894143526916    0.2870933858129502    0.22617142663511997    0.1574646461879794    0.10202847567085112    
  0.06564675589953008    0.044744776000350345    0.03374651963474068    0.028574266432409526    0.027069206502236206    
  0.02857426584108801    0.02857528038472546    0.032209756897622815    0.04115011385797473    0.05919601899291936    
  0.09250017665335222    0.1476867970425362    0.22460842288807176    0.30618822632895903    0.3601086769128528    
  0.36005121373203225    0.3061788205771172    0.22468353853496284    0.14767676244525157    0.09247911084582545    
  0.05920334974796341    0.04114864714785217    0.03221144760835568    0.02857426584108801    0.033746523329746016    
  0.031630730932977004    0.033746452941496544    0.04114837382232685    0.0574673292978813    0.08959174072061343    
  0.1467898806302158    0.23388059091332977    0.3354278439116026    0.4136244122109474    0.44128196249525076    
  0.4136483329450992    0.3353431933626838    0.23389641282057336    0.14682578358073142    0.08958579538667157    
  0.057468789165251055    0.041148660567196516    0.033746523329746016    0.044744775409927516    0.03907401309863891    
  0.03906858488011725    0.044750136968202306    0.059195730566665467    0.08959319779732465    0.14746399657692566    
  0.24177902418754954    0.35379369924945797    0.42505104806530963    0.43710215495492377    0.4371671264677092    
  0.4251293290285195    0.35379993001540216    0.24172592778890928    0.1474851878049563    0.08958579143514049    
  0.05920335962748743    0.044744775409927516    0.06564674695221635    0.053842507459733534    0.05062684183646045    
  0.053841660730953964    0.06564875285023039    0.09247555436210121    0.14682510999679843    0.24173327625076974    
  0.3582018983083592    0.40199845942972773    0.33977068235826063    0.2958093701142885    0.33962689854496264    
  0.4020195294487614    0.3582618231760394    0.2417259130373741    0.14682577762077453    0.0924791138529815    
  0.06564674695221635    0.10202849143553647    0.08076919329810572    0.07278457532314922    0.07277708698665637    
  0.08077751600422504    0.10201818906669337    0.14769559322873557    0.2338722103873277    0.3538187123913687    
  0.40206239003030164    0.2857505689593488    0.16962770908504743    0.16970350912487256    0.28575775455437735    
  0.4020195444949984    0.3537999185594223    0.23389642636507102    0.147676792930589    0.10202849143553647    
  0.1574646594963313    0.12491805870753611    0.11129223162221419    0.10793538237641337    0.11129372683135616    
  0.12491977313491852    0.1574629294487191    0.22468786143786157    0.33534507183477974    0.4251298114573167    
  0.3396274407561182    0.169703510140382    0.10830555765071768    0.1697035196153072    0.33962693723621074    
  0.42512937232872977    0.33534324231251383    0.22468356964861824    0.1574646594963313    0.22617141812785851    
  0.1858598288989992    0.1698143201657475    0.165341080291824    0.16535229393444223    0.1698049484747225    
  0.1858823244419853    0.2261563764897001    0.30621276289253047    0.41363755436324395    0.4371269485571651    
  0.2958169599011368    0.16970348506341937    0.1696277220946883    0.29580935144464854    0.43716713301209786    
  0.41364830789988516    0.30617888085550216    0.22617141812785851    0.2870933578456069    0.250970216708805    
  0.2414998295758428    0.24290806529784845    0.24480189377057016    0.2429120376431345    0.2414944510412271    
  0.25098696224034617    0.287094322388855    0.3600474766218416    0.4413521207148607    0.4371269503938279    
  0.3396274360777164    0.2857505938989888    0.33977074951755404    0.43710215055787893    0.4412819262095454    
  0.36005126942906135    0.2870933578456069    0.31188943450517054    0.2948304348863929    0.30366983341923215    
  0.3199211541318341    0.32927667197397736    0.32929965134784994    0.31991791407492115    0.3036899652783362    
  0.2948204599149778    0.31193829311062593    0.36004751317232647    0.41363758260752553    0.4251297711286823    
  0.4020623868263841    0.40199855248948996    0.4250509907126643    0.41362439017530434    0.36010878127245904    
  0.31188943450517054    0.2870459088716934    0.2948264803659964    0.3285168362094627    0.3665339524514271    
  0.38428848356098266    0.3860674196288294    0.38427371620313333    0.3665444864906853    0.32852765941465745    
  0.2948204524484817    0.2870943537001014    0.306212758283929    0.3353450331391735    0.35381865663976336    
  0.35820190949845687    0.3537936727243183    0.3354278446359489    0.3061882767478373    0.2870459088716934    
  0.2261625893406443    0.25101511780466745    0.3036699395287467    0.3665439723974983    0.4004504091785274    
  0.3991716448876819    0.3991865103920894    0.4004530758798919    0.36654450678479683    0.30368995656124625    
  0.25098695397269677    0.22615637143720305    0.224687841811913    0.23387215449959475    0.24173325028887313    
  0.24177900827748003    0.23388057380624275    0.22460844466969884    0.2261625893406443    0.1575219096615659    
  0.18586534784185707    0.24145947625231828    0.319924866833256    0.38427133173684574    0.3991861091931623    
  0.39347854138870875    0.399186548351736    0.3842737468163839    0.3199179579266049    0.24149445462587849    
  0.18588230638169134    0.15746290435670013    0.1476955839106696    0.1468250933717759    0.14746398408044292    
  0.1467898824709052    0.14768683215421163    0.1575219096615659    0.10201870306730126    0.12486657902773794    
  0.1698153460948595    0.24294167592574095    0.3292886233176417    0.3860645781563263    0.3991860952304399    
  0.39917169480963977    0.3860674201202143    0.32929962359971554    0.24291203456170513    0.169804957581866    
  0.12491976190534756    0.10201817729566842    0.0924755432221268    0.08959317932690312    0.08959172620512348    
  0.09250017853795875    0.10201870306730126    0.06562988731865448    0.08077566351841059    0.11133985559669113    
  0.16534482510278847    0.2447725956827026    0.3292886360880447    0.38427134581526284    0.4004503977117933    
  0.3842884519119525    0.3292766176928153    0.24480187629148295    0.1653523208086455    0.11129371321994244    
  0.08077751729954856    0.06564875817052825    0.05919573083599609    0.05746731993772831    0.05919602859366159    
  0.06562988731865448    0.04474759484655936    0.05385830661500697    0.07277966730919393    0.10789312590327091    
  0.1653448306490587    0.2429416989290424    0.3199248821139117    0.36654403198260166    0.3665339893090644    
  0.3199212132045684    0.24290808212855744    0.16534110251208178    0.10793540430515278    0.07277708286795007    
  0.05384165874015601    0.04475014867654991    0.04114836878554879    0.04115011203882533    0.04474759484655936    
  0.0337461782015769    0.039070829355576236    0.050612482134168864    0.0727796703176362    0.11133983824495192    
  0.16981535825613106    0.24145947559424025    0.3036699694433643    0.32851681167610103    0.3036697828600592    
  0.24149984535177046    0.169814347810167    0.11129222211673889    0.07278457273930425    0.050626851158756814    
  0.03906858803637524    0.03374645537961247    0.032209748664934854    0.0337461782015769    0.02857444920297389    
  0.03163148459414769    0.039070825066331374    0.0538583090892611    0.08077565899395439    0.12486658981794542    
  0.18586533760447502    0.25101507345340224    0.29482645054905    0.2948303956153725    0.25097020431065037    
  0.18585981633864296    0.12491801794701335    0.08076918113856958    0.05384252018096011    0.039074015560485086    
  0.031630722769200294    0.028575292111315497    0.02857444920297389    0.027069206502236206    0.0285744510222099    
  0.03374617628327465    0.04474759570834623    0.06562987562347351    0.10201868896635569    0.1575219170935944    
  0.2261626095097479    0.28704592328658335    0.3118894143526916    0.2870933858129502    0.22617142663511997    
  0.1574646461879794    0.10202847567085112    0.06564675589953008    0.044744776000350345    0.03374651963474068    
  0.028574266432409526    0.027069206502236206    0.026444195795326433    0.02778683305040379    0.03238371924578321    
  0.04207047700205499    0.06016771991323228    0.09107918049230243    0.13733826206718647    0.19371446535494183    
  0.24308125541901066    0.2630423835042776    0.2431365106045882    0.19372673594326625    0.13727421397480186    
  0.09108798859904015    0.06019104257630082    0.04206631127268349    0.0323845929640943    0.027786582558436856    
  0.026444195795326433    0.027786580499795887    0.027787529835794734    0.03128456037966785    0.03982142978076413    
  0.0569398061894331    0.0882010092489531    0.1393014198982593    0.20954911115962274    0.2829027656702042    
  0.3306148183735236    0.3305519995712539    0.2828829562061443    0.20963484424974896    0.13929663205005224    
  0.08817303027343612    0.05694819121122201    0.03982018555411451    0.03128637811175648    0.027786580499795887    
  0.03238459633780001    0.030248503765693532    0.03238416390060879    0.03982093575733685    0.056138730303732454    
  0.08818029835080053    0.14500440362240177    0.2305617940822084    0.3275939329586342    0.3988101714716422    
  0.42280581601817496    0.39884480987868387    0.32750292036390766    0.23057079359186758    0.14505031146877712    
  0.08817138049441942    0.05614217972565358    0.039820194096870015    0.03238459633780001    0.04206631259212359    
  0.03622329462970525    0.036216790882734023    0.04207256158330838    0.05693869314718867    0.0881817644365792    
  0.14773430196600013    0.24420830422593062    0.3541519328309754    0.4133708686587163    0.4124856547035673    
  0.4125457478245493    0.41345310756711867    0.35417173463537405    0.24413609284996846    0.14776544178305445    
  0.08817138070402251    0.05694820166602233    0.04206631259212359    0.060191039787587615    0.04785578676013398    
  0.044496346975630735    0.047855676953040466    0.06019140390532649    0.08817156326618852    0.14504815351207764    
  0.24415150886572812    0.3605120697901532    0.386440423948679    0.30132527324877323    0.25045589932960377    
  0.3011924274036    0.38643737689921376    0.36060104979602925    0.24413606839785432    0.14505029046240725    
  0.08817303315825033    0.060191039787587615    0.09108799497570029    0.06860777143473848    0.06005141172933025    
  0.06004212568634531    0.06861764243300313    0.09107596417619655    0.1393121845120968    0.23054640053855904    
  0.3541875683349337    0.3864987382890353    0.24359934400530273    0.12478172217309164    0.12483255168801088    
  0.24362733148774257    0.38643738966675817    0.35417175134532514    0.23057078341671225    0.13929666790858758    
  0.09108799497570029    0.13727421062169343    0.10182354238424039    0.08643608512032128    0.08243341414641432    
  0.08643704235896556    0.1018240880563719    0.1372762625976777    0.20963694132517408    0.32750259483169974    
  0.4134539357650282    0.3011914523602923    0.12483249028036396    0.07008234118553486    0.12483258531553701    
  0.30119250965689326    0.4134531138150896    0.32750292216294685    0.2096348664303276    0.13727421062169343    
  0.19372674242502985    0.14662375987850168    0.12558977419101416    0.11824050123521804    0.11825356504774312    
  0.12557797749245542    0.14664217166707652    0.1937099291252022    0.28291634529779663    0.39883439577282603    
  0.4124847045888377    0.25048386433707304    0.12483246614975374    0.12478170715506676    0.25045585418465593    
  0.41254580327111673    0.398844796030308    0.2828829956534065    0.19372674242502985    0.24313652205311698    
  0.19376427147857525    0.1728695539018956    0.16657205601317224    0.165807633107716    0.1665741664283847    
  0.17287149512826525    0.19377107509789318    0.24314314531243872    0.3305364360701785    0.42290185854156853    
  0.4124846820465022    0.30119141041644837    0.24359935149858422    0.3013252812878738    0.4124856624709337    
  0.42280578145410286    0.33055203026758107    0.24313652205311698    0.26304238673225677    0.22520091508236065    
  0.21391564979208186    0.21667304224710038    0.22156520698255952    0.22158213314775868    0.216661619725026    
  0.2139365796173782    0.22518898728609502    0.2630890208668606    0.3305364975408769    0.3988344216595375    
  0.41345389429576973    0.38649877887833867    0.3864404826176495    0.4133708310932536    0.3988101874319373    
  0.33061485946357155    0.26304238673225677    0.2430812332997071    0.22520097723961668    0.23043115062097422    
  0.24933217070387254    0.26739027789950565    0.2742394079620597    0.26739235238710046    0.24933295586586443    
  0.23044232013648625    0.22518896726497997    0.24314316973474823    0.28291632548290563    0.3275025374691326    
  0.3541875113015283    0.360512071875336    0.35415190555048914    0.3275938966801303    0.2829027955109125    
  0.2430812332997071    0.19371444938312468    0.19380811169951123    0.21391716566065352    0.2493340224452795    
  0.28505393894587483    0.30519943972087504    0.3051962396136587    0.2850620575563265    0.24933294775956605    
  0.21393656397248037    0.19377109835774123    0.19370992840433646    0.20963691182143937    0.2305463626568997    
  0.24415148520567898    0.24420828819888307    0.23056178806775926    0.20954912408917478    0.19371444938312468    
  0.1373382625911579    0.14662928799190633    0.1728314564767098    0.21666994534617834    0.26738917846332777    
  0.3051961556521945    0.31820119320652956    0.3051962833421908    0.2673923913638439    0.2166616365020026    
  0.17287148973169103    0.14664216904619468    0.1372762436315816    0.1393121873320599    0.14504815675526486    
  0.1477343229247426    0.14500438474523406    0.13930144595424    0.1373382625911579    0.09107918558936605    
  0.10176864775293912    0.12558520039757795    0.16660874890063207    0.22157050690434574    0.2742433287693458    
  0.30519617122225806    0.3051994581527298    0.27423944225405816    0.22158209093549455    0.16657417255601836    
  0.12557798701681483    0.1018240652402626    0.09107596553656626    0.08817155451646834    0.0881817532092699    
  0.0881802741483415    0.08820101230260634    0.09107918558936605    0.060167726991266726    0.06861361092587376    
  0.08648530616648241    0.11824553028972784    0.1657750723297021    0.22157052015246095    0.2673891685242019    
  0.28505389144035154    0.2673902320265354    0.22156520232958207    0.16580765256386687    0.118253579575583    
  0.0864370273247483    0.0686176413231363    0.06019141109016616    0.05693869179363642    0.05613872004060427    
  0.05693980857585704    0.060167726991266726    0.04207047589042586    0.04787520715835204    0.06004569050624602    
  0.0823878355549075    0.11824554303529007    0.16660876743392558    0.21666993221445544    0.24933402339704092    
  0.2493321475799174    0.21667306421551863    0.16657204331682712    0.11824051573536803    0.08243342211771794    
  0.0600421279679731    0.04785567515196053    0.04207256831767137    0.039820935319225814    0.03982142189154881    
  0.04207047589042586    0.032383722604706185    0.03621917301432971    0.04447841784895051    0.06004568086142915    
  0.08648532936923993    0.1255852023832532    0.17283144191651253    0.21391718908694066    0.230431131723046    
  0.21391562137011624    0.17286956145663773    0.12558979019480396    0.08643607417787859    0.06005140925566615    
  0.044496348613406164    0.036216794796431404    0.03238416687023131    0.031284555065727915    0.032383722604706185    
  0.027786833371967582    0.03024937586944905    0.036219171280549134    0.04787520730962412    0.06861360120769408    
  0.1017686573487081    0.14662926512930602    0.1938080904276378    0.22520094760831755    0.22520085229346143    
  0.1937642544874664    0.14662374019109778    0.10182351740498896    0.06860775512679124    0.04785578846211221    
  0.03622329598533584    0.03024849793729602    0.02778754307099858    0.027786833371967582    0.026444195795326433    
  0.02778683305040379    0.03238371924578321    0.04207047700205499    0.06016771991323228    0.09107918049230243    
  0.13733826206718647    0.19371446535494183    0.24308125541901066    0.2630423835042776    0.2431365106045882    
  0.19372673594326625    0.13727421397480186    0.09108798859904015    0.06019104257630082    0.04206631127268349    
  0.0323845929640943    0.027786582558436856    0.026444195795326433    0.02556164091623923    0.02667592795688677    
  0.03045046270633095    0.038276399365277415    0.052596470999148076    0.07644328339193568    0.11115700814417322    
  0.15241629377776206    0.18787317875596105    0.20204583527894562    0.18790784298839294    0.15242263110717355    
  0.11111151620801514    0.07645335924708853    0.05260956704986928    0.038274506822847415    0.030451114129809293    
  0.02667612437613294    0.02556164091623923    0.026676122425966453    0.026676226135820297    0.029756599021426713    
  0.037171772045426    0.0518254353087137    0.07808688431013633    0.12009655083618948    0.17670441450386637    
  0.23498605540146036    0.27269625623113825    0.2726539554341707    0.2349795786219299    0.17676813700611782    
  0.12008849815696744    0.07807265389626021    0.05183031537923272    0.03717172668784041    0.029757187803867175    
  0.026676122425966453    0.03045112124214188    0.028509699555935603    0.03045099302121449    0.037171417989683056    
  0.051780487326401815    0.08007863541541499    0.1295299952545916    0.20329595905827935    0.28759322125323444    
  0.3518262809798804    0.37461274031048925    0.3518444052511142    0.2875202580637811    0.20331524473313092    
  0.12955564474014358    0.08007470351537344    0.05178259003215574    0.03717173415208018    0.03045112124214188    
  0.03827451144852955    0.032937284551250334    0.03293361237721104    0.03827750530925647    0.051825282147646014    
  0.08007983279041025    0.1334520814845108    0.22018707131042767    0.3238826568869655    0.3930442395149089    
  0.4089304662403375    0.4089898223368807    0.3931206805921833    0.3238820140821444    0.22014561121912912    
  0.1334732553548413    0.0800747068223838    0.05183032756740948    0.03827451144852955    0.05260956739377382    
  0.0413800029074114    0.03830504213819379    0.04137925630272892    0.052611155986516146    0.07806782965015155    
  0.12955895458430933    0.22014844957751625    0.33530850362577613    0.3913329047154024    0.3480644407687725    
  0.3113224703451338    0.3479228974484307    0.3913620749683887    0.3353574635457832    0.2201455980131562    
  0.12955561970260956    0.07807265346771643    0.05260956739377382    0.07645338070448689    0.056055620515784346    
  0.048255335290543565    0.048248260547755016    0.056063475869775954    0.07644313465367933    0.12010225834147546    
  0.20329123997134732    0.3239004105442681    0.39139153340669497    0.3060514397541154    0.20044785747757504    
  0.20053725330887986    0.3060475477317169    0.39136210194695126    0.3238820222974217    0.20331525261560035    
  0.12008852517054991    0.07645338070448689    0.11111150684651505    0.07886676966267862    0.064751663138562    
  0.06098494563376086    0.06475165291016244    0.07886716316894186    0.11111274406874132    0.17676923459888677    
  0.28752101749817977    0.3931207400966014    0.3479210846620397    0.20053657422649002    0.1395690841425823    
  0.20053727423298284    0.3479229489330994    0.3931207056174106    0.28752027431256993    0.1767681511465137    
  0.11111150684651505    0.15242261798531226    0.10871419707939282    0.08850841880695942    0.08102117523241356    
  0.08103048954860019    0.08850053719497389    0.10872702968338953    0.15240883487710513    0.23500626627147753    
  0.35182828497017166    0.40896014383505175    0.3113198903479119    0.20053654427029297    0.20044785065182724    
  0.31132242360369583    0.4089898290785814    0.3518443794186203    0.23497961530612588    0.15242261798531226    
  0.18790783733458719    0.13940624662096635    0.11644126600306821    0.10749427571901793    0.10546774458776093    
  0.10749586799076978    0.11643975516155185    0.13941450454100265    0.18790708884746948    0.27265331525219655    