#     DFTpy    
  CRYSTAL 
    
  PRIMVEC    
  3.3604838703040034    1.4059019222598621e-05    -3.524855172413793e-13    
  -1.6802297596834948    2.9102715143580635    -6.896551724137931e-12    
  -5.796193103448277e-13    -1.3428612413793102e-11    5.525157628603474    
  PRIMCOORD    
  4    1    
  Si    8.365536305272316e-06    1.9401855584561756    3.1072040578550566    
  Si    1.6802457450802655    0.9701000148973049    0.3446252027542664    
  Si    8.365537567784773e-06    1.9401855584553749    5.180532385047449    
  Si    1.680245745085719    0.9701000149188586    2.4179536115356792    
  BEGIN_BLOCK_DATAGRID_3D    
  3d_datagrid_density    
  BEGIN_DATAGRID_3D#0    
  15    15    25    
  0.0    0.0    0.0    
  3.3604838703040034    1.4059019222598621e-05    -3.524855172413793e-13    
  -1.6802297596834948    2.9102715143580635    -6.896551724137931e-12    
  -5.796193103448277e-13    -1.3428612413793102e-11    5.525157628603474    
  0.10417293952328609    0.1159622573314512    0.1555532491718639    0.23481528289752437    0.36457546191692464    
  0.5325018982484278    0.6832197273952425    0.7439202237256042    0.683219655285017    0.5325019408168475    
  0.3645754880975914    0.23481527172513864    0.15555324646299076    0.11596224711734687    0.10417293952328609    
  0.11596228076360088    0.11596777568056123    0.1415793169092554    0.20071697503189648    0.3047050494113282    
  0.45052264876939424    0.5970876762625285    0.683762292508025    0.6838619236323367    0.5969741078779843    
  0.45043267632991063    0.30479226971370776    0.20072009115488462    0.14157513821621795    0.11596228076360088    
  0.15555328444062122    0.1415792955013808    0.15554440818054052    0.20070959906943092    0.2841864616455714    
  0.39985276781035833    0.5004854309394499    0.5349168808834652    0.5328361227615747    0.5349555424215977    
  0.5006550276264726    0.3998495383878118    0.2840980338275718    0.20072006386018437    0.15555328444062122    
  0.2348152486842979    0.20071697287718682    0.20070955542152158    0.23483375892325942    0.304706867402787    
  0.3998560601274309    0.45848698457708487    0.41125527135764517    0.33190841264336285    0.3318885364354956    
  0.4111340287629379    0.4584852047416131    0.39984957400556254    0.3047922335413887    0.2348152486842979    
  0.36457548938647205    0.30470505924323893    0.2841864789228396    0.3047068980452207    0.36466041419147316    
  0.4504138345718149    0.5005791255244982    0.4112321767935988    0.25195447209150473    0.1870429423864782    
  0.25203986034618214    0.41113404196681275    0.5006550147013591    0.4504326242819108    0.36457548938647205    
  0.532501960813511    0.4505227261162247    0.39985283328469845    0.3998560906057993    0.45041389843038165    
  0.5325506371128772    0.5970649752074149    0.534912041471831    0.3319114347560702    0.18707970606438507    
  0.1870429693803796    0.3318884665147314    0.5349555638995573    0.5969741318587152    0.532501960813511    
  0.6832197360233985    0.5970876941750396    0.5004854859120502    0.4584870579404734    0.500579162084854    
  0.5970650557419449    0.6831548527048029    0.6839415255217075    0.5328194101555915    0.3319113737550339    
  0.25195450527511026    0.33190836911662963    0.5328361150801192    0.6838618720563483    0.6832197360233985    
  0.7439202425647301    0.6837621735128967    0.5349168626902608    0.41125527006407014    0.4112320726649875    
  0.5349120432343213    0.6839413004418358    0.7437309822083894    0.6839414058725083    0.5349120253021967    
  0.41123213598216457    0.4112552375679774    0.5349167891307138    0.6837621469657672    0.7439202425647301    
  0.6832197528756555    0.6838618456278551    0.5328361850292788    0.3319084449363606    0.2519545580584718    
  0.33191145819099355    0.5328193193791206    0.6839414728231595    0.6831549312250182    0.5970650747902373    
  0.5005791931037636    0.4584870991716325    0.500485513051416    0.5970876778079153    0.6832197528756555    
  0.5325020169697143    0.596974179802409    0.5349556034646307    0.33188850858686564    0.1870429756643354    
  0.18707973095934088    0.3319113948398372    0.5349120534879838    0.5970649947602307    0.53255051811228    
  0.4504139058651465    0.39985606008091557    0.39985278988617456    0.45052263322888964    0.5325020169697143    
  0.3645755100260098    0.4504326377419043    0.500654982913457    0.4111340763724738    0.2520399007731867    
  0.18704298550640278    0.251954474273227    0.41123214310251704    0.5005791976919334    0.45041390288689936    
  0.3646604091169801    0.30470688697026443    0.2841864607490398    0.30470501363069485    0.3645755100260098    
  0.23481526175260822    0.30479226418795435    0.39984952624763    0.4584852669535451    0.4111340340065574    
  0.3318885349708206    0.3319083781871898    0.41125531516146807    0.4584870818868755    0.3998560847694054    
  0.30470687353290205    0.23483375469419723    0.20070958243325068    0.20071698423711293    0.23481526175260822    
  0.1555532702121123    0.20072008702474056    0.28409805781152514    0.3998495122782583    0.5006550013383314    
  0.5349556479638982    0.5328360360647139    0.5349168573703258    0.5004854500464627    0.399852742732802    
  0.2841864986808991    0.20070958484265616    0.15554439952626253    0.14157929231559835    0.1555532702121123    
  0.11596226414640727    0.14157515450348437    0.2007200967852548    0.30479229856437007    0.450432629052406    
  0.5969741044859455    0.6838618083928499    0.6837623217944944    0.597087684336802    0.4505226482487364    
  0.30470506039254086    0.20071696881985504    0.14157929863656846    0.11596780639633104    0.11596226414640727    
  0.10417293952328609    0.1159622573314512    0.1555532491718639    0.23481528289752437    0.36457546191692464    
  0.5325018982484278    0.6832197273952425    0.7439202237256042    0.683219655285017    0.5325019408168475    
  0.3645754880975914    0.23481527172513864    0.15555324646299076    0.11596224711734687    0.10417293952328609    
  0.10210945312809525    0.11323719110663998    0.1505012314342934    0.22442449875476855    0.3438971082592997    
  0.4972581218298198    0.6341827474744438    0.6890806259088993    0.6340601544138811    0.49723444498000896    
  0.34397938105178416    0.22442021617846614    0.15048408883937164    0.11323874733245338    0.10210945312809525    
  0.11323877341768095    0.11323867742151657    0.13858006133643896    0.19668458436193154    0.2974157646860937    
  0.4333438533328148    0.5586404631721855    0.623316327333423    0.62346827438408    0.5586025412737637    
  0.4332392696372092    0.29744491573019816    0.19671318168731058    0.13857656503688093    0.11323877341768095    
  0.15048413865506483    0.136176985730591    0.15048289421854938    0.19670565416753702    0.28083919658677303    
  0.3903372880912189    0.46145850489909795    0.4496491621823329    0.42603378881011644    0.4496926959069553    
  0.4615906994791038    0.39034829121009534    0.28077844908844407    0.1967131657634852    0.15048413865506483    
  0.2244202214957392    0.18890348724044312    0.18888507801209695    0.22443454152753117    0.2974054857194118    
  0.3903333243134097    0.4166262175426804    0.31112511422186834    0.20496733891862226    0.2049277803147187    
  0.3109990342166319    0.41667117142769744    0.3903482687670717    0.29744487477821113    0.2244202214957392    
  0.3439794119191804    0.28102593472065834    0.2601556908469389    0.2810329965424695    0.3440063914902197    
  0.43321926023816065    0.4615794242071983    0.3110765839170749    0.13224515925638144    0.07779446517909122    
  0.13232601321876403    0.3109990921744003    0.4615907079090207    0.43323920318340536    0.3439794119191804    
  0.4972344560491382    0.41235395666400676    0.3637701704264073    0.36377381084615446    0.4123154783645559    
  0.49728023464197907    0.558625183796654    0.44964514541476747    0.20497703862044708    0.07781473243010145    
  0.07779448526456796    0.2049277560232722    0.4496926871602279    0.5586025705994204    0.4972344560491382    
  0.6340602735834105    0.5529662423577747    0.4750482634818286    0.44415633175532115    0.4750671198866463    
  0.5529534212393287    0.6340659745578764    0.6235268758127589    0.42598895206150217    0.204977005470883    
  0.13224519502671728    0.2049673388722577    0.42603374624008866    0.6234682427262634    0.6340602735834105    
  0.689080785613799    0.6444880722166877    0.5510474322933988    0.4752109016181849    0.4752533595722851    
  0.5510346492771141    0.644583779201606    0.68892333344643    0.6235267711210795    0.4496450852867095    
  0.3110765377427802    0.31112506116605465    0.44964913607990403    0.6233162544970612    0.689080785613799    
  0.6341828720578266    0.6445125383512067    0.5744489759758095    0.4638740392919807    0.4110207259493782    
  0.4638741476922794    0.5744727956225777    0.6445838728205044    0.6340660719732514    0.5586252734162366    
  0.4615795130428929    0.41662632948068706    0.461458596277666    0.5586405021576508    0.6341828720578266    
  0.4972582962324431    0.552812376575886    0.5510634092563416    0.46388855015576913    0.37258570474315444    
  0.3725938953998853    0.4638740281339269    0.5510347269002976    0.552953385285323    0.49728019209986624    
  0.43321921961662113    0.390333354111252    0.3903372830726259    0.4333438936745791    0.4972582962324431    
  0.3438971361025529    0.4123204353505225    0.4751879186911009    0.4751789385354829    0.4110290330376491    
  0.37258573519647353    0.4110206336611328    0.4752534337631546    0.4750671477666163    0.41231545557895427    
  0.34400640701387325    0.29740545957868453    0.28083917972541295    0.2974157266350765    0.3438971361025529    
  0.22442448609055968    0.2811240759370226    0.36377102051547444    0.44407410732972163    0.4751788653900572    
  0.46388862699133065    0.46387398491882237    0.4752109786963992    0.4441563464306551    0.3637738306703553    
  0.2810329807495013    0.2244345546763784    0.19670566588926047    0.19668457517039953    0.22442448609055968    
  0.1505012445764922    0.18889729422568752    0.2600603173294451    0.3637710458234229    0.4751879810029318    
  0.5510634968367845    0.5744488335848611    0.55104744941452    0.4750482662002983    0.3637701292149761    
  0.2601556941286398    0.18888509795752756    0.15048288386625147    0.13858003835828106    0.1505012445764922    
  0.11323721450486154    0.13616046233466725    0.18889730533268392    0.2811240723381974    0.4123204458608626    
  0.5528123345283279    0.64451250421033    0.6444881356876786    0.5529662545543717    0.41235390408617173    
  0.2810259289053595    0.18890344277661864    0.13617699215625112    0.1132387145739723    0.11323721450486154    
  0.10210945312809525    0.11323719110663998    0.1505012314342934    0.22442449875476855    0.3438971082592997    
  0.4972581218298198    0.6341827474744438    0.6890806259088993    0.6340601544138811    0.49723444498000896    
  0.34397938105178416    0.22442021617846614    0.15048408883937164    0.11323874733245338    0.10210945312809525    
  0.09681311560165819    0.10620132569635338    0.13740701012237821    0.19814681380593113    0.29387513802205084    
  0.41408840643708655    0.5198497500733896    0.5619617760845903    0.5197187102668729    0.41406474682635264    
  0.29397342678057287    0.19813865320935908    0.13739068268717874    0.10620265654987616    0.09681311560165819    
  0.10620268717344798    0.1062025057993903    0.12871614932976969    0.17978204036164963    0.2668376846261777    
  0.3813687895561781    0.4833114083382549    0.5340247851632586    0.5341592622242161    0.48331241818414467    
  0.3812670855304627    0.2668522873724633    0.17981011220340243    0.12871510741452963    0.10620268717344798    
  0.1373907340456446    0.12424675145085216    0.1373903598583128    0.1798036660786279    0.2567706398210658    
  0.35615130680125695    0.4184633010285586    0.404471826361475    0.3817821750983162    0.4045104518294726    
  0.41857143046393114    0.3561622125251896    0.2567302333207529    0.17981007866967783    0.1373907340456446    
  0.19813864929174096    0.16520038126855285    0.16517987487219202    0.19815538902088808    0.266826227786945    
  0.3561496474989334    0.38532131053554625    0.29015022509611066    0.1917508488835092    0.19171587916218197    
  0.2900220902145873    0.38538654906913394    0.3561621987077881    0.26685226463417916    0.19813864929174096    
  0.29397345162401134    0.23514588632384256    0.21614073837609707    0.23515041611522722    0.29397557677218916    
  0.3812532935950599    0.4185802458898971    0.2900889472286733    0.12667373084533165    0.07561443752861975    
  0.12675348272673523    0.290022135137915    0.4185714546689401    0.38126707185881487    0.29397345162401134    
  0.41406476844754164    0.3338090477478756    0.29089845215413573    0.29090880246392464    0.33379311194601463    
  0.4141049015310683    0.48330181272608896    0.40447592463400384    0.19176000329874826    0.07563675884546021    
  0.07561445172294552    0.19171586708913452    0.40451047618751296    0.4833124734236843    0.41406476844754164    
  0.5197187447101362    0.44080111982585285    0.378173986012927    0.3556523000561012    0.37816819436046545    
  0.4407969897647159    0.5197414780117218    0.5341981504040326    0.38173855720027555    0.19175995091660564    
  0.1266737522861206    0.19175082137587776    0.38178217153956256    0.5341592953653068    0.5197187447101362    
  0.5619618809165894    0.5122554741707134    0.4497822929447151    0.4081817243510221    0.40823351567259486    
  0.4497656927317518    0.5123026807332485    0.5618574298853954    0.5341980275495386    0.40447589842347054    
  0.2900889116140513    0.2901501918029446    0.4044717984576661    0.5340246926485729    0.5619618809165894    
  0.5198498843174311    0.5122473166858339    0.4768732011737454    0.4337812546015075    0.41325428052586477    
  0.4337836648891871    0.4768970552199686    0.5123027531469481    0.5197415492984117    0.4833019075954907    
  0.41858030658589157    0.38532135625372993    0.41846343336244074    0.48331139849720944    0.5198498843174311    
  0.41408847649630676    0.4406791780436739    0.44978312780703533    0.4338044433887166    0.4098911682725504    
  0.4098832869318986    0.43378360519994424    0.44976573698761396    0.4407970160590305    0.41410489764922825    
  0.38125322996520145    0.35614969104190136    0.35615129266404033    0.381368764790164    0.41408847649630676    
  0.2938751539806453    0.333797394331822    0.3782671890137144    0.4081923646481185    0.4132250647734564    
  0.4098912473668075    0.4132541920342779    0.40823363797715245    0.37816820475115454    0.333793104774637    
  0.29397558808587476    0.26682625507449603    0.256770617138526    0.2668376380025708    0.2938751539806453    
  0.19814678155025708    0.23523001926016926    0.2909042746358087    0.3555644052974244    0.4081923481335742    
  0.43380449576918484    0.4337811614685797    0.4081818273756955    0.35565230460372294    0.2909087787295236    
  0.23515038043644504    0.19815539999002266    0.1798036727491525    0.17978201686202744    0.19814678155025708    
  0.1374069988545776    0.16519095283219482    0.21605783633664521    0.29090428066321733    0.37826726405496264    
  0.4497831034281719    0.47687306557665055    0.4497823173088373    0.37817404632165225    0.2908984167864538    
  0.21614071639326823    0.16517987725173966    0.13739034361319327    0.12871613853312763    0.1374069988545776    
  0.10620133870817623    0.12423108316843526    0.1651909920692243    0.23523004890835125    0.33379742398937157    
  0.4406791736872412    0.5122473837089834    0.5122555785955634    0.44080115245719664    0.33380897434383316    
  0.23514587383690308    0.16520035525692467    0.12424676074431612    0.10620255022477874    0.10620133870817623    
  0.09681311560165819    0.10620132569635338    0.13740701012237821    0.19814681380593113    0.29387513802205084    
  0.41408840643708655    0.5198497500733896    0.5619617760845903    0.5197187102668729    0.41406474682635264    
  0.29397342678057287    0.19813865320935908    0.13739068268717874    0.10620265654987616    0.09681311560165819    
  0.09006986269999849    0.09738012567424788    0.12126494512572067    0.16668237078486678    0.23667170620580139    
  0.32267547414062975    0.39750817971272245    0.42741112616286436    0.39743522434004563    0.3226680391361422    
  0.236735794193197    0.16667304727334076    0.12125978665925863    0.09738045952308817    0.09006986269999849    
  0.09738048880473671    0.09738185393608831    0.11601515933268082    0.1576479478242614    0.2280574202015943    
  0.32166878595087534    0.40988088252880517    0.45955275122282346    0.45964214481806104    0.4098721646250517    
  0.3216022368632613    0.22807761906960775    0.1576597828195636    0.11601790183110414    0.09738048880473671    
  0.1212598126228582    0.10998047221940908    0.12125893493758337    0.15765662430837687    0.2248024813077149    
  0.3176290103778124    0.39641933099236903    0.4207431568947427    0.417752839952566    0.4207765013324411    
  0.3965103055769344    0.31762061361422406    0.2247871954670588    0.1576597454384432    0.1212598126228582    
  0.16667302440517387    0.1381687502296875    0.13815619665187528    0.16668315775709674    0.22805709071260674    
  0.31762086753049656    0.38495833867471235    0.3611775976465454    0.29941652630966664    0.2993942265424856    
  0.36105017989851607    0.38502573599868045    0.317620644692561    0.2280775581554195    0.16667302440517387    
  0.23673579702341227    0.18519210616422058    0.16890084786376863    0.18519379672365466    0.23673666907585536    
  0.321596611397785    0.3965057096375992    0.36112125422139657    0.24323272490630415    0.18893738420600803    
  0.24332559896790823    0.36105019600608784    0.3965103008302076    0.32160220271106266    0.23673579702341227    
  0.32266801221941604    0.24994505943867565    0.21364878912831986    0.21365644307920298    0.2499345637975185    
  0.32268870245032255    0.40986826138441107    0.4207576734800949    0.29941494432278926    0.18897914529423937    
  0.18893742203638136    0.2993942013359098    0.4207765428814791    0.4098721732893658    0.32266801221941604    
  0.3974352734480026    0.3187613569039252    0.26671358676348833    0.24908148789957227    0.266714616470923    
  0.318755861143687    0.3974549952533386    0.4596581880776261    0.41773836398426234    0.2994148916152993    
  0.2432327591955158    0.29941649997533243    0.41775281204784087    0.4596420982542111    0.3974352734480026    
  0.42741113770435396    0.36424920170455033    0.3119344330105628    0.2830779740333947    0.28310542742940614    
  0.31192123251282905    0.36428061956325497    0.42734932927796926    0.4596581065306313    0.4207576450954139    
  0.36112123022546166    0.36117755090013853    0.4207430805500379    0.45955264906792104    0.42741113770435396    
  0.39750820885130744    0.3642456804232598    0.3296913657901773    0.3040993950425824    0.2940477114021089    
  0.30410205561823084    0.32970071216451524    0.3642806844594434    0.3974550561182466    0.4098683366879973    
  0.39650576237274093    0.38495838143072386    0.39641936474526557    0.40988086649773225    0.39750820885130744    
  0.3226755461302936    0.3186927335014647    0.31193481849224625    0.3041077273946372    0.29756694312005105    
  0.2975635610692062    0.30410204649804723    0.3119212707715977    0.31875588515997183    0.3226887042991459    
  0.3215965819684467    0.3176208610659464    0.3176290254238518    0.3216687454504551    0.3226755461302936    
  0.2366716994160205    0.2499417984201753    0.26676233631293744    0.2830849220707845    0.2940354279637723    
  0.29756696806955063    0.2940476558476221    0.2831054768934155    0.26671464746228407    0.2499345656382404    
  0.23673666407169336    0.22805708559994758    0.22480244322527113    0.22805737934016748    0.2366716994160205    
  0.16668235529530523    0.18524055353121996    0.2136520384087329    0.2490332286794351    0.28308488722681296    
  0.3041077706594563    0.30409934295937574    0.2830780460842425    0.24908150225634895    0.21365642682592947    
  0.18519378684001922    0.16668316135719935    0.15765659909553428    0.1576479208760518    0.16668235529530523    
  0.12126495254375413    0.13816114328429055    0.16885179709017492    0.21365204632676132    0.266762362251409    
  0.3119348590073075    0.3296913068828975    0.311934424908284    0.2667135776754772    0.21364872468263815    
  0.168900852960527    0.1381562209881286    0.12125895225811834    0.11601513441951215    0.12126495254375413    
  0.09738012961709056    0.10997460312837032    0.13816115143376548    0.18524056082447052    0.24994179471840874    
  0.31869274156405153    0.3642456575711242    0.36424932992122033    0.3187613487009551    0.24994499335503273    
  0.18519208023858214    0.13816874255317543    0.10998048271720773    0.09738188363658876    0.09738012961709056    
  0.09006986269999849    0.09738012567424788    0.12126494512572067    0.16668237078486678    0.23667170620580139    
  0.32267547414062975    0.39750817971272245    0.42741112616286436    0.39743522434004563    0.3226680391361422    
  0.236735794193197    0.16667304727334076    0.12125978665925863    0.09738045952308817    0.09006986269999849    
  0.08364200951396458    0.0892006924787988    0.10695648297035998    0.13983090704158666    0.1896093390499001    
  0.25023248463297665    0.30330849836853946    0.32485781920580786    0.30328922779161427    0.25023332494536443    
  0.18962932435410812    0.1398282157126759    0.10695647058775308    0.08920082447992823    0.08364200951396458    
  0.08920084800766917    0.08920295604981117    0.10440248037655912    0.1378863212925863    0.19423343001973564    
  0.27120994930282527    0.3500847392997049    0.4005123728253662    0.40053940370875285    0.35008062633046155    
  0.2711920195546213    0.1942452421603835    0.13788881359786487    0.10440754188896305    0.08920084800766917    
  0.10695650263407049    0.09742449202124928    0.10695660245242074    0.13788633503559702    0.19628108528062407    
  0.2836472991563082    0.38013579474623055    0.4482775165413376    0.47024726823952906    0.4483033580352834    
  0.3801690206433324    0.2836455934539325    0.1962804486989188    0.1378887882809605    0.10695650263407049    
  0.13982820851446123    0.11553453051415341    0.11553171863495679    0.13982817994821667    0.19423892659510875    
  0.2836426699704961    0.3894041481878967    0.45979799702840185    0.47581073197022644    0.475809297481498    
  0.4597424467400206    0.38943358938301437    0.28364559902845604    0.19424520968321335    0.13982820851446123    
  0.1896293415810126    0.14525611641073943    0.1315856703921745    0.14525628063347157    0.1896269556286957    
  0.27119391449541297    0.38015296439681884    0.45978462316076607    0.46336637698642713    0.4471317801867593    
  0.463397639523634    0.4597425149787817    0.3801690676756465    0.2711919706549573    0.1896293415810126    
  0.25023331959773704    0.18536919263862883    0.15534460882392584    0.15534977920192608    0.1853645153313474    
  0.25024048444109925    0.35008199220786373    0.4483054395325886    0.47580331438413653    0.4471376422829664    
  0.4471318306189051    0.47580928029552255    0.4483033289034139    0.3500806830803942    0.25023331959773704    
  0.3032892397081716    0.2272147526356181    0.18367673724093905    0.16970668270455    0.18367908374962663    
  0.22721106212324324    0.303301976081169    0.4005392074106923    0.47026305788018286    0.4758032704788893    
  0.4633664493658018    0.475810781025649    0.4702472468210956    0.40053944919618933    0.3032892397081716    
  0.32485791885883325    0.25488631480490315    0.2079893743238633    0.18499377811085188    0.18500084565884162    
  0.20798679722817986    0.25489800739709567    0.3248424542492889    0.40053911761200317    0.4483054053105318    
  0.4597845880690394    0.4597979157010054    0.44827746077416747    0.40051234169230515    0.32485791885883325    
  0.3033085635939726    0.2548826513892666    0.21770552137208318    0.19518906298892585    0.18747537674490558    
  0.19519081118267315    0.21770923372504203    0.25489802606249956    0.3033019985363304    0.35008203859974907    
  0.38015303880890966    0.38940418440024105    0.3801358522534644    0.3500847526792046    0.3033085635939726    
  0.25023259329257286    0.22719667997181295    0.2079898033484834    0.1951917815765991    0.18862550551807694    
  0.18862666173832338    0.19519075034124286    0.2079868226216717    0.22721106331022412    0.2502404638187836    
  0.27119390671605637    0.28364265286691015    0.28364728358530034    0.2712099337300666    0.25023259329257286    
  0.1896093604391274    0.18536633098583744    0.18368805973643393    0.18499485814723643    0.18747199011949528    
  0.18862551840493208    0.1874753351948498    0.18500091226527487    0.18367906479137147    0.18536448677849945    
  0.1896269624630999    0.19423892893856992    0.1962810622336266    0.19423340260915928    0.1896093604391274    
  0.13983089931030918    0.14526721920891394    0.15534729976910414    0.16969343413055885    0.1849948386292799    
  0.19519178616572308    0.1951890289920981    0.18499383800924502    0.16970667064353834    0.1553497902480137    
  0.14525626376830525    0.13982817299317504    0.13788634711784142    0.13788629990040766    0.13983089931030918    
  0.1069564810988598    0.11553102207991942    0.1315729667672354    0.15534732062280845    0.1836881153924745    
  0.20798981396318372    0.21770545403654734    0.20798939156392623    0.18367674074691162    0.15534456718312448    
  0.1315856845966968    0.11553173494595873    0.10695659983922565    0.10440246700987305    0.1069564810988598    
  0.0892007043722518    0.0974248415145436    0.11553101953915809    0.14526723382590664    0.18536638032872815    
  0.22719661365464297    0.25488267510094054    0.2548863884306973    0.22721474948602463    0.18536915393342634    
  0.14525609937168357    0.11553449495520479    0.09742451189953952    0.08920298560346616    0.0892007043722518    
  0.08364200951396458    0.0892006924787988    0.10695648297035998    0.13983090704158666    0.1896093390499001    
  0.25023248463297665    0.30330849836853946    0.32485781920580786    0.30328922779161427    0.25023332494536443    
  0.18962932435410812    0.1398282157126759    0.10695647058775308    0.08920082447992823    0.08364200951396458    
  0.07928836509043073    0.08361782038683559    0.09744845424843855    0.1228676882021991    0.1609702576543745    
  0.20721038311749404    0.24794182690740102    0.2646318985805545    0.24793888921321963    0.2072125939712574    
  0.16097321775487589    0.12286813753406921    0.09744859576021979    0.0836180188810605    0.07928836509043073    
  0.08361803884345306    0.08361766021968578    0.09639737615484016    0.124755637081963    0.17254266594917095    
  0.23893730526645612    0.31007642770869176    0.35782178183570956    0.35782526553934846    0.3100775408992708    
  0.23894037915923855    0.17254781068870126    0.1247580907713207    0.09640131361546767    0.08361803884345306    
  0.09744862162899111    0.08915187013314471    0.09744999116103893    0.12475562737819247    0.17731194393033836    
  0.25937675194904386    0.36146631295690207    0.4504726803648856    0.48572392855402374    0.4504937578128069    
  0.3614693079452007    0.25938036339308124    0.1773146788751785    0.1247580746466233    0.09744862162899111    
  0.12286813240305292    0.10127607783278804    0.1012760387964917    0.12286474837148892    0.17254735538826854    
  0.25937370993302455    0.38131525365347696    0.5072812376070034    0.5854357274142636    0.5854352752379861    
  0.5072743835511667    0.38132459497052285    0.25938036722929103    0.17254779945522455    0.12286813240305292    
  0.160973218601244    0.12115378964690023    0.10914921523430665    0.12115231171877228    0.16097153251715982    
  0.23894244371050202    0.36145499594054464    0.5072915644890336    0.6209368929812096    0.6608163494909755    
  0.6209252805286809    0.507274409593089    0.36146933034144174    0.23894038603693854    0.160973218601244    
  0.2072126111906691    0.14783210820485215    0.12181639098192962    0.12182102068915938    0.14782925734654875    
  0.20721414759929122    0.3100803148654595    0.45050092495512    0.5854304462278727    0.660779239381801    
  0.660816450667925    0.5854352722236993    0.45049379201575196    0.31007761005696816    0.2072126111906691    
  0.24793894804259348    0.17554138294465865    0.13745902652088027    0.1258331465784665    0.13746144989526546    
  0.17554075690586796    0.24794578287021168    0.35782329225966286    0.48573972089054185    0.5854303642081254    
  0.6209370036608131    0.585435683048226    0.4857239679629556    0.35782526506270707    0.24793894804259348    
  0.264631954618452    0.19416792816365058    0.15114338108427536    0.13159228873164258    0.1315932979629469    
  0.1511410333918469    0.1941744397696809    0.26463135875218247    0.35782322314717935    0.45050091835749734    
  0.5072914961192345    0.5072811235417104    0.4504726600515048    0.35782168959851524    0.264631954618452    
  0.247941875932472    0.1941663917329484    0.15677796535305294    0.13591704398760654    0.12933499491759393    
  0.13591935859820609    0.15677918731298823    0.19417446848471237    0.2479458442049947    0.3100804047299022    