#     DFTpy    
  CRYSTAL 
    
  PRIMVEC    
  2.3648476739142676    -4.096036323380588    0.0    
  2.3648476739142676    4.096036323380588    0.0    
  0.0    0.0    7.817512676049601    
  PRIMCOORD    
  4    1    
  Si    2.3648476739142676    1.3653454411268615    0.4925775649615457    
  Si    2.3648476739142676    -1.3653454411268635    4.401333902986346    
  Si    2.3648476739142676    1.3653454411268622    3.4161787730632542    
  Si    2.364847673914268    -1.3653454411268633    7.324935111088054    
  BEGIN_BLOCK_DATAGRID_3D    
  3d_datagrid_density    
  BEGIN_DATAGRID_3D#0    
  21    21    37    
  0.0    0.0    0.0    
  2.3648476739142676    -4.096036323380588    0.0    
  2.3648476739142676    4.096036323380588    0.0    
  0.0    0.0    7.817512676049601    
  0.024230113688810874    0.0250859006271937    0.027961220985217347    0.033718745560485104    0.04384682885713188    
  0.060468711028916544    0.08564175128951353    0.11935838661442105    0.1567585137065765    0.187472863490508    
  0.19956613207289947    0.18747287993669834    0.15675851592389198    0.11935839380413701    0.0856417548503895    
  0.06046870299118406    0.04384684065061387    0.03371874896788859    0.027961212469563516    0.02508589923555782    
  0.024230113688810874    0.025085896396734267    0.025085795076033934    0.026960508837355606    0.0313406411428394    
  0.03953200375615344    0.0536504661283149    0.07621363288325987    0.10880991440410173    0.14918604316184403    
  0.1885649695373123    0.21360551575784067    0.2136053278414722    0.18858311604943576    0.14917505773607867    
  0.10879970928252063    0.07622390989529161    0.05364972090799535    0.039531323527318    0.031340364355701464    
  0.02696080499220574    0.025085896396734267    0.027961218442332746    0.02696050926177177    0.027961362491347105    
  0.03134073900672514    0.03831652658137335    0.05122549595559771    0.07345152954169783    0.10822231580305876    
  0.15578131326738393    0.2087290163438172    0.25130691751132456    0.2676496783545526    0.25128062035575666    
  0.20872922692602247    0.15580619964960335    0.10821911214553119    0.07344297798940896    0.0512270078708816    
  0.038317774574267174    0.031340360660231194    0.027961218442332746    0.0337187460145045    0.031340634333343304    
  0.03134073942022519    0.033718531033786456    0.03953226025617429    0.05122825643475938    0.07295371113642593    
  0.11008267200445615    0.16594763966437417    0.23449739208059467    0.29582767877095106    0.3295697169003036    
  0.3296043734920927    0.2958329852691577    0.2344755633164343    0.16594380202703873    0.11008636733947565    
  0.07296089026661    0.05122701369590723    0.03953130829556331    0.0337187460145045    0.04384683740918999    
  0.039532007818239914    0.038316531015444764    0.03953226547105181    0.04384490429880439    0.053649645864787335    
  0.07344929001793077    0.11008798039784572    0.1704432514342682    0.25116818206126756    0.324865849734971    
  0.36027439529027416    0.36613683180348006    0.36028110209465797    0.32489889344851847    0.2511607347151791    
  0.1704511546900441    0.11008637095708085    0.07344298823682543    0.05364972509084953    0.04384683740918999    
  0.060468705026768176    0.05365046749802823    0.051225515147235175    0.051228271934169727    0.05364962883197003    
  0.06047240417152862    0.07621142840806408    0.10822275868078841    0.16594781744668088    0.2511573674781896    
  0.3331017972636971    0.3571453709748401    0.3362924809769752    0.33627693057251673    0.35709430662554564    
  0.33312565873758365    0.25116074501016344    0.16594380870486067    0.10821911829824889    0.0762239195301203    
  0.060468705026768176    0.08564175002475519    0.07621362801825184    0.0734515266639029    0.0729537139514847    
  0.07344929421100707    0.07621142805779678    0.08565383214721753    0.1087958218240998    0.15579857616195703    
  0.23447375949646976    0.32490743733983846    0.35712586775553207    0.31062355642238804    0.27731173813136245    
  0.31067080134743996    0.35709432750926656    0.3248988996335084    0.2344755921214955    0.15580618871991433    
  0.10879970939908189    0.08564175002475519    0.11935838573201901    0.10880992530110706    0.10822228910633311    
  0.11008268061194453    0.11008796090528838    0.10822274631132286    0.10879580407332658    0.11936179490879846    
  0.1491824574623872    0.20873244712189093    0.29582075165065297    0.3602779463126003    0.33628577156566913    
  0.2773340597766903    0.2773116903202338    0.3362768759581668    0.3602811695164699    0.2958330235267728    
  0.2087292131230674    0.1491750509114878    0.11935838573201901    0.15675852544293914    0.14918602559331123    
  0.1557813048119343    0.16594764975578385    0.1704432513111185    0.16594779779027527    0.15579856243850995    
  0.14918244765090088    0.15674636903032976    0.18858449578202396    0.25128703962301185    0.32960811113463107    
  0.3661380858262511    0.33628577102156365    0.31062359942236034    0.3362924758342081    0.3661368264322191    
  0.3296043544003011    0.25128063852614585    0.1885831321353934    0.15675852544293914    0.18747286121648934    
  0.1885649738908081    0.20872902061992843    0.23449741071752417    0.2511681581178349    0.25115736392148297    
  0.23447377807185804    0.20873242456420427    0.18858449244453201    0.18746156830441602    0.2136105901106483    
  0.26763249316709176    0.3296081280700264    0.3602779107948445    0.3571258574722376    0.35714531871058397    
  0.3602743808235535    0.32956971751271685    0.2676496938490698    0.21360533238435203    0.18747286121648934    
  0.19956613051893243    0.21360553636801127    0.25130695355010024    0.2958276857258629    0.3248658441836732    
  0.3331017862958396    0.3249074857418527    0.2958207617143342    0.2512870569771947    0.2136105709304373    
  0.19956890438412575    0.213610577324472    0.251287064075445    0.2958207549241362    0.32490749999145035    
  0.33310178908020616    0.32486587328002003    0.2958276841030686    0.25130691599234406    0.21360552472032007    
  0.19956613051893243    0.18747287240520139    0.2136053413687404    0.26764968057166016    0.32956973583213783    
  0.3602744085444987    0.3571453399057915    0.3571258683057301    0.3602779060692053    0.32960811864537065    
  0.2676324803008208    0.2136105604114827    0.18746158272870012    0.18858446986515137    0.2087324445064463    
  0.23447377595744762    0.25115734196622413    0.25116817583864254    0.23449741415559291    0.2087290291964177    
  0.18856500944907503    0.18747287240520139    0.1567585387942062    0.1885831377091226    0.2512806440748573    
  0.3296043790041415    0.3661367720777235    0.33629245808884084    0.310623560592227    0.3362857726457123    
  0.3661381581347238    0.3296081384018193    0.2512870551867659    0.1885844923103084    0.15674637293974633    
  0.14918243106195606    0.15579856080696963    0.16594780453697958    0.17044325127968546    0.16594764328720923    
  0.15578130781286523    0.1491860276011536    0.1567585387942062    0.11935838673967449    0.1491750388273123    
  0.20872921245856343    0.2958330088678776    0.36028117486058314    0.336276881669925    0.27731168446856364    
  0.27733409581669144    0.3362857439320569    0.36027791882887517    0.29582074186276824    0.20873244437843216    
  0.1491824375844592    0.11936179251506565    0.10879581657359141    0.1082227632958093    0.1100879429808713    
  0.11008268200325515    0.10822229269493279    0.1088099137116128    0.11935838673967449    0.08564175384713268    
  0.10879970735258271    0.15580619568148835    0.2344755815315853    0.32489887104749704    0.3570943218936732    
  0.3106708259571907    0.2773117429711308    0.31062356572470473    0.3571258380945437    0.3249075114660507    
  0.23447376457669344    0.155798579187732    0.10879581795461414    0.08565383341463054    0.07621141139132386    
  0.07344929175464864    0.07295372200021669    0.07345153882491808    0.07621362159463856    0.08564175384713268    
  0.060468710255913015    0.07622391928827765    0.10821911970316118    0.16594380645897575    0.2511607410897728    
  0.3331256933484028    0.3570943235346186    0.336276892594397    0.336292481872222    0.35714535147269366    
  0.3331017954557736    0.25115739732663817    0.16594780465364017    0.10822275814787674    0.07621141996833072    
  0.06047240147278126    0.053649638359162616    0.05122826585902751    0.05122551084348896    0.05365046586486321    
  0.060468710255913015    0.043846837708289225    0.05364972580184847    0.07344298431294985    0.1100863741176731    
  0.17045114074383613    0.2511607557095554    0.32489886721995986    0.3602811536136912    0.3661368358619792    
  0.3602743899130162    0.32486585361108783    0.251168167176387    0.17044324207739114    0.11008796433026492    
  0.07344931063430374    0.053649638394052276    0.04384489908844783    0.03953227452198351    0.038316530552331286    
  0.03953200747196353    0.043846837708289225    0.0337187486759136    0.039531315138619814    0.0512270164679419    
  0.0729608952882499    0.11008634873027169    0.1659437930224294    0.23447558767095045    0.29583299962698106    
  0.3296043922279908    0.3295697201832262    0.2958277251251046    0.23449740274929068    0.16594762664209706    
  0.11008266725948802    0.07295371351205146    0.05122825691113122    0.039532262452268846    0.03371853332290266    
  0.03134074286131328    0.03134063462161944    0.0337187486759136    0.027961214577643632    0.031340362184389695    
  0.03831777224047084    0.05122701067708602    0.07344298025856792    0.10821911535949809    0.15580618229275384    
  0.20872921664183836    0.2512806361992445    0.26764964274459424    0.2513069192448603    0.20872900722688467    
  0.155781289737877    0.1082222865602756    0.07345153522308648    0.0512255111245112    0.03831652754144047    
  0.031340738185359936    0.027961359435938832    0.026960508150150983    0.027961214577643632    0.025085896068649752    
  0.026960801765628307    0.03134036605193149    0.03953131817518219    0.05364973066726869    0.07622392141689548    
  0.10879970511464529    0.14917505949962112    0.1885831031518396    0.21360532141686148    0.21360556410784373    
  0.1885650012057656    0.1491860151206868    0.10880991699147431    0.07621363322106084    0.05365045865628683    
  0.03953200479027783    0.031340644237913835    0.026960513277037867    0.025085796699834552    0.025085896068649752    
  0.024230113688810874    0.0250859006271937    0.027961220985217347    0.033718745560485104    0.04384682885713188    
  0.060468711028916544    0.08564175128951353    0.11935838661442105    0.1567585137065765    0.187472863490508    
  0.19956613207289947    0.18747287993669834    0.15675851592389198    0.11935839380413701    0.0856417548503895    
  0.06046870299118406    0.04384684065061387    0.03371874896788859    0.027961212469563516    0.02508589923555782    
  0.024230113688810874    0.023933240460705482    0.024776832074191648    0.0275970966981061    0.03322473647306454    
  0.04310216009888376    0.05926173567681019    0.08363551153959056    0.11609813506876868    0.15198156617707298    
  0.18139763167919776    0.1929487884136241    0.18139428824411102    0.15200741564670617    0.11609654979181466    
  0.08361428414454984    0.05926664501683548    0.04310484808842189    0.03322441120838582    0.027597046093764437    
  0.02477676685258547    0.023933240460705482    0.024776763567307448    0.024776804279624382    0.026487952753582716    
  0.03047035224341185    0.03785248253484569    0.050377740226594296    0.07005549375524601    0.09816332841705153    
  0.13262706412048314    0.1659381600408323    0.18705357865388858    0.18705586287208234    0.16594568571896653    
  0.1326029167063311    0.09816321922654042    0.07007502617918392    0.050373706041562605    0.03784990818390629    
  0.030470293387712042    0.026488441639389834    0.024776763567307448    0.02759705289414639    0.026746874003819098    
  0.027597248643306493    0.03047088620418753    0.03634916240124731    0.04703591754289969    0.06504646152580984    
  0.09260761856652358    0.12972287744791464    0.17086367392775084    0.20425967080572283    0.21726449640666    
  0.20425107063609244    0.17086066604863237    0.12974740148397357    0.09260696475147283    0.06502808778806685    
  0.04703957896947658    0.036352272922098944    0.030470291291067358    0.02759705289414639    0.03322440978311344    
  0.03133796592623557    0.03133774329348404    0.033224166248388434    0.03785294290314659    0.04704254993192427    
  0.06377827656816895    0.09179774523098458    0.13326866972396392    0.1846343290158877    0.2334875374603825    
  0.26322975387319825    0.2632373717331958    0.23349335257251191    0.18463342826905949    0.13324811466643222    
  0.09179909245266557    0.0637960083086553    0.047039581418652034    0.037849890508676064    0.03322440978311344    
  0.043104850898288166    0.039957573733266624    0.03910097246998423    0.03995782326696368    0.04310073781989478    
  0.05037131681309171    0.06504674001030844    0.09179823031819533    0.1353191051656039    0.1952028582713207    
  0.2586632559969997    0.3041065092000518    0.31949909878329014    0.3041064555399905    0.25866868234679724    
  0.19519858215434183    0.1353401949413969    0.09179910141341846    0.06502809162122365    0.05037370927778767    
  0.043104850898288166    0.05926665308781311    0.054947281315552474    0.053624081937120725    0.05362452674560579    
  0.05495221529247053    0.05926949911380603    0.07005318551725166    0.09260899556927366    0.13326900879861364    
  0.19519220303673382    0.2680383393008728    0.3239925926823049    0.34674202399413995    0.3467359690706543    
  0.3239812849343336    0.2680438074586564    0.19519860805399636    0.13324811372174653    0.09260697312503406    
  0.07007502547709948    0.05926665308781311    0.08361428381857751    0.07909805520737728    0.07896463747895409    
  0.07935216781090967    0.078956821503905    0.07909470744246744    0.08363976102696491    0.09815889895208507    
  0.12972511292784722    0.1846381227245241    0.2586741012328114    0.3239906961692958    0.3512819016577453    
  0.3538276735133637    0.3512946148234711    0.3239812513390639    0.25866869785018426    0.18463345480872861    
  0.1297474046196444    0.09816321284036109    0.08361428381857751    0.11609653989693433    0.11409747248898175    
  0.11911199338968465    0.12392495952381184    0.12393800767318915    0.11911546120223132    0.11406508312726223    
  0.11610163101517895    0.1326262134940641    0.17085580745560577    0.2334860783431907    0.30410635106750733    
  0.3467405549223277    0.35383038155048113    0.35382765657909665    0.3467359295900515    0.3041064584274763    
  0.23349334744030031    0.17086065366954237    0.1326028814492591    0.11609653989693433    0.1520074479822319    
  0.15752064310955124    0.17429315317651609    0.19120057575980998    0.1981079480430826    0.19119579691999922    
  0.17433611947554128    0.15751398038248618    0.15197787847182753    0.16595328398916584    0.2042551250656612    
  0.26323948108552175    0.3195022117672023    0.34674053278870287    0.3512819349991227    0.346742029670968    
  0.3194990827019797    0.2632373466232867    0.204251068523838    0.16594572047356043    0.1520074479822319    
  0.18139425631207615    0.19986053492808972    0.23512348504929872    0.27094307049707683    0.29139813530433456    
  0.2913834207797452    0.2708806416217005    0.2351363232370265    0.19989833464470608    0.18138179809727842    
  0.18705408251962213    0.21726074456784716    0.2632394715588154    0.3041063101421443    0.3239907068615358    
  0.3239925396748819    0.3041065206111771    0.26322975810552407    0.21726450304790337    0.18705583924015456    
  0.18139425631207615    0.19294880004807766    0.22667262346026068    0.28269298913948093    0.33454075860484656    
  0.35510040677211224    0.35608229282085446    0.35518958993123295    0.33452878070454944    0.2826403230220288    
  0.2266867370133999    0.19295257732925464    0.18705404528986294    0.20425513349100693    0.23348608687319525    
  0.25867414211637857    0.26803834863773845    0.25866326575046866    0.23348755683534045    0.20425967029042846    
  0.18705358382829154    0.19294880004807766    0.18139764642229733    0.22667263002729063    0.30040767967945836    
  0.36290184681116866    0.35585657629852313    0.3123265999962092    0.31228430802940216    0.3558567647687203    
  0.3629945188447355    0.300365118064801    0.22668670759742096    0.18138180523913594    0.1659532710305347    
  0.17085582956097742    0.18463812582633501    0.19519217860711688    0.19520287911837242    0.18463435349060228    
  0.17086367649412704    0.16593818175949587    0.18139764642229733    0.15198156085558975    0.1998996930833386    
  0.2826304302734773    0.36298087745500757    0.34230958933620115    0.2381528513718282    0.1880142880562085    
  0.23814757517137886    0.3422942957342644    0.3629945172708993    0.2826403169837005    0.19989832106866592    
  0.15197787381014755    0.13262619596956118    0.12972508669403565    0.13326900554680074    0.13531910216230886    
  0.13326868985700507    0.1297228759571685    0.13262702711946395    0.15198156085558975    0.11609812423874662    
  0.15751696879454605    0.23512436917931212    0.33455259725824044    0.35587266739501294    0.2381233651188804    
  0.13579842406586168    0.13583159008238446    0.23814752209900686    0.3558567826455035    0.33452875072183824    
  0.23513634842711564    0.1575139750014302    0.11610162244031962    0.09815889624943036    0.09260898982483436    
  0.09179821288449813    0.09179774842801526    0.09260759928862011    0.09816331330326444    0.11609812423874662    
  0.08363552468509487    0.11406957966767767    0.17433480078374328    0.2708890745448941    0.35516637259930395    
  0.3122328781115206    0.18809075422656482    0.1357984307744932    0.18801429608207312    0.3122842679240029    
  0.35518960218702816    0.2708806107678144    0.17433612707562485    0.11406509479327762    0.08363975100581658    
  0.07005316594086938    0.06504673561552475    0.06377829266492563    0.06504645867303536    0.07005548526140522    
  0.08363552468509487    0.05926173404287689    0.07910543222200118    0.11910528652448375    0.1912066678321576    
  0.2913882068282984    0.3561363558319947    0.3122328782140896    0.23812337097016584    0.2381528966821999    
  0.3123266074960996    0.3560822985679187    0.29138342867093936    0.1911958102689257    0.11911548376337348    
  0.07909470625934482    0.059269489197304626    0.05037130882010221    0.04704255470657431    0.04703593006437129    
  0.050377735699677975    0.05926173404287689    0.043102172326347436    0.054950630495596925    0.0789586784806407    
  0.12393531963411225    0.19810295222602478    0.2913882410135746    0.35516637739715645    0.3558726506805636    
  0.34230962370723733    0.3558565855781268    0.35510041991333263    0.2913981500931466    0.19810792363500287    
  0.12393801901654002    0.07895683548633284    0.054952215587829395    0.04310072967827265    0.037852953977781476    
  0.036349163772542194    0.037852489242401026    0.043102172326347436    0.033224734940756374    0.03995712934085497    
  0.05362490591751881    0.07935171400305842    0.12393530825690141    0.1912066449609655    0.27088908049425675    
  0.33455261077187065    0.36298088755623387    0.36290185546466963    0.3345407854703871    0.2709430493532648    
  0.1912005821473773    0.12392497818059862    0.07935216159770564    0.0536245195328146    0.03995781036196911    
  0.03322417523948932    0.030470887643029517    0.030470343892178058    0.033224734940756374    0.02759709106924576    
  0.031337564759651715    0.03910151253623641    0.05362489594861231    0.07895867110541453    0.11910527892196883    
  0.17433479349663275    0.23512436163558545    0.282630429008077    0.30040768072365087    0.2826929495955042    
  0.23512349188317208    0.1742931487055515    0.1191119758691036    0.07896464419177125    0.05362407396756976    
  0.03910096959501591    0.03133774236478615    0.027597246187319804    0.026487949642625623    0.02759709106924576    
  0.02477682872422966    0.026747132949894437    0.03133757372034849    0.03995712664607915    0.05495063358982026    
  0.07910543666852049    0.11406956964975089    0.15751697779799512    0.19989968209116768    0.22667262566418261    
  0.22667265233562    0.19986053340531343    0.15752064459177692    0.11409746435072272    0.07909806381963998    
  0.0549472699185925    0.039957568271511375    0.03133797533131246    0.02674687638031051    0.02477680414658704    
  0.02477682872422966    0.023933240460705482    0.024776832074191648    0.0275970966981061    0.03322473647306454    
  0.04310216009888376    0.05926173567681019    0.08363551153959056    0.11609813506876868    0.15198156617707298    
  0.18139763167919776    0.1929487884136241    0.18139428824411102    0.15200741564670617    0.11609654979181466    
  0.08361428414454984    0.05926664501683548    0.04310484808842189    0.03322441120838582    0.027597046093764437    
  0.02477676685258547    0.023933240460705482    0.023082770054446245    0.02388703465959763    0.026549511994234883    
  0.03182079922581148    0.04100189123380398    0.05586996788088452    0.07800219266855972    0.1070615168169803    
  0.1388294170309387    0.16468478390881477    0.17478159573857013    0.1646786997096417    0.13886448274582044    
  0.10706162157113605    0.07797403632581652    0.0558752341522429    0.04100686713751123    0.031819940412556987    
  0.026549532460384006    0.023886924703707256    0.023082770054446245    0.02388691939907018    0.023886708054953056    
  0.025411721442226743    0.02889971797164659    0.035272386964718606    0.04584646642300749    0.06203355561316435    
  0.08468050734440843    0.11195497598992495    0.13791413947761116    0.15422521539516285    0.1542298384268358    
  0.13792010095591076    0.11192458843513675    0.0846813132749291    0.06205735919463055    0.045842319293934196    
  0.035267499148976755    0.028900479261384115    0.02541179976374508    0.02388691939907018    0.02654953539624241    
  0.025845264216928968    0.026549645159356466    0.028901257110944094    0.033619274606095845    0.041988854041528224    
  0.05566202603038758    0.07593487480135072    0.10254286766032761    0.13151647236510508    0.15484714521002327    
  0.16393330215556504    0.1548415616354613    0.13151227032531865    0.10257010409139236    0.07593470493967512    
  0.05563951838406059    0.041993107782548014    0.03362401454528525    0.028900475616010782    0.02654953539624241    
  0.03181993691478242    0.030411281445554578    0.030411225357696116    0.031819391286980775    0.03527262882856529    
  0.04199642616936943    0.053926507384171596    0.0733433263394259    0.10125192749559384    0.135223428969461    
  0.16783890429974332    0.1882839122354458    0.18828621808295226    0.16784420469370132    0.13522747843737112    
  0.10122558801737955    0.07334432888542435    0.05394791521039376    0.0419931140363039    0.03526748604961051    
  0.03181993691478242    0.04100686585428555    0.03898049345715381    0.03846343395403275    0.03898072360258468    
  0.04100087188728214    0.04583867914325699    0.05566288882662995    0.07334315118758934    0.10147318374592117    
  0.13989156332939512    0.18227148812519384    0.21598491776621015    0.22878342748155633    0.21598217871954037    
  0.182270294531232    0.1398871184158916    0.10149879348279162    0.07334434184690218    0.055639521731042106    
  0.04584232047048384    0.04100686585428555    0.055875243623982454    0.05387897181693151    0.05356241724649947    
  0.053562206509954885    0.05388720321915687    0.05587891390057384    0.06203131472562536    0.07593578193536897    
  0.10125184351003462    0.13988055065945354    0.18831609091087528    0.2337572803087106    0.2604744699890862    
  0.26047074157319344    0.23375664862574735    0.18831812268816128    0.13988714399881905    0.10122561041588508    
  0.07593470699361725    0.06205735903122581    0.055875243623982454    0.07797403513176081    0.07787062333204846    
  0.08000966583602298    0.08113826930909884    0.07999771004244878    0.07786541809858573    0.07800509782157113    
  0.084678551906039    0.10254262829436338    0.1352337576506504    0.18227515723363363    0.23375794435546698    
  0.27207236728617534    0.2856280517041667    0.27207764685195873    0.23375661727774455    0.18227030234019184    
  0.13522747894252318    0.10257012120053803    0.08468130005384328    0.07797403513176081    0.10706162588587473    
  0.11247958560321429    0.12205346244941817    0.12914461785913073    0.12916220724585195    0.12206176829098894    
  0.11243929719615538    0.1070643427289926    0.11195541531866399    0.13150352916944588    0.16783984788561992    
  0.21598087050564443    0.2604762731695375    0.28562787524654776    0.2856280371070687    0.2604707338050736    
  0.21598218639635117    0.16784421190110393    0.13151226171712813    0.11192456627878863    0.10706162588587473    
  0.13886450270210965    0.15510675661714302    0.1796877298616508    0.20138858788575678    0.2099549551970376    
  0.20137632421539184    0.1797418292885664    0.15510277190743746    0.13882619330502804    0.13793031033926895    
  0.15484495473225052    0.18828812682268775    0.22878271986617144    0.2604762761920241    0.2720723827699347    
  0.26047448927287575    0.22878345245292417    0.18828621295730097    0.15484155288378007    0.1379201152166349    
  0.13886450270210965    0.1646786946233224    0.1963485931025115    0.24237142342802795    0.28448652884954356    
  0.30681149198461294    0.30679978704440136    0.28441003491285344    0.2423816088978153    0.19639807051736832    
  0.16466536489158398    0.15422591383941986    0.16393164547399477    0.18828810647757652    0.21598085577786513    
  0.23375793222572402    0.23375722761159384    0.21598490271975873    0.18828389412833269    0.1639332949648212    
  0.15422981997523233    0.1646786946233224    0.1747816150512542    0.2222397112099698    0.29006178911516917    
  0.34460717975924027    0.3570126566730396    0.3523653994063108    0.35711115123358733    0.3446029134669606    
  0.2899881344965078    0.22225867022892423    0.1747849900320958    0.15422588629690762    0.15484496573981138    
  0.16783986058493963    0.1822751839777414    0.18831605926558956    0.18227146721086307    0.1678389039350204    
  0.1548471458082153    0.15422520834309453    0.1747816150512542    0.16468478504367753    0.22223946295227032    
  0.30731807405415457    0.3659954183344328    0.3319304399602766    0.26653814415887894    0.2664972126548431    
  0.3319260049374741    0.36611571526563785    0.3072633443314395    0.22225866146548354    0.16466536485783548    
  0.1379302952961119    0.13150353597658265    0.13523379398541646    0.13988052812867593    0.1398915652013709    
  0.13522344017563068    0.1315164858772494    0.13791414452491013    0.16468478504367753    0.1388294317039746    
  0.19639698602721142    0.289982257804168    0.3660913914878394    0.3065780452653706    0.17292946237825654    
  0.12033088552882397    0.172931605541425    0.3065488243182651    0.36611570608667465    0.28998814446842897    
  0.1963980590258349    0.13882617979427692    0.11195540801301879    0.10254260357178432    0.10125184569542607    
  0.10147317880055111    0.10125194767324433    0.10254284245074853    0.11195494897149634    0.1388294317039746    
  0.10706149914281538    0.1551070946068493    0.2423674634749628    0.3446282645706547    0.33195256832366105    
  0.17289476485649713    0.07241964387505948    0.07243692003223305    0.17293158162478442    0.3319259852702951    
  0.34460287947874624    0.2423816198519817    0.1551027733952886    0.10706432519024034    0.08467854809969674    
  0.07593576770886941    0.0733431433884416    0.07334333461427543    0.07593485496233272    0.08468051215200982    
  0.10706149914281538    0.07800220426648348    0.11244415065853351    0.1797396081282271    0.28442112879230597    
  0.3570801477356151    0.2664493819250478    0.12039512621576441    0.07241964997828572    0.12033086792065197    
  0.2664972028400841    0.35711115613444394    0.28441001537562793    0.1797418477208922    0.11243929513102657    
  0.07800510138529321    0.06203130376491151    0.05566289409590532    0.05392652404569258    0.055662029350855215    
  0.0620335481592101    0.07800220426648348    0.05586996768022575    0.07787712947729468    0.12204836936323255    
  0.20138905651119623    0.306814617169398    0.3524173256892411    0.26644941784251175    0.17289475121934114    
  0.1729294805715806    0.26653816804042024    0.35236538308360166    0.3067997858717179    0.20137634962777046    
  0.12206178380196618    0.07786541970626336    0.055878903430129356    0.04583866671706502    0.04199642694350062    
  0.041988858775387536    0.04584646691666758    0.05586996768022575    0.04100190110623844    0.0538855892038629    
  0.07999968472922109    0.1291627061427243    0.2099388883265445    0.3068146489385709    0.35708015111238595    
  0.3319525508804732    0.3065780550302907    0.3319304190656384    0.357012667986564    0.30681152062111255    
  0.2099549268325449    0.12916221631378436    0.0799977237829724    0.05388719663395393    0.04100087280913891    
  0.035272636917630704    0.03361928079856656    0.03527239225279228    0.04100190110623844    0.03182079804479482    
  0.03897910007451991    0.053564312985554856    0.08113461682042516    0.12916272022763572    0.201389031136268    