#     DFTpy    
  CRYSTAL 
    
  PRIMVEC    
  3.559287582434354    -1.9555419999999998e-10    3.706588758620689e-10    
  -1.9555419999999998e-10    3.559287582227533    1.7860136896551724e-10    
  6.773323620689654e-10    3.26425724137931e-10    6.520683832261415    
  PRIMCOORD    
  4    1    
  Si    1.7796437911493652    1.7796437920931611    2.0037686446659784    
  Si    6.59937835257398e-10    -6.10763670399781e-10    1.2565732692727911    
  Si    1.0121895237868042e-10    4.6127242465445496e-10    5.2641105592900415    
  Si    1.7796437916829424    1.7796437907411609    4.516915191843278    
  BEGIN_BLOCK_DATAGRID_3D    
  3d_datagrid_density    
  BEGIN_DATAGRID_3D#0    
  17    17    29    
  0.0    0.0    0.0    
  3.559287582434354    -1.9555419999999998e-10    3.706588758620689e-10    
  -1.9555419999999998e-10    3.559287582227533    1.7860136896551724e-10    
  6.773323620689654e-10    3.26425724137931e-10    6.520683832261415    
  0.3981284049782649    0.3711486799918698    0.3038739885195555    0.22412013080396573    0.15464087000419258    
  0.10509758824552036    0.07463103928486199    0.05894341220340044    0.0542206386824744    0.058943382028697124    
  0.07463101628136856    0.10509762463547512    0.15464088747615223    0.2241200932768609    0.30387404195876955    
  0.37114864209286147    0.3981284049782649    0.37114866747590397    0.34652251151961955    0.2850783737647693    
  0.21188195043851954    0.1477402585930712    0.10168522925666719    0.07315253162869786    0.05836213534287756    
  0.05389273001685215    0.05836209399641432    0.07315250686347956    0.10168525475651537    0.14774029926312096    
  0.21188185108979163    0.28507839459903456    0.34652259808157093    0.37114866747590397    0.3038739988103113    
  0.28507838014515285    0.23783557174655381    0.1808023908428195    0.12998198016368437    0.09281181151258379    
  0.06931163719972458    0.05689142522319016    0.05308735834932552    0.05689144201995622    0.06931160393369927    
  0.0928118307686991    0.1299819953402747    0.18080234654700217    0.23783553673465702    0.2850783950311487    
  0.3038739988103113    0.22412014691318763    0.21188191184932545    0.1808024047535251    0.1426033514224428    
  0.10776865495054512    0.0815710271354224    0.06449537764891831    0.055179495986440244    0.05226067703097046    
  0.05517946597012454    0.06449536287963745    0.08157109331599859    0.10776866277888635    0.14260332001332093    
  0.1808024667768476    0.21188195994640316    0.22412014691318763    0.15464086950474323    0.1477402627912208    
  0.12998200354934963    0.10776860821612053    0.08699388367401903    0.07084240793577816    0.05995923269365749    
  0.05382477840608523    0.05184484721587756    0.05382477519081774    0.059959228246273526    0.07084242657873543    
  0.08699386382464327    0.10776862932268826    0.12998201866483586    0.14774027453713193    0.15464086950474323    
  0.10509763292850394    0.10168521508554797    0.09281181825811366    0.08157107456951875    0.0708424294550269    
  0.06228133939821237    0.05644640270857572    0.05313681724537153    0.052051255833938166    0.05313678313194744    
  0.056446378484324274    0.06228133484110936    0.07084246131679395    0.08157104768620439    0.0928118648165247    
  0.10168529408100802    0.10509763292850394    0.07463101235346954    0.07315249906638142    0.06931160894151425    
  0.06449536748981383    0.059959210073305666    0.05644635581531613    0.0542449268035803    0.0531276647933369    
  0.05277737800373722    0.053127667469135935    0.05424490901940137    0.056446387870015956    0.059959220098470635    
  0.06449533968774226    0.06931160245732207    0.07315252053571465    0.07463101235346954    0.05894338998830986    
  0.058362116288705704    0.056891447821679264    0.05517950207220665    0.05382482261006829    0.05313676531716213    
  0.05312769994108153    0.05339675416551343    0.05353013360746192    0.05339673687163028    0.053127692699068814    
  0.053136798882226055    0.05382481206919884    0.05517947649969498    0.05689147045852576    0.058362146603789335    
  0.05894338998830986    0.05422061980236819    0.05389272937058908    0.053087318876778575    0.05226066434695795    
  0.05184485191127094    0.05205126608147071    0.05277739063387863    0.05353016030564996    0.05383290598406438    
  0.05353015743919742    0.05277738745081129    0.05205127155400534    0.05184482525703942    0.05226064516232696    
  0.053087332843766426    0.05389273597142495    0.05422061980236819    0.05894340294664616    0.058362094561635255    
  0.05689145886231393    0.05517951837703717    0.05382479503633601    0.053136780893355835    0.05312770761529926    
  0.05339674551963263    0.05353015461981371    0.053396723519251926    0.05312767561507799    0.05313679254025967    
  0.053824818667589626    0.05517946703138921    0.05689146009789277    0.058362119765041194    0.05894340294664616    
  0.07463101577446116    0.0731525173965632    0.06931159045681054    0.06449534936662855    0.059959239149568314    
  0.05644636632469355    0.05424491882338594    0.05312767781797207    0.05277739815500545    0.0531276831993128    
  0.054244907018854704    0.056446350156180734    0.059959228796090544    0.06449536229053913    0.06931160286548739    
  0.07315252203504186    0.07463101577446116    0.10509762231395596    0.1016852236719013    0.09281182347893607    
  0.08157108395966653    0.07084245786580515    0.06228130369352947    0.056446411724931894    0.053136822001458195    
  0.05205126490303646    0.053136771764391355    0.056446372176215426    0.06228134708963697    0.07084244579184672    
  0.08157104450740363    0.09281188116236806    0.10168528287827336    0.10509762231395596    0.15464087999084847    
  0.14774025935901494    0.12998197580074916    0.10776859637735899    0.08699385520627138    0.07084241023623468    
  0.05995923552675758    0.053824798277437    0.051844844667090675    0.05382478244705834    0.059959225950352676    
  0.07084242164352657    0.08699388962032963    0.10776862305054845    0.12998199382053302    0.1477402729792086    
  0.15464087999084847    0.22412016897984588    0.2118818923424784    0.18080239537340348    0.14260334692154314    
  0.10776865860922573    0.08157105628162181    0.06449537723833683    0.05517950855936382    0.052260688388155    
  0.05517946564475394    0.06449537237304376    0.0815710659613573    0.10776866598129772    0.14260330514467331    
  0.18080243193869072    0.21188194495052065    0.22412016897984588    0.303874025465021    0.28507836813658777    
  0.23783560783279073    0.18080238015689812    0.12998197444810686    0.09281178505394748    0.06931161518641542    
  0.05689143458252843    0.053087332250752635    0.05689141843243415    0.06931159454557768    0.0928118594586265    
  0.12998200622737047    0.18080237207028793    0.23783554937034898    0.2850783928527027    0.303874025465021    
  0.3711486896672803    0.34652253896548446    0.2850783702066723    0.21188194731095958    0.14774034820999912    
  0.10168526016376644    0.07315253483460758    0.058362140439254626    0.05389273084149542    0.058362094870700855    
  0.07315250606586282    0.10168525230111684    0.14774034624243165    0.211881896069016    0.2850784195641514    
  0.3465226563742943    0.3711486896672803    0.3981284049782649    0.3711486799918698    0.3038739885195555    
  0.22412013080396573    0.15464087000419258    0.10509758824552036    0.07463103928486199    0.05894341220340044    
  0.0542206386824744    0.058943382028697124    0.07463101628136856    0.10509762463547512    0.15464088747615223    
  0.2241200932768609    0.30387404195876955    0.37114864209286147    0.3981284049782649    0.42603732483664075    
  0.3987092572091142    0.3284761520239349    0.24247041448198617    0.16646695184236301    0.11219705559347752    
  0.07892320554946547    0.06178312253840793    0.05660136445359469    0.06178309861425029    0.07892320180391796    
  0.11219707294857689    0.16646697679834868    0.24247041619344184    0.32847618877343104    0.3987092853631558    
  0.42603732483664075    0.3987093428234452    0.37334368072349006    0.3084791958744235    0.22930206624276311    
  0.1591312957028519    0.10868219214996114    0.07750134809154943    0.06133066332799528    0.056420252687145046    
  0.06133062811779905    0.07750133681885578    0.10868219415736526    0.1591313366996036    0.22930193843398294    
  0.30847924239281355    0.37334372772309526    0.3987093428234452    0.3284761979865104    0.3084792296150826    
  0.257668184354107    0.19570388445999448    0.14019111365877568    0.09948868620467809    0.07377161454065262    
  0.06017284532980936    0.05599757524258085    0.06017284967640607    0.07377159336975776    0.09948869364711643    
  0.14019112187663174    0.19570388494154536    0.2576681770539911    0.30847925148059974    0.3284761979865104    
  0.24247042182783346    0.22930197176584158    0.19570390937409826    0.15429685695872422    0.11639758016510343    
  0.08775910991551453    0.06906942940518987    0.058908611329833806    0.05573171225202656    0.05890858766910788    
  0.06906938969393811    0.08775916759466398    0.11639758955842962    0.15429680868779613    0.1957040019214709    
  0.22930206287051025    0.24247042182783346    0.16646692012669687    0.1591312982277106    0.14019111599272427    
  0.1163975309851445    0.09403144786533581    0.07653170819779204    0.06473755284155785    0.058161699471351025    
  0.05607549327560249    0.05816169594541124    0.06473753587861221    0.07653171469911693    0.09403143638028624    
  0.11639753359440529    0.1401910897032711    0.15913130803885495    0.16646692012669687    0.11219709738105162    
  0.10868216186013693    0.09948867496711065    0.08775913566062123    0.07653173741609097    0.06759860594375056    
  0.06155830346202717    0.05821830807342224    0.05715499813730247    0.05821828848211993    0.061558265297643015    
  0.06759861808835665    0.07653176296228825    0.08775911754505894    0.09948871152074569    0.10868222550279048    
  0.11219709738105162    0.07892317838183675    0.07750134877865598    0.07377160225701249    0.06906941464860943    
  0.06473753472966796    0.06155824579866076    0.059733397746108634    0.058929171231667424    0.05870928337831975    
  0.05892915605533822    0.05973334412923286    0.06155828121788953    0.0647375460516526    0.06906938914912251    
  0.07377159685840202    0.07750135550888024    0.07892317838183675    0.06178311260263849    0.061330634031517006    
  0.0601728621975641    0.05890863956030736    0.0581617205300349    0.058218291909299356    0.05892919935370152    
  0.05974906445066795    0.060096155597997254    0.05974904915353924    0.05892918697561598    0.05821830847851503    
  0.05816174219991872    0.058908607365034595    0.06017288711401558    0.061330666022568835    0.06178311260263849    
  0.05660134448477897    0.05642023877902311    0.05599755559940176    0.05573169456335186    0.05607549550132343    
  0.05715498122377502    0.058709313246831    0.06009617152374072    0.06065174188561146    0.060096150698337944    
  0.05870930547589882    0.057154989393282965    0.05607549305805894    0.05573168876829996    0.05599755117559606    
  0.05642025310356149    0.05660134448477897    0.061783110820835825    0.06133063278366106    0.06017286536713866    
  0.05890863628673242    0.05816170396064492    0.05821827668529591    0.05892920935487278    0.05974906759843658    
  0.06009615748628507    0.0597490369877275    0.0589291634684926    0.05821830533935446    0.05816173475326305    
  0.05890858478692748    0.060172890800279634    0.06133066319812349    0.061783110820835825    0.07892319144033057    
  0.07750135322889141    0.07377156548969017    0.06906940377497774    0.06473753711016549    0.06155824660424151    
  0.05973336847358357    0.05892915620053676    0.05870931528768646    0.05892917133816096    0.05973336935568248    
  0.06155828149636178    0.06473754860584559    0.06906940846516646    0.07377160539085975    0.07750135910736258    
  0.07892319144033057    0.11219708338108235    0.10868219520428231    0.09948870461293609    0.08775914224829036    
  0.07653174382762538    0.06759861771582819    0.0615583132817477    0.05821832404408048    0.057154970316843946    
  0.05821827862145322    0.06155828420223997    0.06759863614649986    0.07653174790001725    0.0877591074496108    
  0.09948874475721747    0.10868222604597168    0.11219708338108235    0.16646694539483448    0.15913129972797796    
  0.14019107741261755    0.11639755709293885    0.09403141903445603    0.07653170949793024    0.06473755964018038    
  0.058161696450290123    0.05607548534050036    0.05816170671451417    0.06473754851339891    0.07653171656504301    
  0.09403143749613768    0.11639753668233371    0.14019110115568867    0.1591313104902635    0.16646694539483448    
  0.24247045795981415    0.2293019693568724    0.19570395573888943    0.15429687730064168    0.11639758365078916    
  0.0877591206219652    0.06906943458833446    0.058908639769709746    0.05573171508437171    0.05890859901457836    
  0.06906941661914763    0.08775913316846812    0.11639758910019005    0.15429676873676818    0.19570396918081034    
  0.22930201443519177    0.24247045795981415    0.32847619151365015    0.30847916564291783    0.25766820519826206    
  0.1957039092557857    0.14019108325247018    0.09948865915964981    0.07377163567164623    0.060172857856826405    
  0.05599755893625187    0.060172857397104575    0.07377160354843303    0.09948870335207835    0.14019107655068497    
  0.19570392462301536    0.25766820261840767    0.30847922817652423    0.32847619151365015    0.39870933552005094    
  0.37334371442422115    0.30847925721465125    0.22930207146219125    0.1591313355882974    0.1086822079725984    
  0.07750134989025297    0.06133064866549969    0.05642023949951334    0.06133062264039462    0.07750134875693415    
  0.10868221419393358    0.15913134021162126    0.2293019824803818    0.3084792378690897    0.3733437756549465    
  0.39870933552005094    0.42603732483664075    0.3987092572091142    0.3284761520239349    0.24247041448198617    
  0.16646695184236301    0.11219705559347752    0.07892320554946547    0.06178312253840793    0.05660136445359469    
  0.06178309861425029    0.07892320180391796    0.11219707294857689    0.16646697679834868    0.24247041619344184    
  0.32847618877343104    0.3987092853631558    0.42603732483664075    0.4574419826205692    0.4401048576661265    
  0.3823784774546073    0.29203082056864565    0.20118026859693502    0.13338346489872593    0.09170446928998154    
  0.07034835592391434    0.0638798953955189    0.07034833613176912    0.09170443834488068    0.1333835105551951    
  0.20118029570249646    0.2920307369147436    0.38237850987295596    0.44010489350539395    0.4574419826205692    
  0.4401048419075076    0.4214540035806573    0.36349426487771747    0.27753877274562394    0.19279869246053022    
  0.12955889118091757    0.09043205714927978    0.07024666323032779    0.06410835976333737    0.07024664014131468    
  0.09043201150879392    0.1295589249872977    0.19279876648246527    0.27753866122159615    0.36349422648374957    
  0.421454079967677    0.4401048419075076    0.3823784567479243    0.3634942057604427    0.3105831354793726    
  0.23898796631173777    0.17074665095503086    0.11951810468819732    0.08717358587478684    0.07015525956778716    
  0.0649187537177907    0.07015526797649765    0.08717358779284962    0.11951810589006999    0.17074665702295036    
  0.2389879135686967    0.3105831278925829    0.3634942998622103    0.3823784567479243    0.2920307965920483    
  0.2775387655394378    0.23898795602550127    0.18928536736016296    0.1424832762158701    0.10665369372275227    
  0.08329999156341263    0.07068691547135796    0.06676631235618086    0.07068688787464121    0.0832999442979071    
  0.10665378605709744    0.14248323036013152    0.18928531200202833    0.23898798485090264    0.2775388698392873    
  0.2920307965920483    0.20118024016995872    0.19279866415853977    0.17074667871932311    0.14248321963748195    
  0.11557613158227281    0.09442719992105182    0.08021952929656548    0.07244245356589266    0.07002944327397698    
  0.07244247761395219    0.08021951717796694    0.09442719896095778    0.11557610411084596    0.14248319915044932    
  0.17074665332672506    0.19279873274055725    0.20118024016995872    0.13338350127986406    0.1295588911443391    
  0.11951811574958933    0.1066537595883246    0.0944272230245523    0.08491277167121616    0.0786830731702085    
  0.07543459540790233    0.0744829396942141    0.07543454893175698    0.07868305584165049    0.08491279575819066    
  0.09442722885430789    0.10665370299829192    0.11951813148553354    0.1295589380179343    0.13338350127986406    
  0.0917044249690704    0.09043201088273459    0.0871735878272424    0.08329995339801195    0.08021953213587851    
  0.07868303625315988    0.07851325515069114    0.07897278787033707    0.07925013040905171    0.07897277215944702    
  0.07851319202564962    0.07868307711070709    0.08021952189847578    0.08329992946872539    0.08717357337494969    
  0.09043204409104061    0.0917044249690704    0.07034835801596989    0.07024664806593299    0.07015526664682666    
  0.07068692362715125    0.07244248327081268    0.07543453885488044    0.07897280908098248    0.08191048327226491    
  0.08306804566240308    0.08191047166913114    0.07897282481893177    0.07543457210894887    0.07244248733572216    
  0.07068689627532095    0.07015529232177416    0.07024666958104193    0.07034835801596989    0.06387988654290648    
  0.06410836271571374    0.06491872848880446    0.06676633228406698    0.0700294431664533    0.07448291492676702    
  0.07925015291524057    0.08306807991401093    0.08456961758189985    0.08306801777388549    0.0792501559511385    
  0.07448294546413042    0.07002942550735458    0.06676632039160425    0.06491876716553165    0.06410836385266461    
  0.06387988654290648    0.07034833808386941    0.07024663604911936    0.07015526741191065    0.07068693788727386    
  0.07244246715144902    0.07543455747916633    0.07897281013490579    0.0819104629632177    0.08306803843987982    
  0.08191043270794235    0.07897280706888536    0.07543456981069503    0.07244249982206163    0.07068687787577413    
  0.07015528137052146    0.07024666183402721    0.07034833808386941    0.09170444868025128    0.09043201719668305    
  0.08717357171812808    0.0832999564933945    0.08021952789665977    0.07868303394841335    0.07851320335874525    
  0.07897277651419626    0.0792501590157218    0.07897277306508342    0.07851320193524464    0.07868306146924257    
  0.08021948839282812    0.0832999537150153    0.08717358216922251    0.09043204309868344    0.09170444868025128    
  0.13338344778801592    0.12955893258386567    0.11951809802132726    0.10665377603939787    0.09442724736342256    
  0.08491276131307576    0.07868307947363996    0.07543459390869664    0.07448291357937702    0.07543455360191137    
  0.07868304891014691    0.08491280327229454    0.09442723509395885    0.10665370611247224    0.11951817957770172    
  0.12955894443164861    0.13338344778801592    0.20118026119301002    0.1927986860905765    0.1707466629195867    
  0.14248322240112726    0.11557613210903832    0.09442720518586119    0.08021953035471902    0.0724424660423937    
  0.07002943783466259    0.0724424504124046    0.08021951325115428    0.09442721134627216    0.11557612048021547    
  0.1424831949296904    0.17074666553887938    0.19279871490320685    0.20118026119301002    0.2920308202327741    
  0.2775387334606382    0.23898797443974767    0.18928534207998443    0.14248323877728925    0.10665372393505082    
  0.0832999947285136    0.07068694353530441    0.06676633934028571    0.07068689659124344    0.08329995819782914    
  0.10665372329666127    0.14248328036808933    0.18928529582203207    0.23898799059087047    0.27753879616325267    
  0.2920308202327741    0.38237851303712106    0.3634941675615179    0.3105831529503503    0.23898793684997474    
  0.17074666437647879    0.11951805774671058    0.08717359516168485    0.07015525263135665    0.06491874603719237    
  0.07015523989812326    0.08717358548527053    0.11951812748636528    0.17074668222304223    0.23898791491870078    
  0.3105831577280272    0.3634942205630858    0.38237851303712106    0.44010487833193745    0.42145406557116055    
  0.36349422493746286    0.27753878291974204    0.1927987585538286    0.12955892526023677    0.09043201429472698    
  0.07024665995833468    0.06410834580459625    0.07024663209258651    0.090432019090488    0.12955894278996238    
  0.19279876244356567    0.27753874349264407    0.36349425707038385    0.4214540911894131    0.44010487833193745    
  0.4574419826205692    0.4401048576661265    0.3823784774546073    0.29203082056864565    0.20118026859693502    
  0.13338346489872593    0.09170446928998154    0.07034835592391434    0.0638798953955189    0.07034833613176912    
  0.09170443834488068    0.1333835105551951    0.20118029570249646    0.2920307369147436    0.38237850987295596    
  0.44010489350539395    0.4574419826205692    0.35353975949611777    0.37466296285031575    0.3947235989495531    
  0.3474442203514294    0.2519283914481013    0.16624632451804072    0.11180459141894408    0.08407085148580253    
  0.07570781095595766    0.08407083875571698    0.11180457173252883    0.166246407916951    0.25192840673768246    
  0.3474441896984707    0.3947236431000739    0.37466304125778865    0.35353975949611777    0.37466296893139855    
  0.388320497063079    0.3921885715060356    0.33612063045607415    0.24300399576541631    0.16226635571499215    
  0.11102544006680627    0.08475286611329266    0.07679043651015498    0.08475282827341386    0.11102539596007416    
  0.1622664154737833    0.2430040241668216    0.33612046037704346    0.3921886578732205    0.38832061180370275    
  0.37466296893139855    0.39472355995808683    0.3921886139197908    0.36586634343205465    0.299790550050749    
  0.21841818664066484    0.15197251113650317    0.10948169860717873    0.08720380557961643    0.08035233200758617    
  0.08720379223504274    0.10948168874040402    0.15197253611753428    0.2184182393713644    0.29979044972456315    
  0.3658664129008725    0.392188685576004    0.39472355995808683    0.3474442134483885    0.3361205385846794    
  0.2997905268642807    0.24354742591603745    0.18512815585828304    0.13888505589360498    0.10857278481575068    
  0.09217463835888597    0.08705131258492028    0.09217458222631059    0.10857274320613387    0.13888509826761852    
  0.18512816119043105    0.2435473614219222    0.2997905871027229    0.3361206209626814    0.3474442134483885    
  0.2519283665160869    0.24300392803321288    0.2184182468736738    0.18512813448843785    0.15245826077688815    
  0.12668506569903107    0.10944733455805676    0.10004269937871893    0.09714828768440575    0.10004269317467562    
  0.10944734202805934    0.12668507661500603    0.15245821034580642    0.1851280731213229    0.21841826795964372    
  0.24300400177355602    0.2519283665160869    0.16624637953185267    0.1622663488080661    0.15197253398633911    
  0.13888508926054483    0.12668509515425772    0.11781412060941361    0.11259794335023114    0.1102908436172098    
  0.1097574694775052    0.11029079845841647    0.11259789957655504    0.11781416156310266    0.12668510338717745    
  0.13888503399016866    0.1519725818896696    0.16226642543652406    0.16624637953185267    0.11180455245227748    
  0.11102535250999113    0.10948169426262636    0.10857273720458084    0.10944733037187705    0.11259785740871775    
  0.11708224055883117    0.12102718347682972    0.1226261484271547    0.12102715890377246    0.11708219864379694    
  0.11259795688992845    0.10944734540318718    0.10857275805920341    0.10948168367411228    0.11102540161036444    
  0.11180455245227748    0.08407084874913272    0.08475282868123854    0.08720382122621974    0.09217463430368374    
  0.10004274847735135    0.11029080470695082    0.12102719485586336    0.12937276383172686    0.13256040455214446    
  0.12937273259558987    0.12102717078326568    0.11029084991063541    0.10004275732232047    0.09217457551126816    
  0.08720383531434048    0.08475286569617235    0.08407084874913272    0.07570779657289825    0.07679042981463909    
  0.08035231506880057    0.0870513413590185    0.09714825925265275    0.10975746690089631    0.12262614863622208    
  0.13256043189929098    0.13635725049344005    0.13256040360075896    0.12262615467541287    0.10975749582121597    
  0.0971482692311895    0.08705128974702465    0.0803523233321207    0.07679044416668787    0.07570779657289825    
  0.08407084074706937    0.0847528237247411    0.0872038051190285    0.09217462970569336    0.1000427036906208    
  0.11029079834381306    0.12102722955589026    0.12937278740264577    0.1325603891609215    0.129372685516828    
  0.1210271845085722    0.11029083516964105    0.10004272248638965    0.09217458979736379    0.08720381895144695    
  0.08475285494059084    0.08407084074706937    0.11180459101667366    0.1110253944007673    0.109481660606448    
  0.10857272902244054    0.10944732898076452    0.11259789652840393    0.1170822189048856    0.12102715893468866    
  0.12262618809036221    0.12102716834474014    0.11708220173173303    0.1125978981273601    0.10944732363913497    
  0.10857275753944418    0.1094816831924747    0.11102541074096907    0.11180459101667366    0.16624633751273232    
  0.1622663820863753    0.15197249975175478    0.13888509732324866    0.1266851064831572    0.1178141299813722    
  0.11259794703880276    0.11029085615621938    0.10975746168493593    0.11029080253933925    0.11259788855741719    
  0.11781414454700698    0.1266850955849912    0.13888503761700596    0.151972558853415    0.1622664131607548    
  0.16624633751273232    0.2519283665865991    0.2430039946427874    0.21841821963220703    0.1851281076556331    
  0.1524582151466272    0.12668507134026458    0.10944735225423702    0.10004270217292112    0.09714827029716534    
  0.10004267617059076    0.10944733618637521    0.12668506972833565    0.15245824388406015    0.18512809642500866    
  0.21841823996536233    0.24300403170873006    0.2519283665865991    0.3474442762683299    0.336120559752082    
  0.29979054381933923    0.24354743136902388    0.1851281056769995    0.1388850465974061    0.10857277398927265    
  0.09217463228952028    0.08705134714187186    0.09217457869607285    0.10857275189896379    0.13888506960345068    
  0.1851281847414754    0.24354732936956533    0.29979057204165904    0.33612058168531916    0.3474442762683299    
  0.39472361792574157    0.3921885504472804    0.3658663389951026    0.2997905435923733    0.21841819933186565    
  0.15197250948862853    0.10948173644144238    0.08720379493165378    0.08035230553185467    0.08720376612031057    
  0.10948166665192266    0.1519725641651129    0.21841825586043243    0.2997904888978933    0.3658663416589745    
  0.39218863770351375    0.39472361792574157    0.3746629795147258    0.3883205110608163    0.3921885814168062    
  0.33612058842957754    0.2430040137735317    0.16226640889117314    0.11102539950886994    0.08475285272020751    
  0.07679042823799946    0.08475282023052258    0.11102536363941737    0.16226639725966482    0.2430040127393565    
  0.33612050935697835    0.3921886255074989    0.3883205979403875    0.3746629795147258    0.35353975949611777    
  0.37466296285031575    0.3947235989495531    0.3474442203514294    0.2519283914481013    0.16624632451804072    
  0.11180459141894408    0.08407085148580253    0.07570781095595766    0.08407083875571698    0.11180457173252883    
  0.166246407916951    0.25192840673768246    0.3474441896984707    0.3947236431000739    0.37466304125778865    
  0.35353975949611777    0.15745517211510018    0.2054057313886887    0.32037612119723846    0.37305851053949207    
  0.3028785263905614    0.20389141953419357    0.1359610952564574    0.10104935625012998    0.09052012657785731    
  0.10104934589800102    0.13596105852664903    0.20389150231564357    0.30287857452340516    0.3730584302659234    
  0.3203761589028463    0.2054057220937201    0.15745517211510018    0.20540571192566184    0.25063963285434854    
  0.34652995041703993    0.37277697119657965    0.29554078793891575    0.2006927675039649    0.1365172065852846    
  0.10335083904839704    0.0932837116130998    0.10335079262824196    0.13651714903640247    0.20069280965138114    
  0.29554082296598033    0.3727768372125121    0.3465300004768636    0.25063972965224973    0.20540571192566184    
  0.3203761074361593    0.3465299276699832    0.3825849515566513    0.35547607790604707    0.27322023531256623    
  0.192748366877459    0.13916636001486116    0.11083553690997419    0.10207892145629202    0.11083551779289597    
  0.1391663559239758    0.19274840445639105    0.27322021975396615    0.35547597944062126    0.38258501464054595    
  0.34653006770481104    0.3203761074361593    0.3730585327507468    0.3727769179705041    0.3554760522911079    
  0.305082595713586    0.239264823768537    0.1829890394901248    0.14520158428562485    0.12452061930142719    
  0.11800926236617361    0.12452058028314968    0.14520152574039086    0.18298910070084187    0.23926478904546492    
  0.3050825771798166    0.3554761349781093    0.3727770082740185    0.3730585327507468    0.30287852591727504    
  0.2955407528836078    0.27322027355309464    0.23926476633844382    0.20347257409886924    0.17459663874926465    
  0.15527792207121172    0.14479242618682958    0.14159184938168495    0.14479240859097747    0.15527791896648785    