#     DFTpy    
  CRYSTAL 
    
  PRIMVEC    
  1.5721613027698207    -2.723063254091006    0.0    
  1.5721613027698207    2.723063254091006    0.0    
  0.0    0.0    5.197117365641914    
  PRIMCOORD    
  4    1    
  Si    1.572161302769821    0.9076877513636684    0.3274677666504131    
  Si    1.572161302769821    -0.907687751363669    2.92602644947137    
  Si    1.572161302769821    0.9076877513636687    2.271090916170544    
  Si    1.5721613027698211    -0.9076877513636687    4.869649598991501    
  BEGIN_BLOCK_DATAGRID_3D    
  3d_datagrid_density    
  BEGIN_DATAGRID_3D#0    
  15    15    23    
  0.0    0.0    0.0    
  1.5721613027698207    -2.723063254091006    0.0    
  1.5721613027698207    2.723063254091006    0.0    
  0.0    0.0    5.197117365641914    
  0.15373838750436639    0.16936344744045842    0.22006123549127873    0.3161663838397963    0.46483932273094547    
  0.6451635485009836    0.7968100453692679    0.8558304253749538    0.7968100971772877    0.6451634770472006    
  0.46483939848581046    0.3161663633073506    0.22006122148643117    0.16936343104278115    0.15373838750436639    
  0.16936344003345535    0.16935935948738615    0.20248413679728042    0.2753157885720379    0.39484881454456233    
  0.548407240563118    0.6872419183375901    0.7626065849190886    0.7626658412665809    0.6872348449997726    
  0.5483668577695527    0.3948749909463155    0.27532046832934504    0.2024767568996529    0.16936344003345535    
  0.220061223861946    0.2024841462726227    0.22005689359032451    0.27531575635956845    0.3697668511450156    
  0.4830545880030337    0.5568400454147314    0.560114563687975    0.5469986841121115    0.5601051550668865    
  0.556904136947585    0.4830593416849619    0.36973453598308437    0.2753204416058708    0.220061223861946    
  0.31616635487338335    0.2753157781945038    0.275315695855702    0.3161782918723629    0.39483513656225044    
  0.48304890450792853    0.5027431291923347    0.41398354081286526    0.32145255432441555    0.3214431962479471    
  0.41394883905638946    0.502727229783778    0.4830593086444617    0.3948749761963961    0.31616635487338335    
  0.464839372417495    0.3948487797759979    0.36976684137442833    0.3948351330990816    0.4648834383914549    
  0.5483684409041238    0.5568893082938041    0.41396542256600916    0.24111034831490602    0.17823043364087535    
  0.24114206769078128    0.41394880019509706    0.5569041217406635    0.5483668262672056    0.464839372417495    
  0.6451634946207634    0.5484072424245882    0.4830545492445554    0.4830489480630774    0.5483684754456418    
  0.6451480020891559    0.6872541801188904    0.5601007160762786    0.3214522107347989    0.17824470157247352    
  0.17823044733107668    0.321443205268932    0.5601051966882507    0.6872347556359227    0.6451634946207634    
  0.7968100575805773    0.6872420315204072    0.5568400345316978    0.5027431631728564    0.5568893761756142    
  0.6872542074434618    0.7967799933270364    0.7626694006539156    0.5469931100049128    0.3214522117932155    
  0.24111035602376507    0.3214525275657605    0.5469987635961994    0.7626658245794493    0.7968100575805773    
  0.8558304285642889    0.7626066060543738    0.5601145563898761    0.41398352988113063    0.41396541849341867    
  0.5601006920214606    0.7626693841112407    0.8557849303836295    0.7626693680821346    0.5601006651294383    
  0.4139654387171035    0.4139835413258569    0.5601145440475364    0.7626065605701825    0.8558304285642889    
  0.7968101165828839    0.7626658347790205    0.5469987766014857    0.32145254727049644    0.24111034498943615    
  0.32145222059278916    0.5469930524467248    0.7626693858201797    0.7967800069464307    0.6872542395188476    
  0.5568893845327523    0.5027431704193599    0.5568400772963887    0.6872419115531446    0.7968101165828839    
  0.6451634619681991    0.6872347565480521    0.560105173787584    0.3214432389861383    0.17823044108306846    
  0.17824468594143317    0.32145221194992035    0.5601006865000047    0.6872541837369188    0.6451479501986791    
  0.548368489000746    0.4830489397578073    0.4830545874464631    0.5484072280730772    0.6451634619681991    
  0.46483935583060704    0.5483667829542626    0.5569041544937144    0.41394882416361073    0.24114206709393604    
  0.1782304268908207    0.24111031316794873    0.4139654283775276    0.5568893387884666    0.5483684355865347    
  0.4648834788776332    0.3948350995198383    0.3697668755930854    0.3948487947287676    0.46483935583060704    
  0.31616636549888083    0.39487496549719914    0.48305932307350613    0.5027272695148843    0.4139488145794834    
  0.3214432100196963    0.3214525335992844    0.4139835214731018    0.5027431724753537    0.4830489113574479    
  0.3948351260616855    0.3161782714880417    0.27531569913291354    0.2753157756187563    0.31616636549888083    
  0.22006123117361384    0.2753204413312919    0.36973451458466927    0.4830593428263424    0.5569041351101619    
  0.5601051983360388    0.5469987770566053    0.5601145801494283    0.5568400495463165    0.48305455649313445    
  0.36976686459758196    0.27531572487121175    0.2200569028684952    0.20248413427600823    0.22006123117361384    
  0.16936345107665088    0.20247676621987284    0.27532044080752355    0.39487500097733697    0.5483668335478403    
  0.6872348272778798    0.7626657843930622    0.7626065912373315    0.6872419733468405    0.5484072714011808    
  0.3948488481040478    0.2753157808115678    0.20248414019206817    0.16935935068390193    0.16936345107665088    
  0.15373838750436639    0.16936344744045842    0.22006123549127873    0.3161663838397963    0.46483932273094547    
  0.6451635485009836    0.7968100453692679    0.8558304253749538    0.7968100971772877    0.6451634770472006    
  0.46483939848581046    0.3161663633073506    0.22006122148643117    0.16936343104278115    0.15373838750436639    
  0.15088742291087903    0.16530156004850416    0.21202208395526173    0.30044792554136657    0.43633930494285744    
  0.5994893722383939    0.7351596354106055    0.7875332417444268    0.7351699981142695    0.5995088579494444    
  0.43633505336817435    0.3004363675495785    0.2120348476000491    0.165298789600755    0.15088742291087903    
  0.16529878903498835    0.16529377537151238    0.19457827863485327    0.25849834252491355    0.3645511040281247    
  0.5072838341844896    0.6499891593673612    0.738848480952875    0.7388855951909059    0.6499781472479806    
  0.5072574697227032    0.3645714273730539    0.25850177934979107    0.19456504245008088    0.16529878903498835    
  0.2120348415719919    0.1970792835136021    0.21202272756184132    0.25849967849228245    0.33906051356743744    
  0.446933825653476    0.5503824601642267    0.6118136976161809    0.628765248983554    0.6117991081225297    
  0.5504267093718629    0.44692897219734473    0.33904472611106784    0.2585017522785559    0.2120348415719919    
  0.3004363573088905    0.2672813437930496    0.2672965892544662    0.3004459614266247    0.3645475064787771    
  0.4469197825667727    0.5103205412180324    0.5153063869389671    0.48814894944712267    0.4881497185121841    
  0.5152842525812205    0.5103094467481023    0.446928962744017    0.36457141365089857    0.3004363573088905    
  0.43633502303220206    0.38063996024559843    0.3602725898970081    0.3806199256211103    0.43635923075066374    
  0.5072728093115091    0.5504069894243614    0.5152964803154395    0.42798082851906033    0.3841437422381338    
  0.4280028567348295    0.5152842305301908    0.5504267113499155    0.5072573789019128    0.43633502303220206    
  0.5995088361846783    0.5174788633370674    0.4596821279516324    0.4596789499993268    0.5174631156737625    
  0.5994804464747954    0.6500023861577882    0.611802451154674    0.4881428715433314    0.38416584398821896    
  0.38414377506265057    0.48814975254121307    0.6117991804034368    0.6499780622278715    0.5995088361846783    
  0.7351699555256751    0.6253696803807929    0.49289702688422715    0.4368027896545943    0.492916851146286    
  0.625392371024869    0.7351410208393762    0.7388713742014283    0.6287792659283807    0.48814285833655824    
  0.4279808330493727    0.4881489054903204    0.6287653132991569    0.7388855776536062    0.7351699555256751    
  0.7875332613341797    0.672384665907897    0.44832801657756716    0.296785534468364    0.2967883457515917    
  0.44832220691466246    0.6724288388174973    0.7875196414701044    0.7388713964649929    0.6118024035230916    
  0.5152964956139587    0.5153063897176702    0.6118137073724041    0.7388484419265505    0.7875332613341797    
  0.7351597084138022    0.6724213487494567    0.41613720439424734    0.18972865393940394    0.12210784524248824    
  0.18973449483623392    0.416129972316606    0.6724288559149367    0.7351410974921836    0.650002403514993    
  0.5504070721755823    0.5103205440086438    0.550382496531276    0.6499891542193792    0.7351597084138022    
  0.5994892687283785    0.6253886953403281    0.448328551770136    0.18971529221832953    0.07319034119755573    
  0.07317497303656677    0.18973448642610577    0.4483221368016468    0.6253923506898499    0.5994803910879455    
  0.5072728072023993    0.4469198184207639    0.4469338324899576    0.5072838524168516    0.5994892687283785    
  0.436339331448233    0.5174699117122014    0.4929096652033287    0.2967945081997202    0.12210492903811235    
  0.07319033896409882    0.1221078187593882    0.2967883737295901    0.4929168348369916    0.5174630644372586    
  0.43635929868522216    0.36454747381317054    0.3390605407419664    0.36455107245363844    0.436339331448233    
  0.3004479153621283    0.3806249323130505    0.4597155202239851    0.4367590781556664    0.29679449901630445    
  0.18971525667633296    0.18972865240739004    0.29678554448170225    0.4368028236127272    0.45967889017153024    
  0.38061993384032367    0.30044593046248297    0.25849963260055364    0.25849832617806046    0.3004479153621283    
  0.21202208699973674    0.2673026093972516    0.36024486008540124    0.4597155323417512    0.49290963220952844    
  0.4483285578538459    0.4161372169761355    0.4483280568159493    0.49289704140148377    0.45968207801248306    
  0.3602726211036861    0.2672966177252933    0.2120227373836832    0.19457828237881847    0.21202208699973674    
  0.16530155705179658    0.19706889732902866    0.2673025885248561    0.3806249839320449    0.5174699525107321    
  0.625388706435431    0.6724213375884479    0.6723846473677256    0.625369615158017    0.5174788376185174    
  0.38064000888646476    0.26728136318981666    0.19707926586947389    0.1652937620345918    0.16530155705179658    
  0.15088742291087903    0.16530156004850416    0.21202208395526173    0.30044792554136657    0.43633930494285744    
  0.5994893722383939    0.7351596354106055    0.7875332417444268    0.7351699981142695    0.5995088579494444    
  0.43633505336817435    0.3004363675495785    0.2120348476000491    0.165298789600755    0.15088742291087903    
  0.14287131184817264    0.1544992253822115    0.19202342363561598    0.2622388902592338    0.3684416742554839    
  0.49426460901394903    0.598226596793212    0.6382903755093511    0.598260934540007    0.4942780632915897    
  0.36841917483614733    0.26223207676681237    0.19203438769316888    0.1544975537939751    0.14287131184817264    
  0.15449756074183418    0.15449385319083306    0.1764635141276642    0.22418870829579843    0.30296180744067963    
  0.4097150030489241    0.5202503625523104    0.5928171727937731    0.5928249584688967    0.520232947855108    
  0.4097049490473106    0.3029876238125002    0.22418904628783654    0.1764518622068069    0.15449756074183418    
  0.19203438513475057    0.18164842399913403    0.19202452006051252    0.22418372059337544    0.28039339295738047    
  0.35914160674650547    0.4459925822869787    0.5143392108831942    0.5401680912269862    0.5143275659528252    
  0.4460183313445084    0.3591406228798964    0.28036968389819805    0.22418902323736128    0.19203438513475057    
  0.2622320862959164    0.24118805474423546    0.24120005344117842    0.2622420669791377    0.3029602242467527    
  0.35913538803343015    0.4183405025099456    0.46113725396050054    0.47937639242882774    0.47938364619159335    
  0.46113803383289437    0.4183211587286293    0.3591406141806786    0.30298761730739954    0.2622320862959164    
  0.36841914604772463    0.3362653032141869    0.324081893574373    0.3362500336990532    0.36844629165799014    
  0.4097152959892103    0.4459951937869054    0.4611416908983798    0.4529231012131487    0.4446976559431647    
  0.4529213102611319    0.4611379484213009    0.4460183228358857    0.4097049191428988    0.36841914604772463    
  0.4942780884624724    0.44964610784100506    0.4143141206520478    0.4143161038657097    0.44961506485941327    
  0.4942640356500717    0.5202608500318106    0.5143283109460695    0.47937341985151855    0.44470751927466307    
  0.4446976882218    0.47938367130073256    0.5143276597339356    0.5202329493354506    0.4942780884624724    
  0.5982608353941966    0.5374966291331063    0.4481335368903999    0.40691171240953666    0.4481635643258173    
  0.5375140805495814    0.5982229552618873    0.5928197823593646    0.5401820806317125    0.4793734147542411    
  0.4529231225260606    0.47937636066008216    0.5401681818048838    0.592824862885814    0.5982608353941966    
  0.6382904023527777    0.5745048233176595    0.4118812449617202    0.28960589777215967    0.28959948170379285    
  0.4118773193683353    0.5745512202185433    0.6382807538488009    0.5928197360059969    0.5143283195195841    
  0.4611417177616299    0.46113725760964996    0.5143392036605327    0.5928171212140356    0.6382904023527777    
  0.5982266573645357    0.5745418671383232    0.38402724700697355    0.19284090344952146    0.1310825007145046    
  0.19284469869149748    0.3840151584362603    0.5745512777422747    0.5982229677323859    0.5202608684224512    
  0.44599526691343644    0.41834054308204466    0.44599262165357967    0.5202503524611527    0.5982266573645357    
  0.4942645449383466    0.5375249666633849    0.4118829086986899    0.1928264415513458    0.08318992951602161    
  0.08318290821566793    0.19284468827135845    0.4118773014972745    0.5375140602257589    0.49426402002100783    
  0.4097153148430315    0.35913542243621177    0.35914161655153015    0.40971500522585774    0.4942645449383466    
  0.36844171749298954    0.44962384448457593    0.448147956310063    0.28959826182403664    0.13109159859919373    
  0.08318991707637033    0.13108249151394524    0.2895994987371964    0.44816353914755963    0.4496150244741309    
  0.36844631528077953    0.3029601973716784    0.2803933817511894    0.30296179673280704    0.36844171749298954    
  0.26223887709076793    0.33624979256660203    0.4143400273129422    0.40689243907157324    0.28959826248497655    
  0.19282642269985084    0.19284089016185912    0.28960589326091624    0.40691171759690414    0.41431608697573896    
  0.3362500368445709    0.26224204033068244    0.22418367812277137    0.22418870508952798    0.26223887709076793    
  0.19202343204871966    0.24120501849803222    0.3240661126900977    0.4143400612838793    0.44814795387282813    
  0.4118829229365161    0.3840272513982064    0.4118812752922712    0.44813356202921045    0.4143140943877615    
  0.32408189263824994    0.24120007547997466    0.19202453311764564    0.17646350957874024    0.19202343204871966    
  0.1544992300140948    0.18164159389056597    0.24120501380160714    0.33624982319357005    0.44962390128142504    
  0.5375250005793393    0.5745418397228715    0.5745048432043903    0.5374966110468796    0.4496461151664823    
  0.33626535162680204    0.24118806616044425    0.18164841531503279    0.15449384880227118    0.1544992300140948    
  0.14287131184817264    0.1544992253822115    0.19202342363561598    0.2622388902592338    0.3684416742554839    
  0.49426460901394903    0.598226596793212    0.6382903755093511    0.598260934540007    0.4942780632915897    
  0.36841917483614733    0.26223207676681237    0.19203438769316888    0.1544975537939751    0.14287131184817264    
  0.13300986630958583    0.14145232323978182    0.16871940063174098    0.21933541584633728    0.29535448702382483    
  0.3861671276398824    0.46285613626010585    0.4929508210403272    0.46288610651996    0.386169221357978    
  0.29533200903340845    0.2193361150271424    0.16872170203314948    0.14145269540275776    0.13300986630958583    
  0.14145270131917714    0.14145189161540597    0.1555818983063878    0.18663824963356632    0.2377128868858635    
  0.30658628913124164    0.3785377430580169    0.4263777913764816    0.4263838867561821    0.37851630434023814    
  0.3065869342473732    0.2377337286179442    0.1866366068211754    0.15557852393058974    0.14145270131917714    
  0.16872171067663824    0.16309619759307356    0.16871831580331537    0.18663465402643328    0.21887620957907794    
  0.2650569605186834    0.3182167217235755    0.36313016611589627    0.3811113790142135    0.36312517438293557    
  0.318235724930975    0.2650531688785155    0.21885792065470255    0.18663659782498407    0.16872171067663824    
  0.2193361253020737    0.21029072102782978    0.2102957255682511    0.2193386086060753    0.23771118832599308    
  0.26505114275053865    0.29766517967820294    0.32764960381515407    0.34583933256577837    0.3458400784653443    
  0.32765238885216647    0.2976506347087845    0.2650531606674172    0.23773372641426094    0.2193361253020737    
  0.29533200119603037    0.28650630772482316    0.2829768241185341    0.28650168058803177    0.2953591968989335    
  0.3065897506344487    0.31821831343252505    0.32765490855512647    0.33262615075365937    0.3338774745091273    
  0.33262574003236817    0.32765232978455666    0.31823569704820653    0.30658691777432784    0.29533200119603037    
  0.3861692367942832    0.38284562779709513    0.3753209300022857    0.37531450399618915    0.38281432241849256    
  0.3861619752964695    0.37853874520823133    0.363121684241753    0.34583866840948163    0.3338795135833915    
  0.33387752087591743    0.34584011796016684    0.3631252020123427    0.3785163052978223    0.3861692367942832    
  0.46288611010878755    0.4685930144310956    0.4454518175120393    0.43013170218785807    0.4454961308867849    
  0.4685947063216488    0.4628636852457734    0.4263846549502602    0.3811146673376999    0.3458386856914703    
  0.33262618186675125    0.3458392858620619    0.38111143256308117    0.4263838539908098    0.46288611010878755    
  0.49295080644513545    0.5139121279606585    0.46204883981033695    0.3987365901525424    0.39871534060406205    
  0.4620432142873401    0.513957210552511    0.4929300636857885    0.42638463978050145    0.3631216375719894    
  0.32765491831521265    0.3276496172737286    0.3631301509023891    0.4263777643774971    0.49295080644513545    
  0.4628562044249781    0.5139531330458144    0.45720476957394324    0.340257365893823    0.2870181782049694    
  0.3402543803655738    0.4571936835352534    0.5139572881066079    0.46286370534826654    0.3785387970986881    
  0.31821835763621914    0.297665214100114    0.3182167615855289    0.37853773129952484    0.4628562044249781    
  0.38616705581087746    0.4686008761510016    0.4620472849235587    0.3402421624595815    0.2364714751930613    
  0.23649102730470112    0.34025437283422827    0.46204318972360947    0.4685946875503205    0.38616195424287003    
  0.30658976587217635    0.2650511649893217    0.2650569586762185    0.30658628064191495    0.38616705581087746    
  0.29535450087649623    0.38281858261904583    0.44548938095802826    0.39869704898701164    0.28706032634774187    
  0.23647146941578795    0.28701815496181204    0.39871533618127103    0.44549612398565047    0.38281430375560943    
  0.29535921292732714    0.2377111714159689    0.21887621395219892    0.23771288089632686    0.29535450087649623    
  0.21933540303794435    0.2865071438617925    0.37531833532444847    0.43014047152129065    0.3986970353993443    
  0.340242113635956    0.34025732315369916    0.3987365609170713    0.43013172967478147    0.37531447735037077    
  0.28650167680783095    0.2193385848834818    0.18663461933968595    0.18663825817220153    0.21933540303794435    
  0.16871940071162791    0.21029407406888886    0.2829765588949346    0.3753183653639032    0.4454893804395187    
  0.46204732313065283    0.45720477351318417    0.46204890647612057    0.44545180776356164    0.3753209030258803    
  0.28297684462073064    0.21029576886353596    0.16871832772468465    0.15558189453187973    0.16871940071162791    
  0.14145232567079438    0.1630960396805938    0.2102940655170823    0.2865071787111056    0.3828185988885864    
  0.4686009525911379    0.5139530384483263    0.513912113230663    0.46859297800552435    0.38284560927343453    
  0.2865063495726716    0.210290736287144    0.16309619852811064    0.14145188564910835    0.14145232567079438    
  0.13300986630958583    0.14145232323978182    0.16871940063174098    0.21933541584633728    0.29535448702382483    
  0.3861671276398824    0.46285613626010585    0.4929508210403272    0.46288610651996    0.386169221357978    
  0.29533200903340845    0.2193361150271424    0.16872170203314948    0.14145269540275776    0.13300986630958583    
  0.12507863100636887    0.130839632786833    0.14988969722981285    0.1860074932716176    0.24100008805271583    
  0.30812757670779845    0.3663530603421578    0.3895791442470195    0.36635813523140415    0.30812816512408664    
  0.24099681630749548    0.18600769304840203    0.14989019496436756    0.1308394567327999    0.12507863100636887    
  0.1308394510179964    0.1308356690489498    0.1388467884503921    0.15749545476607577    0.18922567436019874    
  0.2328170643142449    0.2788105196589505    0.30923890865404446    0.30923700084963146    0.27880878083781424    
  0.23281642233908817    0.18922989957936692    0.15749493011183333    0.13884461206527504    0.1308394510179964    
  0.14989020311073706    0.14778718851629283    0.14989156707533138    0.1574923919758323    0.17303522725350687    
  0.1972667516719605    0.22678231395013118    0.2524041506338526    0.26269206561615616    0.2524051792310142    
  0.22678419368024383    0.197266634748121    0.17303119752943213    0.15749492174746618    0.14989020311073706    
  0.18600769274141943    0.18537876142199006    0.18537752386399206    0.18600942857830985    0.18922426253799202    
  0.19726833236250077    0.21000777919499958    0.22408921281479927    0.23365835646513305    0.23365744181217757    
  0.22408838596390335    0.21000752055620933    0.19726662699261902    0.1892299063341522    0.18600769274141943    
  0.24099681624913227    0.248019801145331    0.25070226694195874    0.24801731239617805    0.24100555854325226    
  0.23281414704016198    0.22678119422547507    0.22408839361210592    0.22390320472834757    0.22422772623401366    
  0.2239041980760535    0.22408833641639195    0.22678419418952342    0.23281640145834376    0.24099681624913227    
  0.30812818220794386    0.3327048652247289    0.3460427176647576    0.3460433127305077    0.33269506473216304    
  0.30812663971020793    0.27881341405608184    0.2524046137291545    0.23365986234121316    0.2242246223259563    
  0.2242277408551524    0.2336574716725298    0.25240523560177847    0.27880873509567106    0.30812818220794386    
  0.36635811315049377    0.41845708019754874    0.45016470890504307    0.45965900269982163    0.45017716600810814    
  0.41845908762715517    0.36635361430889457    0.3092390165228671    0.26268867141460256    0.2336598688644537    
  0.22390320923027787    0.2336583268116045    0.26269209985472647    0.309236953238579    0.36635811315049377    
  0.38957913988859605    0.4722551781010578    0.5247433982124353    0.5407064986773181    0.5407011386712296    
  0.5247422839788687    0.47226780644749855    0.3895722235696239    0.30923901020938727    0.252404583572727    
  0.22408840494806967    0.22408919735780208    0.2524041318735758    0.30923890724991515    0.38957913988859605    
  0.3663530860218543    0.47226254652951094    0.5497160552923196    0.5691091583074707    0.5651974495177883    
  0.5691082424014114    0.5497113551621783    0.4722678470083657    0.36635364432038775    0.2788134434236353    
  0.2267812311684216    0.21000779562137295    0.22678234631285588    0.27881052176043813    0.3663530860218543    
  0.3081275306236603    0.4184606921725181    0.5247454630750423    0.569100067294926    0.5613074157345794    
  0.5613094406237876    0.5691082336464877    0.524742253341308    0.41845906088590484    0.30812660267395625    
  0.23281415882827186    0.1972683302878977    0.19726674876718114    0.23281706883843    0.3081275306236603    
  0.24100009426057975    0.33270031986994125    0.45017079922977826    0.5406938125453201    0.5652138742925961    
  0.5613074112422731    0.5651973900738538    0.540701134419338    0.45017716592220985    0.33269504682578055    
  0.24100557121512214    0.1892242557892725    0.17303522029934057    0.189225672933765    0.24100009426057975    
  0.18600747700248235    0.2480217980848438    0.34604229378837    0.45966499162548924    0.5406938261567742    
  0.5691000274539486    0.5691090997470579    0.5407064947123543    0.45965903494129634    0.34604328870817086    
  0.24801730283294757    0.18600939377766548    0.15749236386523177    0.1574954468924727    0.18600747700248235    
  0.14988969381471356    0.1853797463730839    0.2506998581680452    0.34604230421305054    0.4501708137073499    
  0.5247454864901978    0.5497160606523178    0.5247434644089258    0.4501647153549549    0.34604269191525505    
  0.2507022850741743    0.18537754188034739    0.1498915846482749    0.13884679351698576    0.14988969381471356    
  0.13083962816306124    0.1477850464437772    0.18537972281453072    0.24802182540545245    0.332700345613314    
  0.4184607211044911    0.47226247914679764    0.47225519267051846    0.4184570650412995    0.33270486117768183    
  0.2480198427950095    0.18537878608230332    0.1477871924737798    0.13083566332865396    0.13083962816306124    
  0.12507863100636887    0.130839632786833    0.14988969722981285    0.1860074932716176    0.24100008805271583    
  0.30812757670779845    0.3663530603421578    0.3895791442470195    0.36635813523140415    0.30812816512408664    
  0.24099681630749548    0.18600769304840203    0.14989019496436756    0.1308394567327999    0.12507863100636887    
  0.12046937932053092    0.12487800187735873    0.13985030458080674    0.16886343953190158    0.21359526518530683    
  0.26893227334942055    0.31777459436429856    0.3375270600512321    0.3177728968669272    0.26893459909597883    
  0.21359692666276373    0.16886398654617568    0.13985265448375886    0.12487683087239188    0.12046937932053092    
  0.12487682265127974    0.12487749874662306    0.1298870409007435    0.14239855212707642    0.1648115066126645    
  0.19667435664330513    0.23083713548311335    0.25335935333830223    0.25335780735375574    0.23083701827348874    
  0.1966720329021232    0.16481226479593683    0.1423961262295777    0.12988699947080162    0.12487682265127974    
  0.13985265890627008    0.13942309284132445    0.1398509386891446    0.14239561232143766    0.1498353165783369    
  0.16395208353637564    0.1830006338448593    0.20012429680586197    0.2069629917243593    0.20012425604607068    
  0.1830042089894187    0.163951071447348    0.14983743702317034    0.14239612263685272    0.13985265890627008    
  0.16886399692724396    0.17226269563875846    0.17226545911642627    0.16886360517248172    0.16481470124315728    
  0.16395070063477232    0.16789723100884457    0.17483148590393072    0.1802447580289851    0.18024465786684699    
  0.17483093555514603    0.167895005447132    0.16395104913791042    0.16481226520467102    0.16886399692724396    
  0.2135969186875174    0.2280772155178271    0.2337332950675125    0.2280753040575673    0.21359651879727787    
  0.19667105639637958    0.18300063848225726    0.17483165926754218    0.1716005092137199    0.17099676022669594    
  0.1716014793032864    0.17483087615123152    0.18300420979089743    0.1966720179580364    0.2135969186875174    
  0.26893461809476443    0.30577890142285974    0.3289180521536907    0.3289148872992423    0.3057820448887573    
  0.2689335567622734    0.23083817594394987    0.20012637476665174    0.18024289890864645    0.17099822246557847    
  0.17099677063252042    0.1802446793886888    0.20012429957126487    0.2308370146831265    0.26893461809476443    
  0.31777288393708797    0.38899391739053335    0.44615223891998274    0.46819836659882397    0.44615488522119984    
  0.3889914247605574    0.31777548676356854    0.2533561811518851    0.20696398876047795    0.1802428914152641    
  0.17160051529348727    0.18024475278024207    0.20696302340664738    0.25335776914673985    0.31777288393708797    
  0.3375270607445846    0.4451346349923825    0.5484845507214461    0.6115923140085503    0.6115978549987945    
  0.5484813820614479    0.4451380805971121    0.33752499249173823    0.2533561802417475    0.20012633572695485    
  0.1748316748805146    0.17483148028746417    0.2001242959091086    0.2533593630229947    0.3375270607445846    
  0.31777461754636604    0.4451346394881702    0.5897962025771797    0.7033536397999639    0.745443748027061    
  0.7033519916352959    0.5897968643013204    0.445138141156738    0.3177755184703976    0.23083821795217146    
  0.18300065243765717    0.16789723027609596    0.18300066193600245    0.23083713009343096    0.31777461754636604    
  0.26893222270221984    0.3889933527319797    0.5484849837184127    0.7033498152181097    0.7958458269263763    