#     DFTpy    
  CRYSTAL 
    
  PRIMVEC    
  5.640794942981927    4.499209294827587e-07    7.427800172413793e-07    
  4.4992103637931035e-07    5.640796877334559    7.509037385344829e-07    
  7.427801122413794e-07    7.509037557758621e-07    5.64079648634992    
  PRIMCOORD    
  16    1    
  Si    0.8323572012412316    4.808438779312968    1.9880413235099614    
  Si    4.8084381374631695    0.8323589920899204    3.6527543540572927    
  Si    0.8323580491817016    0.8323582574819868    0.8323585504182337    
  Si    1.9880442433984025    1.9880450689912905    1.9880448612828194    
  Si    4.808436769624923    1.9880414622346394    0.83235761732546    
  Si    0.8323570152259127    3.652757523712416    4.8084387353213955    
  Si    1.9880407178637283    0.8323591627423408    4.8084391892363065    
  Si    3.652754148814723    4.808440083410396    0.8323576850987042    
  Si    3.652753863816783    1.9880454009595445    4.808441816506107    
  Si    1.988042188711662    3.6527525689578053    0.8323549482019871    
  Si    3.6527519930159094    3.6527553748546566    3.6527542767986585    
  Si    4.808438297229644    4.808440954841163    4.808439902076041    
  Si    1.9880444645268223    4.808443508123734    3.652754476063871    
  Si    3.6527511582008727    0.8323546391806576    1.9880429468471243    
  Si    4.8084403138672025    3.6527548590658396    1.9880449949939192    
  Si    0.8323548824866772    1.988043630110272    3.652752521735046    
  BEGIN_BLOCK_DATAGRID_3D    
  3d_datagrid_density    
  BEGIN_DATAGRID_3D#0    
  25    25    25    
  0.0    0.0    0.0    
  5.640794942981927    4.499209294827587e-07    7.427800172413793e-07    
  4.4992103637931035e-07    5.640796877334559    7.509037385344829e-07    
  7.427801122413794e-07    7.509037557758621e-07    5.64079648634992    
  0.22386429781591283    0.2285278970965301    0.24233081178611465    0.2644670497178008    0.2918906357924595    
  0.3158151825388898    0.3252896043671062    0.31581529517782087    0.29189081752695356    0.2644674922080957    
  0.2423312980853194    0.22852861673129102    0.22386501896722225    0.2285288456089605    0.2423317658762137    
  0.26446815157995596    0.291891721159093    0.31581616561366965    0.3252905241273175    0.3158158918489699    
  0.2918912965519648    0.2644674893449262    0.24233108369593648    0.2285280208453508    0.22386429781591283    
  0.22852794839870597    0.255735880210881    0.2942132085402322    0.34591704534409595    0.408954114630444    
  0.4669986326460095    0.4913830045649096    0.4669988678304337    0.40895451914263703    0.345917451781072    
  0.2942139075563036    0.2557365432686533    0.2285286473108334    0.211518303900158    0.20395454601906243    
  0.2042033170724446    0.2095967149409995    0.21557190619221409    0.21795367747391417    0.21557181566398576    
  0.20959653327516878    0.20420307705716703    0.20395409225546743    0.21151776182035206    0.22852794839870597    
  0.24233082145727308    0.28720419346951404    0.344495795872991    0.42152857171263675    0.5245783212090294    
  0.6307814125432798    0.678888373814589    0.6307817559394907    0.5245787102466817    0.4215292080176456    
  0.3444964742150261    0.28720495404998586    0.242331335703184    0.2090211089606054    0.18750868770672893    
  0.17561443292482418    0.17044191633860256    0.16877673423389664    0.16832474418257512    0.16877670456913108    
  0.1704419031612053    0.17561431464277932    0.18750849022209423    0.20902069675959173    0.24233082145727308    
  0.26446710814028684    0.3163802738413827    0.37918775136953947    0.46575280070585867    0.5929685890836703    
  0.7358951930267241    0.8037003054165047    0.7358953364296473    0.5929689057124281    0.4657531561711386    
  0.37918833199635776    0.31638077023016564    0.264467624688608    0.2236754206602228    0.19577262067224419    
  0.17903350561822903    0.17087313580347938    0.16782416894764215    0.16700018544682624    0.1678242601911451    
  0.17087319428547004    0.17903352216445578    0.19577247261632277    0.22367515449138242    0.26446710814028684    
  0.2918906952195807    0.33836982175279046    0.39378331514612985    0.4726765900634331    0.59406065329061    
  0.7329553658122058    0.7988047170276974    0.7329555341978983    0.5940608284080625    0.4726768933472523    
  0.3937838264251633    0.33837046275264    0.29189108384502505    0.2543461762783424    0.22876364858291248    
  0.215120910818232    0.2115392685356244    0.2129196990599911    0.21388984134486572    0.21291975963353368    
  0.21153934018279505    0.215120920008171    0.22876361617800772    0.2543459427871955    0.2918906952195807    
  0.315815251447812    0.3450724899961887    0.38275841582111425    0.4398396759375376    0.5276619684930206    
  0.6243220021637207    0.6684502520268034    0.6243221308488681    0.5276622825455483    0.4398399544786452    
  0.3827590860457545    0.34507303057876954    0.3158158801583143    0.29370125630563576    0.28205911571962444    
  0.28312566372854614    0.2958301705260272    0.31150192257059517    0.3182224982700208    0.31150181350508493    
  0.29583003250637085    0.2831255243054874    0.2820588159605876    0.2937009210004194    0.315815251447812    
  0.3252897058943232    0.32858067554148784    0.3410514369313796    0.36844963200994235    0.41338769071159437    
  0.46084382074301095    0.48144191599700065    0.46084381563440074    0.41338785467900674    0.36845020670711304    
  0.3410520647083283    0.3285814989717375    0.3252905378609271    0.32858137580196367    0.3410518399144539    
  0.3684499149288478    0.41338776276094774    0.46084349255430135    0.4814413537857414    0.4608430495817944    
  0.41338716611711135    0.36844920563752176    0.3410512402102096    0.32858054178419965    0.3252897058943232    
  0.31581543741049556    0.2937010986415099    0.2820590244000353    0.2831258607106588    0.2958305719034429    
  0.31150246971893064    0.31822320979168894    0.31150265564474994    0.29583091617960156    0.2831263831535277    
  0.2820599293921927    0.2937020985224788    0.3158166829457858    0.3450737524176051    0.38275955110387944    
  0.43984049027036404    0.5276626847866721    0.6243228923912122    0.6684504706787354    0.6243219192138889    
  0.5276614234131758    0.43983931522890213    0.3827583939618913    0.34507261148102597    0.31581543741049556    
  0.29189105847394053    0.2543461583807839    0.2287637374304031    0.215121106364187    0.21153959270788203    
  0.21292018453555375    0.21389027593926555    0.2129204889818151    0.21154000473055126    0.21512184425162562    
  0.228764751803817    0.25434755901765177    0.29189253324076975    0.3383718201771546    0.3937850206029543    
  0.4726778845024163    0.5940622915490114    0.7329574132948741    0.7988063435161503    0.7329560260449615    
  0.5940606848590815    0.47267645834541744    0.3937835286475243    0.33837015977547935    0.29189105847394053    
  0.26446748858727465    0.223675530080671    0.19577264113741977    0.17903360865623583    0.17087333660385723    
  0.16782440041211302    0.1670006453132335    0.16782469422657476    0.1708739558867737    0.1790345112288613    
  0.19577390328947386    0.22367701466181844    0.26446937182590413    0.31638275045922837    0.37918996595899146    
  0.46575489854986457    0.5929711154254643    0.7358985837423482    0.8037031776328117    0.7358973658212371    
  0.5929695251396719    0.46575330206317717    0.37918816999846433    0.31638085507245184    0.26446748858727465    
  0.24233137908456512    0.20902089748974942    0.18750861944360564    0.17561436359795968    0.17044194399141763    
  0.16877687660660756    0.16832508787595    0.16877736171711494    0.1704427322396212    0.17561564381364772    
  0.18751018997302818    0.20902292051323929    0.24233349115068087    0.28720719285687235    0.34449883889417054    
  0.4215315280427344    0.5245817149061941    0.6307854108086157    0.6788921871493386    0.6307842218457594    
  0.5245800589174691    0.4215296246264499    0.3444968043015551    0.28720488042828424    0.24233137908456512    
  0.2285284239483815    0.21151810226903137    0.2039541790257612    0.20420306883651151    0.20959656339139898    
  0.21557192814556392    0.21795410355650816    0.2155725903470697    0.20959785817017845    0.20420471114371372    
  0.20395629868665577    0.2115203939100379    0.2285308935802415    0.2557390190734043    0.29421644669801283    
  0.3459203144783194    0.4089574537561844    0.4670023862882961    0.49138618443663856    0.46700134966200274    
  0.40895582051519574    0.34591832506638676    0.2942141031216365    0.2557366541359757    0.2285284239483815    
  0.22386482686908674    0.22852837570560977    0.2423313521268662    0.2644675155475665    0.29189132129090345    
  0.31581616049482814    0.32529103300162593    0.3158171288814515    0.2918929151411026    0.26446978898007917    
  0.24233375600384238    0.2285310374659006    0.22386735518114517    0.22853089614830194    0.24233374375955363    
  0.26446985153478136    0.2918933389610129    0.31581768314015307    0.32529180389582524    0.3158168858729979    
  0.29189210599048393    0.26446808042540637    0.24233163228583157    0.22852849979296244    0.22386482686908674    
  0.2285284741362289    0.25573650090632155    0.2942137311489169    0.34591777067291574    0.408955064139086    
  0.4670000489334967    0.49138490536688606    0.4670011248182158    0.40895682746238315    0.34592001158385677    
  0.29421653462754394    0.25573926353393056    0.22853102752326712    0.21152041528445614    0.2039561973759781    
  0.20420471957650738    0.20959785539654588    0.21557290143233143    0.2179543744271221    0.21557240548705045    
  0.20959698818565856    0.20420347715680398    0.20395448758793547    0.2115183058947486    0.2285284741362289    
  0.24233145093118239    0.2872047337245831    0.3444964384915169    0.4215291895557624    0.5245793374372274    
  0.6307828114252341    0.6788901680580279    0.6307834362227832    0.5245803978996155    0.42153099612867506    
  0.34449881228500345    0.28720744355121214    0.24233374605931338    0.2090230019686018    0.18751026768809204    
  0.1756155408678367    0.17044276975872222    0.1687773290259416    0.1683252742471591    0.16877698765392687    
  0.17044217432276595    0.17561451415477955    0.18750890140673632    0.20902112878738402    0.24233145093118239    
  0.2644676032493813    0.3163808724311999    0.37918803225675685    0.46575313142428865    0.5929690452139484    
  0.7358961431679866    0.8037011166984395    0.7358960561463834    0.5929692324584448    0.4657540141395669    
  0.37918985073419575    0.3163830560394073    0.2644697421449553    0.22367726192438633    0.19577401203107703    
  0.17903455521940567    0.1708738152835769    0.16782469930066563    0.16700048866499492    0.16782449086730938    
  0.17087330512913257    0.17903379061459015    0.19577275486218923    0.22367565826445585    0.2644676032493813    
  0.2918912415717528    0.3383701660780497    0.39378350689820923    0.47267647730923346    0.5940605588880079    
  0.7329550573215068    0.7988043093041121    0.7329551496468397    0.5940605379694671    0.4726770995107269    
  0.3937849485623634    0.33837220450389477    0.29189307080604904    0.2543478187057992    0.22876501036914432    
  0.21512176707671232    0.21153990814387882    0.2129201381368908    0.213890140310405    0.21291989623209887    
  0.21153949983537884    0.21512106493315405    0.22876392416666333    0.25434631001518293    0.2918912415717528    
  0.31581567369707325    0.3450728164237845    0.38275839239347936    0.43983935276458275    0.5276611415148894    
  0.6243211044555949    0.6684490078808749    0.6243213960988743    0.5276617096987289    0.43984014059991744    
  0.38275978887897116    0.3450744333146222    0.3158172883321461    0.29370267575556197    0.2820601920985248    
  0.28312652536128796    0.2958306958669795    0.3115023460631252    0.31822258055525504    0.3115020314989905    
  0.29583012377695056    0.2831257870046423    0.28205906340683473    0.2937013631345675    0.31581567369707325    
  0.32529011287772364    0.3285808734581592    0.34105145577593377    0.3684491607150999    0.41338695367542294    
  0.46084258203462186    0.48144081466487093    0.4608428039141241    0.4133873561819747    0.3684499666329675    
  0.34105240285925265    0.32858210336135246    0.32529142395176114    0.3285821947738355    0.34105259941568844    
  0.3684503358970615    0.41338797721002396    0.46084339592689577    0.48144134467311106    0.4608429554961869    
  0.41338725880521177    0.3684493541464611    0.3410515599321113    0.3285808369888188    0.32529011287772364    
  0.3158156263965869    0.29370129856478366    0.28205899812627633    0.2831256444605725    0.29582996106557713    
  0.31150167169240495    0.31822216077348325    0.31150178914456356    0.2958301472891079    0.28312591818861543    
  0.2820596452917214    0.2937020601934738    0.31581668307491345    0.3450739154670931    0.3827595656926629    
  0.43984038332336467    0.5276622607593819    0.6243221940165864    0.6684497559321958    0.6243215752270485    
  0.5276613777031591    0.4398394973712988    0.3827585406832974    0.3450728383132366    0.3158156263965869    
  0.29189112992713967    0.25434621053994166    0.22876380426655957    0.2151209804361371    0.21153932910032766    
  0.21291960506108956    0.2138897315764441    0.2129196385489886    0.21153929782499742    0.21512109999194517    
  0.22876407914449137    0.25434685673664176    0.29189193106973466    0.33837122820678317    0.3937845125155863    
  0.4726772490842511    0.594061172436391    0.7329558389337202    0.798804810469126    0.7329550289751837    
  0.5940604386286819    0.472676365605111    0.3937835084113778    0.3383701658038562    0.29189112992713967    
  0.2644673812256218    0.22367545157199967    0.19577265485435505    0.1790335250700409    0.17087310225781904    
  0.1678241101057661    0.1670001315447365    0.16782404740386223    0.17087310111606102    0.17903356706261822    
  0.19577286059077262    0.22367587342153455    0.26446821454122454    0.3163815554276317    0.3791889337003501    
  0.46575379626650876    0.592969618859777    0.7358964220351873    0.8037008143805986    0.7358956900580397    
  0.592968660316142    0.4657529517485405    0.3791879060822388    0.3163806597233138    0.2644673812256218    
  0.24233111011182717    0.20902077847977904    0.18750849785183168    0.1756142222794642    0.17044176759069596    
  0.1687764972901174    0.1683245024583582    0.1687764905096974    0.17044163621856695    0.17561437607383037    
  0.1875087434619871    0.20902133912343998    0.24233182801924186    0.28720551395475113    0.3444972928486174    
  0.4215299849061053    0.5245798282159763    0.6307829806630291    0.6788896536375182    0.6307822646080851    
  0.524578887519876    0.4215288713072996    0.34449619208246407    0.28720446589584536    0.24233111011182717    
  0.22852806558072578    0.21151775026305197    0.2039539371646796    0.20420277482328855    0.20959617931989424    
  0.21557131380541872    0.21795315769170717    0.21557138509195828    0.20959633057586938    0.20420297139766785    
  0.2039544029214561    0.21151831051434944    0.22852890445827218    0.2557369742749603    0.2942145540083293    
  0.3459184020623521    0.4089555018418477    0.46700019720445657    0.49138413347197823    0.4669997323105145    
  0.4089547307393564    0.3459175101420601    0.294213528452205    0.2557361250487129    0.22852806558072578    
  0.22386429781591283    0.2285278970965301    0.24233081178611465    0.2644670497178008    0.2918906357924595    
  0.3158151825388898    0.3252896043671062    0.31581529517782087    0.29189081752695356    0.2644674922080957    
  0.2423312980853194    0.22852861673129102    0.22386501896722225    0.2285288456089605    0.2423317658762137    
  0.26446815157995596    0.291891721159093    0.31581616561366965    0.3252905241273175    0.3158158918489699    
  0.2918912965519648    0.2644674893449262    0.24233108369593648    0.2285280208453508    0.22386429781591283    
  0.2285279110213259    0.25573583688662    0.2872042510398775    0.3163802665129901    0.3383698773933604    
  0.34507241131504546    0.3285807015115928    0.29370104204222813    0.25434620242535033    0.22367557465948798    
  0.20902125128815194    0.21151836256118137    0.2285289396551711    0.2557369590268171    0.2872054350385554    
  0.3163813983325202    0.33837076892881884    0.34507318436908024    0.32858114524374765    0.2937014235121728    
  0.25434634004207896    0.22367554588273933    0.20902080367260556    0.21151774638932225    0.2285279110213259    
  0.2557359222731043    0.30224134407281433    0.34683886303825856    0.3888865496012769    0.43712228165344824    
  0.4792850329730151    0.4792132422726328    0.427065207887541    0.3520210536593119    0.28495546562740154    
  0.23982945733167085    0.21717156087341594    0.21151843894245873    0.2171716241736563    0.22886768115819908    
  0.2400593742826613    0.24525698289403247    0.24079498187949933    0.22655668362168382    0.20800863622556306    
  0.19215564395582846    0.18561539377145733    0.1932960302862009    0.2171708323252316    0.2557359222731043    
  0.2942132321177893    0.34683884781643415    0.37901844590091094    0.4085298626704122    0.47869879841594837    
  0.5834344004703792    0.6356340946739438    0.5784704411090982    0.4625215966936585    0.35327204844810306    
  0.27568393963886795    0.22886748503347906    0.2039545427189797    0.19329634559787257    0.19129630518775456    
  0.19227301845583783    0.19169992617232026    0.18705694650748292    0.1789902651327698    0.17148108582808513    
  0.16920638150913359    0.1771822111283013    0.19988671274650457    0.23982891043224594    0.2942132321177893    
  0.34591699947181476    0.388886386349365    0.3893053875571423    0.3902004909885053    0.4651571072388996    
  0.6196729427457097    0.7304619515291716    0.684105781190324    0.5415731056927143    0.40229183773382976    
  0.3024210320117313    0.24005918679803825    0.20420317455720016    0.1856155198927117    0.17831082048984978    
  0.17757320453240114    0.17930192889702368    0.18008170319826913    0.17924669455769537    0.1793610955774623    
  0.1847597190347763    0.2015645112023944    0.23454561465335236    0.2849548304257171    0.34591699947181476    
  0.4089540275006006    0.4371221161179056    0.4152491232054326    0.39789930637904547    0.46336151389981056    
  0.6153347054784606    0.7294063337686659    0.688621388314162    0.5485278071079869    0.4090151965737161    
  0.3082587394250223    0.24525679982871973    0.20959662338948165    0.19215557955049653    0.18804064988888244    
  0.19406688002190262    0.20603492257906775    0.2183799145831415    0.22740246444649248    0.23370159099720625    
  0.24224026167745585    0.26217972399337464    0.2992620506102797    0.3520205807326281    0.4089540275006006    
  0.4669986712783321    0.4792849357446822    0.45393595848218415    0.43397416444987374    0.4769378410072024    
  0.5748489453593313    0.6351543266775542    0.5901728975017229    0.47959442212698083    0.3700141100535868    
  0.2900176632251939    0.24079503887957304    0.2155717466427432    0.2080087149822819    0.21619943157492968    
  0.23919077178894962    0.2725796916716003    0.30668825578649195    0.33008016171074955    0.33820188826892433    
  0.3395583827107896    0.35197048886963517    0.3835852995442817    0.4270647546214681    0.4669986712783321    
  0.491382927654061    0.4792131434383583    0.44974448217431884    0.4277387290191943    0.4388464855363504    
  0.4716040228121417    0.480634251084161    0.441456811238335    0.37233795774758854    0.3043486985476929    
  0.2545890698799882    0.22655666349961773    0.2179538524241801    0.22655685663290462    0.2545892623373274    
  0.30434912115176993    0.37233829976091876    0.44145722492363226    0.4806340500717547    0.4716037853843472    
  0.438845996474704    0.4277383086094258    0.4497441015366005    0.4792130106037223    0.491382927654061    
  0.4669989806516403    0.4270649706566548    0.383585595440437    0.3519708721302945    0.3395587942070592    
  0.33820235166480267    0.33008041686327133    0.3066884850308546    0.27257974596166024    0.23919096441915239    
  0.21619961807264773    0.20800908774608934    0.21557224040167136    0.24079558101853932    0.29001848673683367    
  0.37001504462443974    0.4795956958751049    0.5901739428478543    0.6351548251331084    0.5748485668504566    
  0.476937061688409    0.4339733339971574    0.45393577100565474    0.47928497844790413    0.4669989806516403    
  0.4089544264661633    0.3520209685935896    0.29926229581655467    0.26217994426787783    0.2422405771812597    
  0.23370178315404844    0.2274027996641632    0.21838025315556006    0.20603536739336858    0.19406730571441647    
  0.18804122367701764    0.1921563392281166    0.20959746136402765    0.24525794813304477    0.3082601204413023    
  0.40901700616816994    0.5485299161228763    0.6886237945004603    0.7294073668691567    0.6153343579548719    
  0.46336017661291257    0.3978982573407163    0.41524867666733234    0.43712239279153725    0.4089544264661633    
  0.3459175317831136    0.2849552515954626    0.23454589836872283    0.20156469682048286    0.1847598304625394    
  0.17936137922969414    0.1792470402327686    0.1800822613015684    0.17930250873662945    0.17757393808023234    
  0.1783116894415236    0.1856165635357547    0.20420440963044517    0.2400606682070689    0.30242292260262305    
  0.4022941735856661    0.541576371247472    0.6841090466387219    0.7304642216134025    0.6196732167030136    
  0.46515635209631084    0.3901994570762034    0.3893051395961875    0.3888866734349318    0.3459175317831136    
  0.2942137696772927    0.2398292750975437    0.19988690222058025    0.17718235111103864    0.1692066052825522    
  0.17148131141787035    0.17899081436075417    0.18705755941352056    0.19170085165710948    0.19227413843775104    
  0.19129761957302963    0.19329780992059584    0.20395613474416824    0.22886934531728592    0.27568603487855015    
  0.35327466270037056    0.46252464304870555    0.5784740476969952    0.6356369566607235    0.5834359221380309    
  0.47869880727814185    0.4085298240179655    0.3790187606210599    0.3468394649816007    0.2942137696772927    
  0.25573649150814    0.21717113655882164    0.1932962280878384    0.18561557904462703    0.1921557923516516    
  0.208009074819797    0.22655727738182413    0.24079600119362576    0.24525825208177043    0.24006097064329046    
  0.22886945877551906    0.2171735049442968    0.21152035446833636    0.2171734063995644    0.23983158983512873    
  0.28495777362271213    0.3520237496087216    0.4270680259854977    0.47921595516020143    0.479286824068714    
  0.43712336607880103    0.38888709900182244    0.3468396080160938    0.3022419530653737    0.25573649150814    
  0.22852837649975888    0.21151815432592666    0.20902108289060325    0.22367568246215852    0.2543466245670891    
  0.2937019035803612    0.3285821055289846    0.3450743432351624    0.33837219564748416    0.31638310955471727    
  0.2872074649125706    0.2557392214721318    0.22853102630845443    0.21152040864008753    0.2090231063364114    
  0.22367754620660452    0.2543480888937384    0.2937030764330609    0.3285823442768285    0.345073962086429    
  0.33837092902309085    0.3163812070252851    0.2872048501507833    0.25573647633687996    0.22852837649975888    
  0.21151817819016067    0.21717114988010927    0.23982933829856093    0.2849555081557788    0.35202148569460245    
  0.4270660032001179    0.4792146303136942    0.47928651486452406    0.4371234757034854    0.388888192346987    
  0.3468416950519445    0.30224490731711773    0.25573922414713424    0.2171734725805079    0.19329796975633873    
  0.18561683943252003    0.19215676600778722    0.20800954536955904    0.2265573612537528    0.24079525397533566    
  0.2452571027838438    0.24005912133355226    0.2288674259578315    0.21717113024977217    0.21151817819016067    
  0.20395426355086316    0.2288673318936791    0.275683620291464    0.35327195548472135    0.4625215937744649    
  0.5784708427650034    0.6356345710061834    0.5834338529610187    0.4786970712040759    0.4085286404008395    
  0.3790193662868315    0.34684172521062095    0.29421650463732546    0.23983147789928672    0.19988849934640354    
  0.1771833456946527    0.16920707860664924    0.17148159990855308    0.1789905580734898    0.18705706774857678    
  0.191699881053475    0.19227293850340196    0.1912960451881953    0.1932962157360987    0.20395426355086316    
  0.2042031164106466    0.24005895118026346    0.30242089661029414    0.4022913015011398    0.5415727522672543    
  0.6841053922584343    0.7304612623170288    0.619670695480875    0.4651535423453104    0.39019728954451544    
  0.3893045424588895    0.38888833820732427    0.3459200918191036    0.28495742076532116    0.23454738291068497    
  0.20156552402837066    0.18476031818674848    0.17936136335638714    0.17924684391578075    0.18008168722281792    
  0.17930191580889437    0.17757304194823634    0.17831072637197848    0.185615277767034    0.2042031164106466    
  0.20959642614591573    0.2452567086963116    0.30825828982359754    0.4090147125249101    0.5485267703062333    
  0.6886202627079561    0.7294049171579711    0.6153327644752506    0.4633586551505141    0.3978967653825944    
  0.41524846514664243    0.43712399475755764    0.4089570282034193    0.3520232074183449    0.29926383273558216    
  0.26218078229572006    0.24224076514992113    0.23370183489344087    0.22740243723132328    0.21837982312389023    
  0.20603467528345998    0.19406682743615192    0.18804044416733331    0.19215558705721136    0.20959642614591573    
  0.21557172001869684    0.24079472385119194    0.29001739963928136    0.3700134221017522    0.47959337606132785    
  0.590171385918834    0.6351529984961084    0.5748477414375964    0.47693676553106173    0.43397332156527474    
  0.4539364953467948    0.47928689363006    0.467001443417746    0.42706723637573457    0.3835872443758067    
  0.35197162753308214    0.33955904113150304    0.33820209422297465    0.33008002963295907    0.30668773901563345    
  0.272579248234241    0.23919033945946566    0.21619917078455753    0.2080084346432879    0.21557172001869684    
  0.2179533691175635    0.22655652219657055    0.2545886145730546    0.3043482096264879    0.37233700836604117    
  0.44145575295521733    0.48063285816679985    0.4716032130845134    0.4388460680768892    0.4277388153746493    
  0.44974526803529025    0.47921489698908604    0.4913853445463268    0.4792151850980712    0.44974567523074227    
  0.42773941110683555    0.43884665284521773    0.4716039602681344    0.4806334305123035    0.4414563457965156    
  0.372337166328155    0.3043482690081362    0.25458854926772945    0.2265564304657068    0.2179533691175635    
  0.21557170703984896    0.20800852128116556    0.21619921646032003    0.23919042034071733    0.2725791924212102    
  0.30668743196138265    0.3300794051585186    0.3382014946968561    0.33955822519144285    0.35197073897303666    
  0.38358620398326554    0.4270662502020917    0.4670005267862898    0.47928650150817026    0.45393670239620343    
  0.4339740056329561    0.4769377205939374    0.5748486942070278    0.6351538287083116    0.5901718167577595    
  0.4795937239191463    0.37001342714685725    0.29001741175994605    0.24079466783014739    0.21557170703984896    
  0.20959639904820357    0.19215554631837087    0.18804046048990286    0.1940667963031402    0.2060346940892872    
  0.2183794995997419    0.22740206403100025    0.2337012527048958    0.24224001661985176    0.2621796820751537    
  0.2992625545231514    0.3520216532799571    0.4089555011420243    0.43712314351778897    0.4152490372221045    
  0.3978984024846775    0.4633605398835884    0.6153344940014739    0.7294057258037334    0.6886207014729699    
  0.5485268593313851    0.40901472663245847    0.30825818433704627    0.24525665035360747    0.20959639904820357    
  0.2042029391091041    0.1856152625153865    0.17831068569976524    0.17757298203326347    0.1793017212219781    
  0.18008149070129245    0.17924640478593318    0.17936080790729766    0.18475945568384958    0.20156450750185398    
  0.23454597125503318    0.2849557280692864    0.3459181368000884    0.38888720180720043    0.3893051106473113    
  0.39019938564781653    0.46515634781666965    0.6196726949754219    0.7304619193547418    0.6841054107195501    
  0.5415727411110898    0.4022911959503355    0.3024206783525654    0.24005878736720737    0.2042029391091041    
  0.20395406066868016    0.1932958982560041    0.19129586389748596    0.19227270412562775    0.19169967876909347    
  0.18705659864387084    0.17899004633866    0.17148077153752564    0.16920618301455395    0.17718218255777246    
  0.19988702380703252    0.23982960847285661    0.2942144168490371    0.34683988566349483    0.37901895467115726    
  0.40852965565512966    0.478698580291907    0.5834347710159713    0.6356343958262367    0.5784705199563258    
  0.4625212318537829    0.35327173427116376    0.27568346300504376    0.22886708784354332    0.20395406066868016    
  0.2115177820937063    0.2171707742120483    0.2288669080939131    0.24005868165025332    0.24525637870508293    
  0.24079449734559286    0.22655624658768256    0.2080084234751271    0.19215544959229322    0.1856154766437167    
  0.1932962948476025    0.2171715814034028    0.25573696952626146    0.3022426275347174    0.34683995202632373    
  0.38888732024093364    0.43712295444977906    0.4792857711602651    0.4792138627375812    0.4270654400310054    