#     DFTpy    
  CRYSTAL 
    
  PRIMVEC    
  1.5901548590329995    -2.754229007747681    0.0    
  1.5901548590329995    2.754229007747681    0.0    
  0.0    0.0    5.376445404896551    
  PRIMCOORD    
  2    1    
  Si    1.5901548590329995    0.9180763359158935    1.3441113512241378    
  Si    1.5901548590329997    -0.9180763359158935    4.032334053672413    
  BEGIN_BLOCK_DATAGRID_3D    
  3d_datagrid_density    
  BEGIN_DATAGRID_3D#0    
  15    15    23    
  0.0    0.0    0.0    
  1.5901548590329995    -2.754229007747681    0.0    
  1.5901548590329995    2.754229007747681    0.0    
  0.0    0.0    5.376445404896551    
  0.05192496953448001    0.054128696474498646    0.06085304760356372    0.0720817191800512    0.08688415150084892    
  0.10261946661737802    0.11488403745079136    0.11950042002127083    0.11488405455839706    0.10261943656045783    
  0.08688414763486636    0.07208172001603343    0.06085306551378819    0.0541286949511272    0.05192496953448001    
  0.05412869318331972    0.0541290624773477    0.058610437257163535    0.06770843798643997    0.08102502637006637    
  0.09681950257193588    0.11146633640470359    0.12033192852086451    0.12032851813386011    0.11146825219087604    
  0.09681893842630201    0.08102511145913649    0.06770889517043366    0.05861002481757886    0.05412869318331972    
  0.060853062055451546    0.058610442162987865    0.060852625397067116    0.06770800526339377    0.07914681160608465    
  0.09410809448715322    0.10992517389374287    0.12226496139621738    0.1269263570109708    0.12226719868697838    
  0.1099227384760858    0.09410989077980192    0.07914542225431392    0.06770889636703034    0.060853062055451546    
  0.07208173024245158    0.06770843596260098    0.06770800057324503    0.07208241526794236    0.08102545292368887    
  0.09410904357282737    0.10953542398641371    0.12384796620154685    0.13254348017168255    0.13254263326973387    
  0.1238490247945854    0.10953518104277049    0.09410989158503384    0.08102510545146098    0.07208173024245158    
  0.08688415299854556    0.08102503665602316    0.07914680998305884    0.08102545294568891    0.08688329181767833    
  0.09681794684068055    0.10992383475749752    0.12384821716054002    0.13474591642428277    0.1388590892761722    
  0.13474412530202015    0.12384901648655561    0.1099227268134075    0.09681893579429657    0.08688415299854556    
  0.10261947244528798    0.09681950412563509    0.09410810322020463    0.09410902630293254    0.09681793440965962    
  0.10262182506326294    0.11146733748488119    0.12226646145592816    0.13254321169341907    0.13885634902553975    
  0.13885911411802648    0.13254264738631033    0.12226719309002758    0.11146825770897134    0.10261947244528798    
  0.11488405369841952    0.11146634658607854    0.10992516856708334    0.10953543181038473    0.10992383317759424    
  0.11146735857061349    0.11488184746786043    0.12033033739400886    0.12692575676588527    0.13254320688158047    
  0.13474591313500522    0.13254348166971577    0.12692636321645578    0.12032852224400596    0.11488405369841952    
  0.11950042115293602    0.12033193420940853    0.12226498494812418    0.12384796925588373    0.1238481806178349    
  0.12226649924491538    0.12033035296158094    0.11950129474673295    0.12033033617443456    0.12226646415083191    
  0.12384820547623879    0.12384795999814212    0.12226495969784765    0.12033193237687254    0.11950042115293602    
  0.11488405361134763    0.12032849331239448    0.12692634609502892    0.13254348063099478    0.13474590024207583    
  0.13254321194980853    0.12692575789208763    0.12033034177863271    0.11488185970277136    0.11146734761883148    
  0.10992382090989862    0.10953543809705603    0.10992517386090254    0.11146633697512086    0.11488405361134763    
  0.10261947195076267    0.11146826472857786    0.12226720265432504    0.13254263042365527    0.13885909716008718    
  0.13885636357711983    0.13254318721579542    0.12226647605198326    0.11146735400629433    0.10262182092807469    
  0.09681794353970298    0.09410904238929116    0.09410809699315294    0.09681949202768009    0.10261947195076267    
  0.08688414410060913    0.0968189343297548    0.10992272742127956    0.12384902999785244    0.13474412397808605    
  0.13885910585208752    0.13474589401860462    0.1238481975355336    0.10992383898914757    0.09681794769651338    
  0.08688329299094136    0.08102544401786935    0.07914682020469721    0.08102502865350301    0.08688414410060913    
  0.07208172396023685    0.081025114244995    0.09410989153098134    0.10953517107633319    0.12384904209566297    
  0.1325426398865818    0.13254345824128438    0.12384796643194051    0.10953543297603505    0.09410903626231779    
  0.08102545158321858    0.07208241306860667    0.06770800716187464    0.06770844878834771    0.07208172396023685    
  0.06085306374844771    0.0677088959609894    0.07914543408752504    0.09410988262384781    0.1099227148004958    
  0.12226720598996225    0.1269263409908234    0.12226496794929434    0.10992517859336595    0.09410808405496644    
  0.07914681693972375    0.06770801204059858    0.060852621997896005    0.05861043843407992    0.06085306374844771    
  0.05412869759870887    0.058610031760232155    0.06770889504656602    0.08102511236083478    0.09681893003894024    
  0.11146824407466037    0.12032850216475317    0.12033194992022299    0.11146635908435959    0.09681948384362052    
  0.08102502914116981    0.06770844705444107    0.05861044351184775    0.054129057645867715    0.05412869759870887    
  0.05192496953448001    0.054128696474498646    0.06085304760356372    0.0720817191800512    0.08688415150084892    
  0.10261946661737802    0.11488403745079136    0.11950042002127083    0.11488405455839706    0.10261943656045783    
  0.08688414763486636    0.07208172001603343    0.06085306551378819    0.0541286949511272    0.05192496953448001    
  0.05470789090061764    0.057216335166723385    0.0649022451257638    0.07780430463168118    0.09486209140647582    
  0.11304208958996352    0.1273170166797902    0.1327357484086008    0.12731477920801113    0.11304264706812822    
  0.0948620431276621    0.07780397826419812    0.06490136204961096    0.05721591724324948    0.05470789090061764    
  0.057215916761672425    0.05721654262344289    0.06111612932562444    0.06895985083260474    0.08032521965374399    
  0.09372791480630537    0.10613942036884015    0.11362787890748907    0.11362774441891911    0.10614075830175344    
  0.09372780571582784    0.08032556279927691    0.06895999007636407    0.06111713153342882    0.057215916761672425    
  0.064901367994488    0.06355254971010066    0.06490131211317976    0.06896008246960336    0.07564835416179834    
  0.08438709251685181    0.09364318179755249    0.10084143773741114    0.10353996883857118    0.10084167695621098    
  0.0936422462342811    0.08438658017852683    0.07564849635944604    0.06895998601529564    0.064901367994488    
  0.07780398912806363    0.07662872356976796    0.076628310520306    0.07780445534365009    0.08032599540319925    
  0.08438590649906454    0.08956841150744974    0.0946098021436928    0.0977608887727236    0.0977603599547717    
  0.09460986523487017    0.0895697146351884    0.08438657979626864    0.08032555687639363    0.07780398912806363    
  0.09486204265741889    0.09619875643169891    0.09675122973967906    0.09619846444381568    0.09486098335880287    
  0.09372791470512025    0.09364321971336104    0.09461020598323548    0.09592755516658295    0.0965469766289181    
  0.0959281050508983    0.09460986433122033    0.09364222913606188    0.09372780025166948    0.09486204265741889    
  0.11304268160051283    0.1198144268651624    0.12401680822373161    0.12401748594037826    0.11981514340219152    
  0.11304318096313487    0.10613898682442718    0.10084189639167795    0.0977601095956786    0.09654737787139427    
  0.09654700139681724    0.0977603626376181    0.10084167553434589    0.10614076803505268    0.11304268160051283    
  0.12731476544896603    0.14202461805426195    0.15356686889877838    0.15793832335704502    0.1535652921208347    
  0.142024311037901    0.1273158817507634    0.11362758821777143    0.1035400642151802    0.09776010161399128    
  0.09592755096577628    0.09776089719596327    0.1035399835106499    0.11362773995814464    0.12731476544896603    
  0.13273574650493516    0.15570034684894335    0.1770199000202238    0.18990564046085254    0.18990662762896274    
  0.17702078825032544    0.155699268502432    0.1327360834493311    0.11362759210971823    0.10084188249479874    
  0.09461020673215055    0.09460980020122473    0.10084144794151617    0.11362788995565135    0.13273574650493516    
  0.12731703278349474    0.15569954932762795    0.18600540535176646    0.20944375117521183    0.21819420541765203    
  0.20944402068811677    0.18600642557432945    0.15569925268697662    0.12731589039800362    0.10613899915408818    
  0.09364321339280018    0.08956841680679271    0.09364319443884875    0.10613940613607199    0.12731703278349474    
  0.11304210208005655    0.1420229823988353    0.177020633639628    0.2094459559220529    0.22877982439506406    
  0.22877778530616535    0.2094439999186436    0.17702077182450288    0.1420243029625521    0.11304317208545456    
  0.09372790713801106    0.08438590505685072    0.08438708598715695    0.09372790801243833    0.11304210208005655    
  0.09486209126779604    0.11981591133629119    0.15356696478044313    0.18990620826028992    0.2181905664709816    
  0.22877984474244062    0.21819420610787643    0.18990664591016335    0.15356530185066453    0.1198151542666274    
  0.09486098504273041    0.08032598457469138    0.07564836532177456    0.08032521829809243    0.09486209126779604    
  0.07780431051339659    0.09619819966536913    0.12401678744102923    0.15793780309841396    0.189906207846873    
  0.20944596893937936    0.20944374330045618    0.18990564931388138    0.1579383325461603    0.1240174881015479    
  0.09619845719414925    0.07780445940295423    0.06896009010749281    0.06895985693074405    0.07780431051339659    
  0.06490225647153948    0.07662847976369408    0.09675201820896667    0.12401677460207193    0.15356696215364105    
  0.1770206386718346    0.18600541371473447    0.17701991605365147    0.15356688098748605    0.12401679245646605    
  0.09675122850634589    0.0766283165913403    0.06490131058156573    0.06111612676835774    0.06490225647153948    
  0.057216332278314755    0.0635516135664961    0.07662847484946059    0.09619820426853633    0.11981592428851688    
  0.14202296443333617    0.15569955120717474    0.15570035399912002    0.14202465169055414    0.1198144130317911    
  0.09619874812214767    0.07662872841225896    0.06355254719778236    0.05721654110904649    0.057216332278314755    
  0.05470789090061764    0.057216335166723385    0.0649022451257638    0.07780430463168118    0.09486209140647582    
  0.11304208958996352    0.1273170166797902    0.1327357484086008    0.12731477920801113    0.11304264706812822    
  0.0948620431276621    0.07780397826419812    0.06490136204961096    0.05721591724324948    0.05470789090061764    
  0.06271867820442535    0.06610592906687256    0.07658923056572488    0.09444238625049227    0.1183482474677707    
  0.14406998990100225    0.16444956005813627    0.1722452590734354    0.16444820010798378    0.14407031485689206    
  0.11834786426008921    0.09444118693591882    0.07658881027910376    0.06610610865215688    0.06271867820442535    
  0.06610610889379916    0.06610608352311095    0.07038296070976283    0.07910480933068892    0.09184410897259067    
  0.10686728412607996    0.1208320854291184    0.12933715581509247    0.12933893692753148    0.12083104642851822    
  0.10686776362541167    0.09184519096807817    0.07910504499464674    0.07038307368840668    0.06610610889379916    
  0.07658881246816367    0.07578290224273233    0.07658908570334043    0.07910534877410132    0.08352454254415421    
  0.08958985468989952    0.09620640265202561    0.10149366591654062    0.10351698282769096    0.10149292999404377    
  0.09620784671210209    0.08958786814622936    0.08352518481409074    0.07910503479877462    0.07658881246816367    
  0.09444119818186991    0.09608531718754705    0.09608352944475677    0.09444219483397491    0.09184380202877837    
  0.08958970421166072    0.0884080537328672    0.08825214921236232    0.0885326471775425    0.088533989904202    
  0.08825026395821463    0.08841043555707605    0.08958786339109845    0.09184518843085156    0.09444119818186991    
  0.1183478623115299    0.12726086778135356    0.13053865640863807    0.12726048169990045    0.11834888040325299    
  0.10686731196951844    0.09620689051127694    0.08825145653780919    0.08370734855765137    0.0823121989445458    
  0.08370850537379279    0.08825024730058595    0.09620783428610584    0.10686776476728446    0.1183478623115299    
  0.14407035482392244    0.1657401187983515    0.1787681680089784    0.1787685238221917    0.16574050587224412    
  0.14406946724124955    0.12083107305457197    0.10149405131423858    0.08853282220086643    0.0823137491782769    
  0.08231221962643262    0.08853399024829389    0.10149291408511557    0.12083105691729112    0.14407035482392244    
  0.16444819883783116    0.20216487618974377    0.23125825091172905    0.24207835170358868    0.23125934081327615    
  0.20216372263371551    0.16445072133755642    0.12933784503315637    0.10351653838445292    0.08853280651373722    
  0.08370735177827891    0.08853266418163695    0.10351699796957212    0.12933893991746853    0.16444819883783116    
  0.17224525589927486    0.22450875597616596    0.2715807364383155    0.29840183576366164    0.29840190370738023    
  0.2715810393215536    0.22450983495174498    0.17224433702589953    0.12933785506013173    0.10149403996175144    
  0.08825145641224445    0.08825214181207633    0.10149366410543642    0.12933715000930107    0.17224525589927486    
  0.16444956980037279    0.22451095179323924    0.2864960033770156    0.3295771799232841    0.34396344259132444    
  0.32957709219805104    0.28649829871099475    0.22450981202215595    0.16445073745003413    0.12083109587173593    
  0.096206904380037    0.08840805973045375    0.0962063962953074    0.12083208853656616    0.16444956980037279    
  0.14406999128376438    0.2021627452337223    0.27157913640186065    0.32958094566828217    0.35872324791964466    
  0.3587261429063257    0.32957707951936865    0.2715810233153966    0.20216372079686398    0.14406945241195265    
  0.10686731357019426    0.08958970040398516    0.08958984866182829    0.10686728008763502    0.14406999128376438    
  0.11834824128362062    0.16574030457262123    0.23126186553213884    0.29839967382955385    0.343961919069372    
  0.3587232717010468    0.3439634430035092    0.2984019200741944    0.23125934295550135    0.1657405161669286    
  0.11834888198193644    0.09184377950461835    0.08352455990815341    0.09184411435095963    0.11834824128362062    
  0.09444238697613276    0.1272618290074305    0.17876677570371854    0.24207821056651535    0.2983996785982699    
  0.329580939985969    0.32957714862571647    0.2984018384273362    0.2420783552158631    0.17876852962252873    
  0.12726047814728803    0.09444219571382419    0.07910535394516668    0.07910482378638416    0.09444238697613276    
  0.07658924157287218    0.09608339315686533    0.130539922530608    0.17876677801919472    0.231261854737862    
  0.27157915737398813    0.28649599160243205    0.2715807172209548    0.23125827081066458    0.1787681503896844    
  0.13053865566497758    0.0960835276947405    0.0765890921698499    0.07038296021323175    0.07658924157287218    
  0.06610592772376167    0.07578357459279969    0.09608340149861241    0.1272618433638131    0.16574032112926948    
  0.20216271487797646    0.22451093171517353    0.22450875089396846    0.202164901113268    0.16574009802876544    
  0.12726085734158848    0.09608532434284699    0.07578289944499375    0.06610608550897536    0.06610592772376167    
  0.06271867820442535    0.06610592906687256    0.07658923056572488    0.09444238625049227    0.1183482474677707    
  0.14406998990100225    0.16444956005813627    0.1722452590734354    0.16444820010798378    0.14407031485689206    
  0.11834786426008921    0.09444118693591882    0.07658881027910376    0.06610610865215688    0.06271867820442535    
  0.07425961369468333    0.0790166673485345    0.09382634764389103    0.11937111559582306    0.15409818027653555    
  0.19160664386077692    0.2209011053601354    0.23191410852343292    0.2209092225767337    0.1916073278089862    
  0.15409161996020113    0.11937156437409747    0.09382756365066876    0.07901689097728923    0.07425961369468333    
  0.07901689233917311    0.07901485590532957    0.08444048565002397    0.09560216928615707    0.1120660982542805    
  0.13168889170900816    0.14997463517119733    0.16106535141313646    0.16106619364920055    0.1499684421152442    
  0.13168816987566037    0.11207226114323328    0.09560176746021584    0.08443746395060225    0.07901689233917311    
  0.09382757318518314    0.09333614504475961    0.09382701353214694    0.0955995721073176    0.0991954676010298    
  0.10456395713227067    0.11073857816319085    0.11583592843906196    0.11781241776217759    0.11583474130728884    
  0.11074413355761756    0.10456384564206656    0.09918932726265905    0.09560176133215162    0.09382757318518314    
  0.11937156538203741    0.12386466044636375    0.12386474978975344    0.11937412526167585    0.11206494492120614    
  0.10456545479163722    0.09865750031464662    0.09501557379207502    0.09346168396738318    0.09346258090983256    
  0.09501557422264767    0.09865375841983681    0.10456384039890446    0.11207225302994264    0.11937156538203741    
  0.15409163682725643    0.17152622240565565    0.17803630361629083    0.17152329176009332    0.15410153724395845    
  0.1316869977387128    0.11073887230460605    0.09501653450925131    0.08577046837499828    0.08280206473990163    
  0.0857704281276582    0.09501556572091961    0.11074412802080914    0.13168816427736965    0.15409163682725643    
  0.19160737378234322    0.23015413972030008    0.25298548184386305    0.2529854165015529    0.23014403686665663    
  0.19160646902107023    0.14997535788044164    0.11583413844037706    0.09346253893078081    0.08280189129203108    
  0.08280208351987324    0.09346257532638506    0.11583472691626717    0.1499684682429443    0.19160737378234322    
  0.2209092325854886    0.2831499835805315    0.32686970148730266    0.34162897357282723    0.32688755309611445    
  0.28315038126716247    0.22090289027079613    0.1610681528484608    0.11781133157609061    0.0934625352818139    
  0.0857704651746195    0.09346169709952566    0.1178124237109378    0.1610661974065741    0.2209092325854886    
  0.2319141000577854    0.3132585496637507    0.3719950604264127    0.39395646193675915    0.39394624498746494    
  0.3719909707017452    0.31327674751070744    0.23190737999001315    0.16106815090368348    0.1158341384454513    
  0.09501653462680508    0.0950155594264068    0.11583594499674779    0.16106535048667667    0.2319141000577854    
  0.22090112098591755    0.31327364200132135    0.3847819609737114    0.40334380483978705    0.3996632309379735    
  0.40334342961819836    0.38477755173483214    0.31327673472254014    0.22090290353894537    0.1499753668780776    
  0.11073888014469892    0.09865748974868228    0.11073856141242827    0.14997464501263574    0.22090112098591755    
  0.19160662894192845    0.2831515704433767    0.3719929422923874    0.403337748114571    0.3891626976570652    
  0.3891764364332114    0.4033433866811089    0.3719909284744535    0.28315036418495465    0.19160646227960818    
  0.13168701727183182    0.104565454874642    0.10456394831614947    0.1316888852010695    0.19160662894192845    
  0.15409818309705697    0.23014571043396295    0.32688331912466717    0.3939356327370133    0.3996877983520987    
  0.3891627110492069    0.3996632172970281    0.3939462774122369    0.3268875541279966    0.23014402201430595    
  0.15410155813960033    0.11206492567599466    0.09919547846385754    0.11206609838052578    0.15409818309705697    
  0.11937112732135789    0.17152897519214932    0.2529836116944799    0.34163635591948915    0.3939356075983101    
  0.4033377885328832    0.40334380032847267    0.3939564327444829    0.3416290024286915    0.2529854186182367    
  0.1715232842707506    0.1193741215482367    0.09559957220652812    0.09560218770949612    0.11937112732135789    
  0.0938263558669298    0.12386606792498084    0.17803308670348145    0.25298360867327435    0.3268833048965312    
  0.371992957098647    0.38478196020385885    0.3719950462156222    0.326869708419564    0.2529854811438074    
  0.1780363150194406    0.12386473691392044    0.0938270124708248    0.08444048761123527    0.0938263558669298    
  0.07901667937768096    0.0933351754987946    0.1238660585242886    0.17152899540057698    0.230145726897457    
  0.2831515554681787    0.3132736353672664    0.3132585632562471    0.2831500131215568    0.23015413790487763    
  0.17152621761543632    0.1238646729676658    0.09333614520345974    0.07901485600932918    0.07901667937768096    
  0.07425961369468333    0.0790166673485345    0.09382634764389103    0.11937111559582306    0.15409818027653555    
  0.19160664386077692    0.2209011053601354    0.23191410852343292    0.2209092225767337    0.1916073278089862    
  0.15409161996020113    0.11937156437409747    0.09382756365066876    0.07901689097728923    0.07425961369468333    
  0.08591749344437805    0.09219215615102047    0.11176943822336596    0.14580326007793742    0.19233391230400512    
  0.2416528177350579    0.2784017436092008    0.2916183668661463    0.2784387758533843    0.2416570475938971    
  0.19230533552294318    0.14580690640996866    0.1117763900717031    0.09219187911319524    0.08591749344437805    
  0.09219187743125817    0.09219165334264845    0.09918077706097216    0.11343368798282774    0.13449900290493422    
  0.1597725919314225    0.18318126444428826    0.19719001022950086    0.19718859781288064    0.18315898678582854    
  0.1597683090447695    0.13452424193387597    0.11342809436828256    0.09917444600270994    0.09219187743125817    
  0.11177639794239029    0.11134769195865146    0.11176944760236436    0.11342309346888202    0.11702302609427566    
  0.12262644641561693    0.12931820605093583    0.1349780986362416    0.1371833155030219    0.1349741590880352    
  0.1293386927841469    0.12262719881996594    0.11700082820730665    0.11342808269741582    0.11177639794239029    
  0.14580690395065626    0.15273471207425146    0.15274245635875372    0.1458147801529966    0.134498279237565    
  0.12262939883711511    0.11300022579025344    0.10678871922460162    0.1039267738757944    0.10393020431366719    
  0.10679100872093152    0.11298194110123726    0.12262720087252323    0.13452423222358487    0.14580690395065626    
  0.19230534093155627    0.2173856063506141    0.2267105839707927    0.21737521091460496    0.19233782296334884    
  0.15976794981010645    0.12931812703473256    0.10679341498917204    0.09360157475092432    0.08932413800719449    
  0.0935987331929911    0.10679099160186739    0.12933869066912781    0.15976831208859457    0.19230534093155627    
  0.2416570731663789    0.29326159624993176    0.3216661823660076    0.3216646068177592    0.2932210032839422    
  0.24165779506034168    0.18318362462798657    0.13497258060114692    0.10392734182197484    0.0893242682010009    
  0.08932416074695322    0.10393021881162144    0.13497414751144574    0.183158983366525    0.2416570731663789    
  0.27843877195122085    0.3528028097138987    0.3905838798214925    0.3984130112601743    0.3906466678444558    
  0.3528037842991149    0.27840691035712223    0.19719404059683351    0.13718526256089342    0.10392733040555825    
  0.09360157086149966    0.10392676778138948    0.13718332375942127    0.19718861044781164    0.27843877195122085    
  0.2916183424603154    0.37945261779473544    0.4013131007100002    0.3772916395425939    0.37725363396490685    
  0.4013014524192419    0.379514300272862    0.2916001044713751    0.1971940170098615    0.1349725623800433    
  0.10679341467028854    0.10678870698661296    0.13497809982252537    0.19719001624417715    0.2916183424603154    
  0.27840176610111855    0.3795020694256273    0.39330012022453137    0.3178760375957563    0.2743204122592591    
  0.3178770331072448    0.39327598541713527    0.37951428615512267    0.27840692250937027    0.18318363239903368    
  0.12931814083323312    0.11300023014405346    0.12931819271574657    0.18318127267643045    0.27840176610111855    
  0.2416528273053989    0.35281818528516073    0.40131082159931536    0.3178543395306419    0.22345541009033318    
  0.22348520397805757    0.317877033320196    0.40130143222789366    0.35280376130265756    0.24165778310944144    
  0.15976795245131364    0.12262940765102837    0.12262643709029045    0.15977257194906594    0.2416528273053989    
  0.1923339324554776    0.293225505821198    0.39062359588315765    0.3772287587997632    0.27438585771476265    
  0.22345541272048103    0.27432041832159204    0.377253681705678    0.39064665839486185    0.2932210099390846    
  0.19233782287396062    0.13449825286283307    0.11702301791719696    0.1344990072156452    0.1923339324554776    
  0.14580327201067458    0.21739050924203918    0.32166262739103224    0.39844297368139425    0.3772287376063599    
  0.3178543588444765    0.3178760189699267    0.3772916322491685    0.3984130070110205    0.32166460817003584    
  0.21737519256808085    0.14581477644332347    0.11342309861264645    0.11343368779607998    0.14580327201067458    
  0.11176944022244889    0.15274274362286003    0.22670138227949263    0.3216626433308109    0.39062357566370703    
  0.40131083124009814    0.3933001453368114    0.40131309654370084    0.3905838954245325    0.32166615143885774    
  0.22671058473279557    0.1527424566406177    0.11176943673429542    0.09918077039334529    0.11176944022244889    
  0.09219216482240157    0.1113473495855262    0.1527427560595902    0.21739052123778263    0.293225507385137    
  0.35281815556946056    0.37950209073053887    0.3794526394911863    0.3528028318394641    0.29326158010867415    
  0.2173856013239746    0.1527347180050484    0.11134769081242281    0.09219166135956981    0.09219216482240157    
  0.08591749344437805    0.09219215615102047    0.11176943822336596    0.14580326007793742    0.19233391230400512    
  0.2416528177350579    0.2784017436092008    0.2916183668661463    0.2784387758533843    0.2416570475938971    
  0.19230533552294318    0.14580690640996866    0.1117763900717031    0.09219187911319524    0.08591749344437805    
  0.09347812052245508    0.10074281162207051    0.12344474003236483    0.16316907691725197    0.21739940919987047    
  0.2734245346171449    0.3131039826028825    0.326732753642108    0.3131569404150836    0.2734354713238196    
  0.21736339523789452    0.16317001871545456    0.12345881233264135    0.10074111100451802    0.09347812052245508    
  0.1007411164315291    0.10074037973412624    0.1087715381148465    0.12513395804753075    0.14948977060006252    
  0.17870685707003073    0.2055417423878375    0.22148679165414878    0.22148903917625096    0.20550631970347727    
  0.17870061394993259    0.14952097761256467    0.12512991231983792    0.10875804372643916    0.1007411164315291    
  0.12345883252285637    0.12306307866764313    0.12344328535433088    0.12512432951279154    0.12901284926421014    
  0.13513322784417603    0.14240872210908284    0.14861718406244723    0.15104762154896637    0.14860940502697373    
  0.14244098015555975    0.1351333805774004    0.1289840147809354    0.12512991277272154    0.12345883252285637    
  0.16317002606569794    0.1716373448639668    0.17165785581019777    0.1631806117382558    0.14948960897828384    
  0.13513143915211573    0.12337337522913679    0.11565009091943945    0.11201056654171582    0.11201600696526186    
  0.11565553400140016    0.12334257095428791    0.1351333726811803    0.149520987120064    0.16317002606569794    
  0.21736340805124502    0.24693772698320407    0.25785587413883315    0.24691818308468627    0.21740232483620994    
  0.17870658877776158    0.14240767526245196    0.11565955162357064    0.09998554706246737    0.09487461655973416    
  0.0999799501636428    0.11565550315660007    0.14244096162731967    0.17870062759633007    0.21736340805124502    
  0.27343550349791834    0.3301825145701164    0.35881006929797954    0.35880559655409966    0.330137666469901    
  0.2734270689279032    0.2055470399012918    0.14860679040826685    0.1120103246800952    0.09487478205719217    
  0.09487462803876454    0.1120160105524091    0.14860937185346204    0.20550633349467132    0.27343550349791834    
  0.3131569312256737    0.38449676529968435    0.40365789392626167    0.40033145977198464    0.4037300264928679    
  0.38450691543638066    0.3131069462531081    0.2214930982644088    0.15105444608908775    0.11201030456248283    
  0.09998552600609799    0.11201056860757819    0.1510476421204791    0.22148906604178253    0.3131569312256737    
  0.3267327474535839    0.399982846585184    0.3702994595117754    0.3051164124616281    0.30508966487446265    
  0.37027606859450135    0.4000738464989295    0.3267070914921644    0.22149307910835686    0.1486067842618406    
  0.11565955606632149    0.11565007833477375    0.1486171883277415    0.22148680284807418    0.3267327474535839    
  0.31310398616270163    0.40005243676881647    0.3420713296345237    0.20615056857209899    0.15095032631403707    
  0.20615643273776055    0.34203883856972506    0.4000738132510742    0.31310696115457637    0.20554703440732702    