#     DFTpy    
  CRYSTAL 
    
  PRIMVEC    
  3.239172413793103    0.0    0.0    
  0.0    3.239172413793103    0.0    
  0.0    0.0    3.239172413793103    
  PRIMCOORD    
  2    1    
  Si    0.0    0.0    0.0    
  Si    1.6195862068965514    1.6195862068965514    1.6195862068965514    
  BEGIN_BLOCK_DATAGRID_3D    
  3d_datagrid_density    
  BEGIN_DATAGRID_3D#0    
  15    15    15    
  0.0    0.0    0.0    
  3.239172413793103    0.0    0.0    
  0.0    3.239172413793103    0.0    
  0.0    0.0    3.239172413793103    
  0.05916066726987142    0.10436784889082688    0.25777760557001766    0.38020318579884127    0.3264677125358506    
  0.22341724672225277    0.15948092217172424    0.13978666965028166    0.1594809435792863    0.22341721470562365    
  0.3264677472771592    0.3802032342558775    0.25777763903706086    0.10436784346429441    0.05916066726987142    
  0.1043678360670148    0.15646318091596148    0.301510469464461    0.38629909318080957    0.3178988223354557    
  0.21812591617985558    0.15768432548749098    0.13907714131755708    0.157684320689333    0.21812585154279177    
  0.31789876516204907    0.38629907495857824    0.3015104739013486    0.15646319887287602    0.1043678360670148    
  0.25777760018946017    0.30151052852026516    0.3801049621136619    0.3765747201941178    0.2894475562939678    
  0.2032753478624439    0.15299289449716755    0.13740889338226084    0.15299287147047944    0.20327533604869635    
  0.2894475985144915    0.37657467267442735    0.38010506610786426    0.3015104490736712    0.25777760018946017    
  0.3802032149006076    0.3862991168587561    0.37657473730162994    0.3211911247537755    0.24501030293474618    
  0.1832979480775862    0.14744775743144461    0.13607109087870192    0.1474477333514371    0.1832979595672516    
  0.24501027094331346    0.321191113328186    0.37657472074401954    0.38629911977904885    0.3802032149006076    
  0.32646771403668173    0.3178988208862832    0.28944754155276686    0.24501031849269775    0.19935854149163212    
  0.1640615412222929    0.14296950158674257    0.13607104930727026    0.14296946343865377    0.16406158627796988    
  0.19935853584563867    0.24501024687769044    0.28944755159709556    0.3178988498426795    0.32646771403668173    
  0.22341720591237502    0.2181258830082188    0.20327536624889045    0.18329791687594926    0.16406150678040843    
  0.14926581605676742    0.14034633834661153    0.13740894412774943    0.14034629017095585    0.1492658134621514    
  0.1640615508821517    0.18329799414469852    0.20327534893641186    0.2181259148120461    0.22341720591237502    
  0.15948091158986022    0.15768431683856704    0.1529928582997695    0.1474477496547411    0.14296949329364042    
  0.14034638088644072    0.13930565131735112    0.13907713051957685    0.13930566157721722    0.14034627798477484    
  0.1429695004608575    0.14744773025380756    0.15299289244392247    0.1576842984672965    0.15948091158986022    
  0.1397866886340302    0.1390771873056405    0.1374089519003816    0.136071073565355    0.1360711138734694    
  0.137408958648766    0.13907716893275654    0.13978666599692385    0.13907715437503665    0.1374089371268111    
  0.13607109117592694    0.13607113766213302    0.137408898161685    0.13907717534205424    0.1397866886340302    
  0.15948088411422634    0.15768428743678742    0.15299290198419896    0.1474477296608115    0.14296945435983996    
  0.1403463595634099    0.13930563339824636    0.13907712589593266    0.13930564301250248    0.14034628985701703    
  0.14296946282405137    0.1474477479334549    0.15299288382106851    0.15768429269728776    0.15948088411422634    
  0.22341719191199866    0.2181259084409709    0.20327531910105245    0.1832979517396795    0.16406153985329544    
  0.14926582194629837    0.1403463457288836    0.1374089128013127    0.14034630896497435    0.14926582475579286    
  0.16406157273964603    0.1832979200889862    0.20327539655305465    0.21812588803511712    0.22341719191199866    
  0.3264676995142487    0.3178987825728997    0.2894475583385115    0.24501030933810233    0.19935852827043016    
  0.16406155449760584    0.14296947994324702    0.13607106469849325    0.14296946464348861    0.16406157596625912    
  0.19935852144594018    0.24501031183637137    0.2894475615184506    0.3178987742569497    0.3264676995142487    
  0.3802032269167044    0.3862990884424209    0.3765746709955086    0.32119109176330646    0.2450103062067201    
  0.18329797513930013    0.14744775684099226    0.1360711053311829    0.1474477826086123    0.18329796563767578    
  0.2450103282872223    0.3211909983568115    0.3765747042662242    0.38629916120902047    0.3802032269167044    
  0.2577775984366976    0.3015104799279167    0.3801050189735593    0.37657473701073974    0.2894475453429985    
  0.20327530567968624    0.1529928959432374    0.1374088949475089    0.152992879626451    0.2032752995696874    
  0.2894475356071504    0.3765747912265839    0.38010498520054553    0.30151053483383405    0.2577775984366976    
  0.10436783610364314    0.15646322689750192    0.30151040852580774    0.3862991252849791    0.31789878324038073    
  0.21812594672077204    0.15768429793148556    0.13907714911676097    0.15768430974407535    0.21812586710480455    
  0.31789880194728193    0.38629916130439174    0.3015104837540463    0.15646317369506607    0.10436783610364314    
  0.05916066726987142    0.10436784889082688    0.25777760557001766    0.38020318579884127    0.3264677125358506    
  0.22341724672225277    0.15948092217172424    0.13978666965028166    0.1594809435792863    0.22341721470562365    
  0.3264677472771592    0.3802032342558775    0.25777763903706086    0.10436784346429441    0.05916066726987142    
  0.10436783386761773    0.15646318790530106    0.30151043758565527    0.38629910300000164    0.31789884637182875    
  0.21812591991062463    0.15768430121825638    0.13907714963790693    0.15768431702635535    0.21812589679413552    
  0.3178988217760813    0.38629917979771766    0.3015104410827856    0.15646318786021493    0.10436783386761773    
  0.1564631667705073    0.21002725115903023    0.3373325613653576    0.38786890092954945    0.3095843582323298    
  0.2139059469305094    0.1568989518993454    0.1393055961370915    0.15689898978104963    0.2139058811000638    
  0.3095843124116819    0.3878688935556482    0.33733257723268995    0.21002727893340783    0.1564631667705073    
  0.30151046663712666    0.3373326031617093    0.392688570714859    0.3710945805911342    0.28359432743495383    
  0.2024021753048406    0.15512793367241784    0.1403463152011257    0.15512791387939828    0.202402131130458    
  0.28359435921588116    0.3710945561152105    0.3926886621458903    0.3373325147351451    0.30151046663712666    
  0.3862990921347814    0.38786892614543533    0.3710945764247728    0.3156007957297954    0.24443620219217038    
  0.18730553877342623    0.1537636543421365    0.14296941747703898    0.15376361679620057    0.18730553231281052    
  0.2444361507058004    0.31560080942460467    0.3710946420362393    0.38786890730935797    0.3862990921347814    
  0.31789879168321433    0.3095843600989637    0.28359431437896876    0.24443616820281755    0.20424664035795073    
  0.17281919611519242    0.15376362478728667    0.14744775069474186    0.15376360871947028    0.1728192266270724    
  0.20424663152673989    0.24443616964229184    0.28359431606568086    0.30958439355593076    0.31789879168321433    
  0.21812587914775966    0.213905932902446    0.20240217223174095    0.18730548537420375    0.17281916536088918    
  0.16171417562025112    0.15512791078882227    0.1529928524524601    0.15512793551009887    0.1617141815219276    
  0.172819217160419    0.1873055537215628    0.2024021844636335    0.21390593060427326    0.21812587914775966    
  0.15768428269219853    0.15689898414428682    0.1551278576303127    0.1537636425401205    0.15376364214578292    
  0.15512799851555742    0.15689895660244235    0.15768425727158641    0.15689893472897523    0.15512791199254736    
  0.15376362689356776    0.1537635789505479    0.1551278988730136    0.15689894007411004    0.15768428269219853    
  0.1390771655546544    0.13930561120213328    0.14034630902593703    0.14296942351444608    0.14744777032628506    
  0.15299287887448726    0.1576843388101324    0.1594808479354047    0.1576842947097379    0.15299286499193396    
  0.14744776561619105    0.14296949519885727    0.14034631741503684    0.13930560369481437    0.1390771655546544    
  0.1576842703134454    0.15689892042694562    0.15512791388485683    0.15376361032623956    0.15376356940800967    
  0.15512800734981183    0.15689895298065737    0.15768427439809013    0.15689896013609347    0.15512788222918913    
  0.1537635993883129    0.15376362713449584    0.1551278954514527    0.1568989805300567    0.1576842703134454    
  0.2181258891564438    0.21390595247750988    0.20240214643547094    0.18730550656052292    0.17281921610910264    
  0.16171422184694567    0.15512797119134536    0.15299285693548142    0.15512791480047936    0.16171418923517328    
  0.17281924328939713    0.18730550796474327    0.20240221697842153    0.2139058641446221    0.2181258891564438    
  0.3178987758710331    0.3095843504723383    0.2835943355288079    0.2444362259107667    0.20424662684314251    
  0.17281918481608324    0.1537636419521836    0.1474477401970241    0.1537636127839983    0.172819246447547    
  0.20424659833426054    0.24443618936156564    0.28359435628935953    0.30958437489485346    0.3178987758710331    
  0.3862991053918082    0.3878689312646515    0.3710945355751689    0.3156008167547584    0.24443622999425774    
  0.1873055157350884    0.1537636455429496    0.14296946073230937    0.15376363674885082    0.18730551888010039    
  0.2444361918158842    0.31560072860747745    0.3710946007531207    0.3878689548033878    0.3862991053918082    
  0.30151039254546624    0.33733258618377715    0.3926886015736552    0.37109455971357985    0.2835943454362459    
  0.2024021637163847    0.1551279257644371    0.14034628450543613    0.1551279296737639    0.20240219943719925    
  0.28359437959489964    0.3710945738995749    0.3926886518375665    0.33733260546447064    0.30151039254546624    
  0.15646317126871975    0.21002730746490678    0.3373325130311857    0.38786899892262583    0.3095843340807862    
  0.2139059353730097    0.1568989952953909    0.13930561159801405    0.1568989622633942    0.21390589233157875    
  0.30958439539586374    0.387868963649322    0.33733253998656393    0.21002725204385062    0.15646317126871975    
  0.10436783386761773    0.15646318790530106    0.30151043758565527    0.38629910300000164    0.31789884637182875    
  0.21812591991062463    0.15768430121825638    0.13907714963790693    0.15768431702635535    0.21812589679413552    
  0.3178988217760813    0.38629917979771766    0.3015104410827856    0.15646318786021493    0.10436783386761773    
  0.2577776518640803    0.3015105172680353    0.3801049626186185    0.3765746829883568    0.2894476387788652    
  0.20327539300975322    0.15299289254126025    0.13740890435400702    0.15299288912877657    0.20327537654848027    
  0.28944759502706446    0.37657473492421173    0.3801050102577312    0.3015104779588723    0.2577776518640803    
  0.3015104395975109    0.33733255813976937    0.39268857174065985    0.37109454432125505    0.2835943369621979    
  0.20240219542770557    0.15512792065712883    0.14034633452178197    0.15512793378799292    0.20240211681674897    
  0.2835943078282597    0.37109451992889375    0.39268868230066484    0.33733258851318043    0.3015104395975109    
  0.3801050399366765    0.3926886469985782    0.396038080105142    0.3462771207270842    0.26672492505815126    
  0.2004895399908583    0.16171424947846932    0.14926575524864064    0.16171418764477052    0.2004895382966906    
  0.26672491755727973    0.3462771794351919    0.3960381471767925    0.3926886106191691    0.3801050399366765    
  0.37657471852633395    0.3710945608156165    0.34627711531582506    0.2978701070804621    0.24273400769927655    
  0.19909492353810904    0.17281916736045277    0.1640615537417104    0.17281917123519766    0.1990949602889641    
  0.24273398612127856    0.29787007265164456    0.34627713261893484    0.37109452189710773    0.37657471852633395    
  0.28944755771899133    0.2835943689069006    0.2667248881138915    0.24273397656605267    0.21830670701322785    
  0.19909490183805145    0.18730559745225617    0.1832978983736161    0.18730556462259035    0.19909491459707548    
  0.21830670584233097    0.24273396186373794    0.266724868210086    0.28359435732189003    0.28944755771899133    
  0.20327530772558772    0.20240219289719052    0.20048954145636905    0.19909493366756012    0.19909490109872374    
  0.20048955811432112    0.20240218356308384    0.20327532455696393    0.20240212437956545    0.20048958385978038    
  0.19909491304074842    0.1990949655328312    0.20048957580687732    0.2024022265850324    0.20327530772558772    
  0.15299290174558883    0.1551279431513161    0.161714200325712    0.17281919427570866    0.18730558026146626    
  0.20240224359866876    0.21390598822636706    0.21812583822752998    0.21390592382985277    0.20240215714374366    
  0.18730556438019827    0.17281917169672054    0.16171420862656266    0.15512790229326553    0.15299290174558883    
  0.13740895589176233    0.14034635616735    0.14926576317968118    0.16406155264772193    0.18329797417429858    
  0.20327534876359646    0.21812587805336708    0.2234171822285712    0.21812588060132043    0.203275359377058    
  0.18329792323405827    0.16406161848191234    0.14926575030787667    0.1403463409148333    0.13740895589176233    
  0.15299287782671525    0.15512791261005796    0.16171421220184753    0.17281917779519745    0.18730550679657362    
  0.20240220891353822    0.21390596405114723    0.21812583549810968    0.21390597364434982    0.20240213744592608    
  0.18730553369925432    0.17281915758074068    0.16171423399285406    0.15512793920767226    0.15299287782671525    
  0.20327532154922262    0.20240225174953375    0.20048952524603567    0.19909493133755368    0.19909490965792503    
  0.20048958015299773    0.20240221951488366    0.20327535023747081    0.20240211998330906    0.20048954055989643    
  0.19909492406031548    0.1990949340896    0.20048960202393395    0.2024021828244809    0.20327532154922262    
  0.28944756477148764    0.2835943626974339    0.26672491921632296    0.2427340083667483    0.21830669006272513    
  0.19909489125096994    0.18730556918550406    0.18329792390391886    0.18730551455896396    0.19909493191867858    
  0.21830665847037944    0.24273397290699392    0.26672489729482735    0.28359433940005324    0.28944756477148764    
  0.37657471580497287    0.3710945949023364    0.34627707651259193    0.29787010996209295    0.2427339863624174    
  0.1990949031250305    0.17281919665491272    0.164061568740432    0.17281921027434988    0.1990949079924735    
  0.2427340018107665    0.2978700559312468    0.3462771242747994    0.3710945638936153    0.37657471580497287    
  0.3801049800046285    0.3926886246439079    0.3960380909061887    0.3462770922431727    0.2667248920459502    
  0.200489536735907    0.16171423301776824    0.1492657583553308    0.16171421240359168    0.20048953713437417    
  0.266724926835882    0.34627709475713014    0.3960381994695448    0.3926886945307835    0.3801049800046285    
  0.30151043128787236    0.3373325841496366    0.39268857315079064    0.3710945779503203    0.2835943555307048    
  0.20240221729788535    0.15512792992180485    0.14034633171375727    0.15512792183043428    0.20240213100204316    
  0.28359439035424466    0.37109458840699366    0.39268862795178267    0.33733247657307525    0.30151043128787236    
  0.2577776518640803    0.3015105172680353    0.3801049626186185    0.3765746829883568    0.2894476387788652    
  0.20327539300975322    0.15299289254126025    0.13740890435400702    0.15299288912877657    0.20327537654848027    
  0.28944759502706446    0.37657473492421173    0.3801050102577312    0.3015104779588723    0.2577776518640803    
  0.38020320679588476    0.38629914543092053    0.3765747227109139    0.32119106012549525    0.2450103148992543    
  0.18329797931945468    0.14744774888993611    0.13607108565377027    0.1474477523181114    0.18329793928435537    
  0.24501030289158718    0.32119112730449795    0.37657473303911326    0.3862991218774026    0.38020320679588476    
  0.38629911154914026    0.38786895766205104    0.37109453339293863    0.3156007563106413    0.2444361894441997    
  0.18730556821130243    0.15376362836724425    0.14296943303392584    0.1537636675594774    0.18730550178628944    
  0.2444361293998687    0.31560080401730145    0.3710945859082768    0.38786894106274544    0.38629911154914026    
  0.37657470466917914    0.37109460882954665    0.3462770725747469    0.2978700203961756    0.24273400094586253    
  0.1990949386207097    0.17281923927057152    0.16406152131829183    0.17281919426384562    0.19909492681473634    
  0.2427339934820612    0.297870055975582    0.3462771674221175    0.37109457316335015    0.37657470466917914    
  0.32119104051987407    0.315600795686983    0.297870067916236    0.2702860268875483    0.24115092895129536    
  0.2183066510882219    0.2042466501141135    0.19935850903231256    0.20424661158070018    0.21830668146865845    
  0.24115090863209163    0.27028600080894805    0.2978701014987384    0.31560077359314    0.32119104051987407    
  0.24501028214829862    0.24443619412678774    0.2427339481743962    0.24115094551734823    0.2411509216531183    
  0.24273403060363688    0.24443617048773528    0.24501025287179265    0.2444361770643306    0.24273401494776695    
  0.2411509243580123    0.24115091179595172    0.24273397383371026    0.2444362198934984    0.24501028214829862    
  0.1832979217114045    0.1873055549917793    0.199094915990288    0.21830664892533413    0.24273400304331996    
  0.2667248661986902    0.2835943868901088    0.28944752129567997    0.28359433709913734    0.26672487697580627    
  0.24273403222489082    0.21830669944595238    0.19909496108494623    0.18730554990519194    0.1832979217114045    
  0.14744774877154476    0.15376365219874524    0.17281918799474377    0.2042466405723084    0.24443620724601683    
  0.2835944420275689    0.30958436896485514    0.31789879426617046    0.30958435216139235    0.2835943376219292    
  0.24443618630960176    0.20424662806173793    0.17281920282357452    0.1537636269317249    0.14744774877154476    
  0.13607109491867833    0.14296948902550904    0.16406154223804342    0.1993584585169552    0.24501034020924922    
  0.28944750768191857    0.3178988667092039    0.3264676378804265    0.31789881595963887    0.2894475144511239    
  0.24501029295287383    0.19935853440150816    0.16406155370981068    0.14296946245301398    0.13607109491867833    
  0.14744774549147216    0.15376363954060995    0.17281915155154834    0.20424661953426312    0.2444361426988856    
  0.28359441393834256    0.30958434766881177    0.3178987735206149    0.30958437932666244    0.2835943285483448    
  0.244436139085289    0.20424660897291647    0.17281920603302864    0.15376364736725887    0.14744774549147216    
  0.1832979308307067    0.18730558785099463    0.19909491016256803    0.2183066718363021    0.24273400562547084    
  0.26672489802418986    0.2835944206226407    0.28944751620457126    0.28359433146952173    0.2667248790899895    
  0.24273403630014273    0.21830664230638144    0.19909498794893093    0.18730549060957558    0.1832979308307067    
  0.24501025392382705    0.2444361860677437    0.24273399620323813    0.24115096096920302    0.241150903807891    
  0.24273400991626953    0.244436164850745    0.24501027427935104    0.2444361439065743    0.24273402838407132    
  0.2411508754088741    0.2411509160683564    0.242733977966732    0.2444361787763885    0.24501025392382705    
  0.32119102822304485    0.3156007915165472    0.2978700347153682    0.27028599285083776    0.24115094200506906    
  0.21830662999965322    0.20424664646430588    0.19935846263220425    0.20424663434198218    0.21830666105728547    
  0.24115095551111146    0.27028598540217763    0.29787007933804105    0.3156008056462757    0.32119102822304485    
  0.3765746479366038    0.37109463678460436    0.34627712046276016    0.2978700706194601    0.2427339801661557    
  0.19909491486395556    0.17281918559063045    0.1640615589517771    0.17281916887560073    0.1990949248255793    
  0.24273402297030466    0.2978700688158953    0.3462771679935649    0.3710945998734941    0.3765746479366038    
  0.38629910393824207    0.3878690106362199    0.3710945191515454    0.315600797984531    0.24443621147501965    
  0.1873055766355848    0.1537636552219143    0.14296946310514183    0.1537636295032685    0.1873054976737561    
  0.24443619129566926    0.3156007549016908    0.37109455440219    0.38786893343993145    0.38629910393824207    
  0.38020320679588476    0.38629914543092053    0.3765747227109139    0.32119106012549525    0.2450103148992543    
  0.18329797931945468    0.14744774888993611    0.13607108565377027    0.1474477523181114    0.18329793928435537    
  0.24501030289158718    0.32119112730449795    0.37657473303911326    0.3862991218774026    0.38020320679588476    
  0.32646768493853423    0.3178988303377984    0.2894475484459651    0.24501025997977227    0.19935855203722874    
  0.1640615677957964    0.1429694751931176    0.13607107261946083    0.1429694787954775    0.1640615187202205    
  0.19935852151531216    0.24501033003531345    0.28944755373416003    0.31789879975799323    0.32646768493853423    
  0.31789877881081763    0.3095843780471485    0.28359432492998193    0.24443618621287777    0.20424662994614845    
  0.17281925672171708    0.15376361662670718    0.1474477354839111    0.15376365343802487    0.17281916110541926    
  0.20424657613854283    0.24443617815667756    0.28359436931826004    0.309584344759062    0.31789877881081763    
  0.2894475354174605    0.28359441165332167    0.26672487301040304    0.24273396599218802    0.21830666407220398    
  0.1990949180212735    0.18730558480333925    0.18329791249319766    0.18730554577332867    0.1990948870641059    
  0.2183066716815397    0.2427339718134353    0.26672491890451483    0.28359435503586605    0.2894475354174605    
  0.2450102619354325    0.2444361788483529    0.24273397493995305    0.2411509430800602    0.2411508945312098    
  0.24273399122734923    0.24443617405029247    0.24501030744106883    0.24443613157673583    0.2427340189391157    
  0.241150877795277    0.2411509371101566    0.24273400649130966    0.24443616125530493    0.2450102619354325    
  0.19935852465786497    0.20424662107458244    0.21830665709892055    0.24115093959787798    0.27028607041746344    
  0.29787005116496723    0.3156008164357053    0.3211909953709781    0.31560080078778463    0.29787007209569666    
  0.27028605588863436    0.24115087609937527    0.21830666314647038    0.20424659230814501    0.19935852465786497    
  0.1640615185182379    0.17281922768716634    0.19909490937927152    0.24273400210917515    0.29787003446163857    
  0.34627713488944734    0.3710945659280163    0.37657473349948645    0.3710944953181607    0.34627714715348507    
  0.29787005191361854    0.24273405720309302    0.19909492339499255    0.17281924558258158    0.1640615185182379    
  0.14296945656626428    0.15376360607540032    0.18730553390036614    0.24443616583435382    0.3156008302412377    
  0.3710946474751015    0.3878690632140158    0.3862990386773086    0.38786895485294376    0.3710944945688188    
  0.31560082048755017    0.2444361472086055    0.18730556238683976    0.15376361690664597    0.14296945656626428    
  0.1360710823315521    0.14744779784556786    0.18329792536361234    0.24501027861349622    0.3211910619880726    
  0.37657473488332727    0.38629912496698715    0.380203188021243    0.3862991012437119    0.37657474150314896    
  0.3211910277180742    0.24501039160909766    0.1832979326865222    0.14744775718194836    0.1360710823315521    
  0.14296946840780117    0.15376361127848243    0.187305517747675    0.2444361380086058    0.315600751253207    
  0.3710945867127303    0.38786902234664594    0.3862990652437376    0.3878690231262261    0.3710945331882229    
  0.31560079228999016    0.24443615082437695    0.18730556255100403    0.15376361664898586    0.14296946840780117    
  0.1640615238650017    0.17281926271415124    0.19909487308775786    0.24273400907043238    0.2978700281573777    
  0.34627717977840344    0.3710946038953549    0.37657471041104545    0.37109449716678494    0.3462771578512449    
  0.2978700828079593    0.2427339976722826    0.1990949725783368    0.17281918487071019    0.1640615238650017    
  0.19935852432768195    0.2042466316363387    0.21830671643374877    0.24115094670684745    0.2702860456226853    
  0.2978700559585043    0.31560080339374075    0.3211909721470479    0.31560080434425103    0.29787005173649145    
  0.2702860147219148    0.24115088796334216    0.2183066772470996    0.20424659572500029    0.19935852432768195    
  0.2450102686385247    0.24443620451442938    0.24273396556804833    0.24115090810934076    0.2411509306358654    
  0.2427339689358606    0.24443617504696669    0.24501028174693146    0.24443618238660472    0.24273402605891076    
  0.2411509277287501    0.2411508952914804    0.2427339761821631    0.24443620331581575    0.2450102686385247    
  0.2894474971884336    0.28359439817427545    0.26672488583841286    0.24273395093262157    0.21830667212253457    
  0.1990948810224679    0.1873055517144085    0.18329793563544894    0.18730552809102    0.19909493180099588    
  0.21830670600963112    0.2427339916302771    0.2667249391581691    0.2835943936022888    0.2894474971884336    
  0.31789875286152686    0.30958440125725195    0.2835943146240655    0.24443618298063244    0.20424661175669834    
  0.17281925741407497    0.1537636352389457    0.14744775022840031    0.15376359826965105    0.1728191755062323    
  0.20424664266290063    0.2444361741840323    0.28359434263719757    0.30958433216465925    0.31789875286152686    
  0.32646768493853423    0.3178988303377984    0.2894475484459651    0.24501025997977227    0.19935855203722874    
  0.1640615677957964    0.1429694751931176    0.13607107261946083    0.1429694787954775    0.1640615187202205    
  0.19935852151531216    0.24501033003531345    0.28944755373416003    0.31789879975799323    0.32646768493853423    
  0.2234172255960975    0.21812591329591008    0.20327532610641452    0.18329793789785392    0.16406160997561972    
  0.14926580599956535    0.14034631161801606    0.1374089452791005    0.14034631517300541    0.14926579722362804    
  0.1640615681999965    0.1832979703544595    0.20327534542972084    0.21812588207138958    0.2234172255960975    
  0.2181258404347382    0.213905935097833    0.20240215945037637    0.18730551198275536    0.1728191942125431    
  0.1617142366841718    0.15512795009703922    0.1529928746000887    0.15512798022158297    0.16171414722661226    
  0.17281919444656116    0.18730550222990933    0.20240221973046266    0.21390592542067055    0.2181258404347382    
  0.20327533597671643    0.202402192763525    0.20048952981880208    0.19909492932749012    0.1990949226110739    
  0.20048958324009467    0.2024021835996338    0.20327535282976472    0.20240213463142723    0.2004895655483928    
  0.19909491749856414    0.1990949754928315    0.20048956214270516    0.2024021654368246    0.20327533597671643    
  0.1832979738117543    0.18730551770978474    0.19909491884361658    0.21830667360901077    0.24273403260958265    
  0.26672485515701183    0.28359433201119666    0.2894475373043555    0.28359437361503637    0.26672491046861485    
  0.24273402575042347    0.21830667382229993    0.19909493937186867    0.1873054982849772    0.1832979738117543    
  0.16406156524769477    0.1728192277377208    0.19909489859962992    0.24273400354551306    0.29787008180027247    
  0.34627715610926907    0.37109456763525045    0.3765747058387246    0.3710945251541454    0.34627719320285183    
  0.2978700793978067    0.24273399032562126    0.1990948771191018    0.17281920740716417    0.16406156524769477    
  0.14926577656935494    0.1617142060729645    0.20048958077064719    0.2667248508325914    0.3462771558025802    
  0.39603806890331544    0.3926887037207637    0.38010498233766726    0.39268859012493773    0.3960381074776038    
  0.34627717772469885    0.2667248981923842    0.20048959315994216    0.16171421148746257    0.14926577656935494    
  0.14034630402862497    0.15512797020931107    0.20240213794811104    0.2835943700049251    0.37109458607464074    
  0.3926887743221341    0.3373325572999616    0.30151046703205137    0.33733251078842597    0.3926886230911574    
  0.3710945530453408    0.2835943375621566    0.20240214707007198    0.15512791223102013    0.14034630402862497    
  0.1374089858855933    0.1529928919954951    0.2032753444870877    0.2894475155880673    0.3765747928518498    
  0.3801049966637314    0.30151050764666426    0.2577775494468044    0.30151050850768046    0.3801050000066655    
  0.3765747415426574    0.2894475809242884    0.20327533005180992    0.15299288370603792    0.1374089858855933    
  0.14034628923815148    0.15512792574814746    0.20240215897958336    0.28359436998432347    0.37109452563714995    
  0.3926887119941899    0.33733254731799994    0.3015104661641404    0.33733255001304996    0.3926886405037088    
  0.3710945116436554    0.28359434160699315    0.20240218768985055    0.1551279624483837    0.14034628923815148    
  0.14926577637225025    0.16171426895278163    0.20048954875064867    0.2667248687777228    0.34627714629729345    
  0.39603812934081495    0.39268877473828706    0.38010497950973776    0.3926886554827632    0.39603811793780475    