#     DFTpy    
  CRYSTAL 
    
  PRIMVEC    
  3.697066456593103    -2.0312404e-10    3.850069613793103e-10    
  -2.0312404e-10    3.697066456378277    1.855149703448276e-10    
  7.035516793103447e-10    3.3906155862068965e-10    6.773097399961858    
  PRIMCOORD    
  4    1    
  Si    1.8485332282261147    1.848533229206445    2.0813338825240164    
  Si    6.854838159770391e-10    -6.344061350604178e-10    1.3052148151801248    
  Si    1.0513710537398416e-10    4.791281314152727e-10    5.467882580939979    
  Si    1.8485332287803466    1.8485332278021092    4.691763521850114    
  BEGIN_BLOCK_DATAGRID_3D    
  3d_datagrid_density    
  BEGIN_DATAGRID_3D#0    
  17    17    29    
  0.0    0.0    0.0    
  3.697066456593103    -2.0312404e-10    3.850069613793103e-10    
  -2.0312404e-10    3.697066456378277    1.855149703448276e-10    
  7.035516793103447e-10    3.3906155862068965e-10    6.773097399961858    
  0.33479875557385275    0.3113348454166105    0.2530063319731054    0.1847474008492474    0.12626489658448192    
  0.08535916136810687    0.06086110929050496    0.04839332394066573    0.0446090732109324    0.0483933338825453    
  0.060861139831083905    0.08535915034483964    0.12626487733179426    0.184747444102687    0.25300634147762463    
  0.31133494733387085    0.33479875557385275    0.31133487782100916    0.29002856329551363    0.2367759239229928    
  0.17422162505253186    0.12042141959699351    0.08251855700175147    0.05959261005575198    0.04782911455198869    
  0.044245664061466544    0.04782910363690973    0.05959258503273461    0.08251857819031823    0.120421425221584    
  0.17422162604300312    0.23677586493276284    0.2900286425208241    0.31133487782100916    0.25300626036032836    
  0.23677591324088326    0.19590260517995467    0.1474600860284451    0.10528745235553957    0.07498230399353258    
  0.05623336349051784    0.0464345477988501    0.043420891598023474    0.046434594577936764    0.05623336049215904    
  0.07498229474070231    0.10528739412288984    0.14746011787711416    0.1959026024773798    0.23677586227918496    
  0.25300626036032836    0.18474744554557845    0.17422161162294156    0.14746003540387617    0.11526207589792949    
  0.08662935882246106    0.06548217020441449    0.052016576011675544    0.04479794203410962    0.042541886379305595    
  0.04479797670848861    0.05201658566705412    0.0654822059130267    0.08662935716576772    0.1152620652720743    
  0.14746008948988346    0.1742216139871425    0.18474744554557845    0.12626488642766462    0.12042141982260861    
  0.10528747100048869    0.0866293781557732    0.06964031254045669    0.05674606369406806    0.04825746235311838    
  0.04354927066955706    0.042041299021371686    0.04354932609052863    0.04825748240719458    0.05674606407296709    
  0.06964028494012996    0.08662939208206934    0.10528743924592987    0.12042146307573319    0.12626488642766462    
  0.08535914482949314    0.08251859132037719    0.07498232104720624    0.06548221393036525    0.05674606254977508    
  0.05005236685385723    0.04557577017273744    0.043085088233919835    0.0423021274583953    0.04308511765123736    
  0.045575724914415916    0.0500523605297715    0.05674604591023573    0.06548220099361522    0.07498227322940997    
  0.08251853790567006    0.08535914482949314    0.06086113208213377    0.05959259842117552    0.05623337539993928    
  0.05201655482048961    0.04825747163870599    0.045575732187525836    0.043973369551376804    0.04325987157685753    
  0.04309802706660701    0.043259912851893914    0.043973350526006934    0.04557570851260962    0.04825746599866406    
  0.052016559630764445    0.05623332983357708    0.059592561418068644    0.06086113208213377    0.048393334633877176    
  0.04782910559084173    0.046434569610096614    0.04479793707354001    0.04354928274412165    0.04308514315350553    
  0.043259897402380065    0.04365718661278791    0.043856271632990385    0.04365722487389881    0.04325989822819059    
  0.0430851024961155    0.04354928554757835    0.044797956983859105    0.04643458159511974    0.04782911382649272    
  0.048393334633877176    0.044609093945432235    0.04424566573503747    0.04342087315115713    0.04254188229491709    
  0.04204127312986709    0.04230214385709699    0.043098046848022306    0.04385627609992023    0.044160639995656024    
  0.043856329827556426    0.04309802649741394    0.04230213492460523    0.04204128461141915    0.04254192206870534    
  0.043420896048674724    0.04424568346473288    0.044609093945432235    0.04839332297419677    0.04782912425566358    
  0.046434573400857625    0.04479796477689564    0.04354926036173329    0.04308510915329314    0.0432599195234249    
  0.04365717493074253    0.04385631668306181    0.04365720011777514    0.04325989933073928    0.04308510360713906    
  0.04354927459529604    0.04479796052581971    0.046434578744695365    0.04782912190136746    0.04839332297419677    
  0.06086114181567241    0.059592588480061215    0.056233343034572725    0.052016562406893944    0.04825748862991912    
  0.045575723450691184    0.04397336490623421    0.04325986331802619    0.04309806887915729    0.043259916152613924    
  0.0439733456159763    0.04557568882839578    0.04825744711673787    0.05201659382726693    0.056233358707828134    
  0.05959255549493592    0.06086114181567241    0.08535918454303883    0.0825185976139978    0.07498231504063295    
  0.06548222509795751    0.05674608907308702    0.05005239234692475    0.045575744341746736    0.04308513597618358    
  0.04230209933659078    0.043085140682034936    0.04557572927925457    0.05005239272080684    0.056746047493725776    
  0.0654821992593275    0.07498232782700903    0.08251856217166484    0.08535918454303883    0.1262648929042619    
  0.1204214991022914    0.10528742529275435    0.0866293614123395    0.06964032833831807    0.05674608860029322    
  0.048257453902448046    0.04354925737188665    0.04204127682934272    0.04354929579035813    0.04825749755302263    
  0.056746063621170996    0.06964027589723859    0.08662939602479364    0.10528746661575532    0.12042146228420973    
  0.1262648929042619    0.18474734470622883    0.17422162094882993    0.14746011910401852    0.11526208575898397    
  0.08662938184375053    0.06548220938220312    0.05201659214447784    0.04479793050036418    0.042541887102811635    
  0.04479796243939153    0.05201658721639246    0.06548220830072413    0.08662931628161501    0.11526200830386206    
  0.14746004107332997    0.17422157741701647    0.18474734470622883    0.25300625078547134    0.23677597340352427    
  0.19590263700835658    0.14746009959607997    0.10528742888979976    0.07498229750564764    0.056233338331788646    
  0.04643455877250687    0.04342088445493494    0.04643460254524949    0.056233342371142386    0.07498229481025633    
  0.10528741410712601    0.1474600600049124    0.1959025785757221    0.23677588204722735    0.25300625078547134    
  0.31133490576873174    0.29002860374280925    0.2367758908172491    0.1742215828266137    0.12042149602097851    
  0.08251855814898865    0.05959258980486649    0.04782912851131053    0.044245683368521915    0.04782914192539248    
  0.059592612937082325    0.08251856590077594    0.12042144803801934    0.174221593475816    0.23677590862768513    
  0.2900285336603697    0.31133490576873174    0.33479875557385275    0.3113348454166105    0.2530063319731054    
  0.1847474008492474    0.12626489658448192    0.08535916136810687    0.06086110929050496    0.04839332394066573    
  0.0446090732109324    0.0483933338825453    0.060861139831083905    0.08535915034483964    0.12626487733179426    
  0.184747444102687    0.25300634147762463    0.31133494733387085    0.33479875557385275    0.37048823173263784    
  0.3451576799587989    0.2809148589674878    0.20424828920453916    0.1382228592073855    0.09216566313715664    
  0.06462367589779093    0.05070253752861141    0.04652226682146242    0.05070255356322879    0.06462369824122213    
  0.09216566316248082    0.13822287206309483    0.2042483671893117    0.2809148935142119    0.34515770647747057    
  0.37048823173263784    0.3451576639411827    0.3219088809146458    0.2629181781498034    0.19248064298734588    
  0.13170373135514066    0.08905005299102335    0.06332053105085479    0.05021050238974076    0.04625843150305917    
  0.05021050302200418    0.06332049727131671    0.08905008768413046    0.13170374818725367    0.19248058387233477    
  0.26291806632483095    0.321908802233978    0.3451576639411827    0.2809147292653676    0.26291814912923894    
  0.21724412830251041    0.1625934657546659    0.1149673857716356    0.08091864112130248    0.059918884124676504    
  0.04901972680940927    0.045702414040755715    0.04901976278169784    0.05991888251985858    0.08091863409180819    
  0.1149673713327695    0.16259351454223306    0.21724413141918406    0.26291807636609194    0.2809147292653676    
  0.20424837325266937    0.19248057459687565    0.16259347135650867    0.12652706119972792    0.09442035482323591    
  0.07076453028631002    0.055736441019018    0.04774272815021594    0.04527373319940898    0.047742767222784234    
  0.05573645670881409    0.07076457476552277    0.09442032985742646    0.12652704843307333    0.16259352227961463    
  0.19248060258340174    0.20424837325266937    0.13822285945725885    0.13170373617677553    0.11496741194572364    
  0.09442038287245015    0.0756536921616712    0.06140548150902332    0.05209472109960718    0.047008745154932044    
  0.04540845904811548    0.04700880555198169    0.05209474464677721    0.06140549242688152    0.07565366126460338    
  0.09442038727610395    0.1149673770852066    0.13170374866403764    0.13822285945725885    0.09216565967268199    
  0.08905005467150914    0.08091867877103147    0.07076455082009789    0.06140546742587342    0.054277398848724186    
  0.04964902312453003    0.047156821773220774    0.0463776673295497    0.04715685536288945    0.04964898211498186    
  0.05427741181963846    0.06140542884330924    0.07076452327559389    0.08091860728141922    0.08905005359980735    
  0.09216565967268199    0.06462367278042462    0.06332053595353243    0.05991890678426726    0.05573644665566515    
  0.052094762021364    0.049648965374275995    0.04840961226410384    0.04798155635890756    0.04790839746326152    
  0.04798162248914743    0.04840959599713766    0.049648971682083876    0.052094754019395395    0.055736445042684664    
  0.05991884331794826    0.06332049853813215    0.06462367278042462    0.050702565495486386    0.050210496997754664    
  0.04901976715471353    0.047742740943143444    0.04700875481003666    0.0471568253575575    0.047981610567624976    
  0.04889493989526875    0.04928523344482661    0.048894927880026695    0.04798160532715805    0.04715683087094258    
  0.04700874922045567    0.04774274218238594    0.04901975465406774    0.05021050285327135    0.050702565495486386    
  0.04652226971654456    0.04625844887191661    0.04570238237224599    0.04527373433248965    0.045408441114797915    
  0.04637769237187109    0.04790843073505571    0.049285229493139036    0.04983348594795832    0.049285258445007675    
  0.047908408628099766    0.046377685977875    0.045408467912989116    0.04527377168113324    0.04570241727994841    
  0.04625844105306011    0.04652226971654456    0.05070255545397771    0.05021052391479644    0.04901976468180704    
  0.04774274678511562    0.04700875426076537    0.047156831588378856    0.04798162869822572    0.048894873595698524    
  0.049285225344145735    0.04889492749248774    0.047981575482024384    0.04715684041229137    0.04700874843811186    
  0.04774275538871488    0.04901976134981567    0.050210501255179125    0.05070255545397771    0.06462367469726342    
  0.06332052778096595    0.05991886121891289    0.05573644259501181    0.05209475939886616    0.0496489712854178    
  0.04840962919155504    0.04798158169841418    0.047908428424916834    0.047981635902708174    0.048409599731642154    
  0.049648959267955865    0.05209475086828935    0.055736473252628864    0.059918874453311274    0.06332048846708323    
  0.06462367469726342    0.09216568357705135    0.08905006070895055    0.0809186449870485    0.07076457568834035    
  0.06140548809416508    0.05427741156752712    0.049649021072017976    0.04715683102878448    0.0463776529759005    
  0.047156867617758426    0.049648979715078805    0.05427741089724705    0.06140550304334414    0.07076454897125062    
  0.08091866171282541    0.08905004261537133    0.09216568357705135    0.13822289088823894    0.13170378179036707    
  0.11496740089135302    0.09442031434270491    0.07565368810195584    0.061405491338651315    0.052094742696701724    
  0.04700874718413605    0.04540843121297158    0.04700877166986535    0.05209475960067676    0.06140547835438069    
  0.07565368455845287    0.09442037508239584    0.11496741854757878    0.13170377154050897    0.13822289088823894    
  0.20424828003073725    0.19248061754854892    0.16259348634221818    0.1265270506991065    0.0944203303221785    
  0.07076455162901939    0.055736460616648    0.04774273139250622    0.04527373934404939    0.047742759335241004    
  0.055736457620300356    0.07076456863151862    0.09442031625066315    0.12652700839881162    0.1625934586122771    
  0.19248053584607513    0.20424828003073725    0.28091484100409836    0.2629181526462622    0.2172442395923183    
  0.16259349875478718    0.11496736633665036    0.08091862271134259    0.059918865447205504    0.049019736566954    
  0.045702408409345176    0.04901977008236961    0.059918880838302616    0.08091863665700925    0.11496735978047416    
  0.16259345855075688    0.21724415151828785    0.26291810593801657    0.28091484100409836    0.345157660899277    
  0.32190886980820205    0.26291810466219934    0.19248055947496467    0.13170379684423858    0.08905005901976822    
  0.06332050865627596    0.05021051990416898    0.04625843355246061    0.05021052753127597    0.06332053364745079    
  0.08905005623317157    0.1317037602590527    0.19248058120064312    0.26291815549498065    0.3219088001744342    
  0.345157660899277    0.37048823173263784    0.3451576799587989    0.2809148589674878    0.20424828920453916    
  0.1382228592073855    0.09216566313715664    0.06462367589779093    0.05070253752861141    0.04652226682146242    
  0.05070255356322879    0.06462369824122213    0.09216566316248082    0.13822287206309483    0.2042483671893117    
  0.2809148935142119    0.34515770647747057    0.37048823173263784    0.43550844173047804    0.41494014781090005    
  0.35156363662797446    0.2600552608843499    0.1736847933551163    0.11220483751002121    0.0756997486316675    
  0.05757933757119228    0.05223553146182964    0.05757933463609621    0.07569979103828063    0.11220479501735271    
  0.1736848120329545    0.2600553765313039    0.35156369634324974    0.4149401621095991    0.43550844173047804    
  0.4149400567224548    0.3938092632119462    0.3317237544341056    0.24555078928494373    0.16546429463190968    
  0.10847701771768668    0.07440924695271096    0.05736356390727015    0.0523104675185338    0.05736357734048572    
  0.07440923682001037    0.1084770272915356    0.16546428461793225    0.2455507040709062    0.33172364934441895    
  0.3938092503376021    0.4149400567224548    0.3515635367765966    0.33172373313082676    0.27780307833046675    
  0.2078610593721161    0.1443671476129252    0.09887677555239695    0.07113431728943753    0.05696269332659661    
  0.052710466994037114    0.056962719682306345    0.07113429121441601    0.0988767750445525    0.14436714316091726    
  0.2078611146589316    0.2778029679750605    0.3317236381786611    0.3515635367765966    0.26005526817902874    
  0.24555072374153158    0.20786106586080833    0.16082009453950288    0.11822272983381042    0.08700224634598952    
  0.06737613998456748    0.05708636074766618    0.05395672792248049    0.05708639719383631    0.06737615757578239    
  0.08700227053127693    0.11822272802130078    0.16082010520684797    0.20786111716427114    0.245550744477894    
  0.26005526817902874    0.1736848151590454    0.16546433784495618    0.14436717772523655    0.11822272383729003    
  0.09421952113722627    0.07615129554606478    0.06457276116658385    0.05843505041645644    0.056553782993424166    
  0.05843511699996659    0.06457277707841873    0.07615128693484595    0.09421947234312593    0.11822276293911431    
  0.14436717029852786    0.1654643562580975    0.1736848151590454    0.11220482448312935    0.10847705177891895    
  0.09887684129500626    0.08700225454008757    0.07615127714805302    0.06817062621864549    0.06342534573321944    
  0.06113931631403051    0.06046412041185126    0.0611393565722611    0.06342527595929222    0.06817064643330371    
  0.07615127693283699    0.08700222673924701    0.09887675790724022    0.10847698902826404    0.11220482448312935    
  0.07569975837311005    0.07440923960511005    0.07113430969029505    0.06737611601208601    0.0645727846065305    
  0.06342528296772747    0.06378362986920089    0.06462600903695355    0.06498895374197841    0.06462607591460255    
  0.06378362359767092    0.06342527345191083    0.06457277793867296    0.06737611545059943    0.07113427784768475    
  0.07440921203675871    0.07569975837311005    0.05757933655281519    0.05736357960566014    0.05696272182743469    
  0.05708634889711596    0.05843508383686943    0.061139325380493305    0.06462607719414323    0.06760255810047346    
  0.0687626983131972    0.06760261132731733    0.06462606600082978    0.06113933403587226    0.05843508819933205    
  0.057086384841506174    0.05696272391641865    0.057363558602643874    0.05757933655281519    0.05223552954736034    
  0.052310486668370466    0.05271045054828141    0.053956703874792115    0.05655378456625011    0.06046415826269721    
  0.06498895107333774    0.06876270146697808    0.07023907915526921    0.06876278363210794    0.06498896041636863    
  0.06046414357230323    0.05655380504508314    0.05395677289315254    0.052710451975227494    0.052310486617161006    
  0.05223552954736034    0.05757932297019297    0.05736360633020315    0.05696272811333958    0.057086389103085666    
  0.058435081024333695    0.06113936724765975    0.06462609514205504    0.06760255299573177    0.06876272980059195    
  0.06760255659729214    0.06462606787641652    0.061139332096054676    0.05843507583691234    0.057086407499423474    
  0.05696272318153608    0.05736358672327442    0.05757932297019297    0.0756997583837821    0.07440925471941004    
  0.07113427535699555    0.06737614837106438    0.06457280369514662    0.06342529581840055    0.0637836438770693    
  0.0646260288751093    0.06498896357822412    0.06462606528230364    0.06378362710117703    0.06342522555459869    
  0.0645727882575205    0.06737614756124731    0.07113428565365305    0.07440919185655519    0.0756997583837821    
  0.11220487335019819    0.10847702002029182    0.09887678087132229    0.08700224581497149    0.07615130165022352    
  0.06817067781786831    0.06342532033268183    0.06113934725930819    0.06046409662836368    0.06113934135645593    
  0.06342529362141007    0.06817064133182205    0.07615129138673578    0.08700225472714669    0.09887679613612708    
  0.10847702705173982    0.11220487335019819    0.17368480797695512    0.165464353825083    0.14436713171753432    
  0.11822273463112626    0.09421948984031026    0.07615134438030068    0.06457275061476525    0.05843508021104049    
  0.0565537965425814    0.05843510033539739    0.06457279829882312    0.07615128980888751    0.09421950056811983    
  0.11822269548198873    0.1443671703814123    0.16546433369603475    0.17368480797695512    0.2600552083858269    
  0.2455507200523949    0.20786109941959857    0.16082014714580292    0.11822269504411298    0.0870022370265862    
  0.06737614651898512    0.05708638404899688    0.053956721094712765    0.05708638705337697    0.0673761563488989    
  0.08700227879328955    0.11822268615408583    0.1608200588022543    0.20786103587563962    0.24555068693885346    
  0.2600552083858269    0.35156361512092743    0.3317236916042625    0.27780306684935974    0.20786109652909443    
  0.14436711161623159    0.09887678387061116    0.0711342700875651    0.056962698511725494    0.052710463304474584    
  0.05696275486835758    0.07113429621657341    0.09887677522194777    0.14436713532966536    0.20786102211936208    
  0.27780302292589837    0.33172367645970957    0.35156361512092743    0.41494014870509977    0.3938092985080483    
  0.3317237609854229    0.2455506642978001    0.16546438614612938    0.1084770422562037    0.07440923041517726    
  0.05736359362346994    0.05231048171257663    0.057363603407175036    0.07440925114920084    0.1084769870916022    
  0.16546436090780015    0.24555075062763648    0.33172379464889923    0.3938092041488424    0.41494014870509977    
  0.43550844173047804    0.41494014781090005    0.35156363662797446    0.2600552608843499    0.1736847933551163    
  0.11220483751002121    0.0756997486316675    0.05757933757119228    0.05223553146182964    0.05757933463609621    
  0.07569979103828063    0.11220479501735271    0.1736848120329545    0.2600553765313039    0.35156369634324974    
  0.4149401621095991    0.43550844173047804    0.3730206672779892    0.3907696288611756    0.3973472877962237    
  0.33128351006062495    0.22712821485676024    0.14324184575107013    0.09307733884289995    0.06855410863870959    
  0.061364433477122185    0.0685541297547441    0.0930773517379999    0.14324180360562275    0.22712824787821828    
  0.3312836977255695    0.3973472832023914    0.39076965274843733    0.3730206672779892    0.39076960639600966    
  0.3998955746767712    0.3895027911975696    0.3168503564983235    0.21725995675995627    0.13899386797975746    
  0.09208929443784043    0.06897520884292574    0.062158688444972326    0.06897520653517121    0.09208925952588173    
  0.1389939220886836    0.21725991156451852    0.3168502936331197    0.38950263934549734    0.39989548296968247    
  0.39076960639600966    0.3973471523553127    0.38950275557566033    0.35101145839694625    0.27468777286576473    
  0.1910565637030968    0.12805218726622594    0.08984096132791847    0.07056601244831397    0.06479500634195058    
  0.07056605867497108    0.0898409363488039    0.12805220950317603    0.191056528956658    0.27468783329413243    
  0.3510114091714728    0.38950269969360074    0.3973471523553127    0.3312835608189302    0.3168503282914098    
  0.274687770790775    0.21503601443171633    0.15743277643468695    0.1147123394142252    0.0880999689683804    
  0.07426845761987454    0.0700657919133868    0.07426849929106404    0.0880999745568112    0.11471235460950555    
  0.15743269747907895    0.21503602869029653    0.27468784727146917    0.31685032469973623    0.3312835608189302    
  0.22712827500743057    0.21726002524376445    0.19105658114138482    0.15743273894683088    0.12628070792531282    
  0.10308236419719634    0.0884699367515706    0.08093437312644687    0.07869025224841072    0.08093447405487747    
  0.08846993945306164    0.10308235784278555    0.1262807163967868    0.15743278272037398    0.19105661669085283    
  0.21725997855298385    0.22712827500743057    0.1432418123656355    0.13899390132104472    0.12805221934464953    
  0.11471233333653828    0.10308231253103164    0.0952863930992843    0.09149071814084513    0.090359015807847    
  0.09021323626114003    0.09035907016784517    0.09149068456416934    0.09528645844903126    0.10308230772238446    
  0.11471233009268085    0.1280522112042806    0.13899388236302132    0.1432418123656355    0.09307732747413268    
  0.09208929946293772    0.08984095322434005    0.08809995037804702    0.08846993736986002    0.09149067171940646    
  0.09637900578286904    0.10087030871183092    0.10263499656534171    0.10087038995592809    0.09637899255237346    
  0.09149063337918387    0.08846993199831239    0.08809995616146664    0.08984089944372309    0.09208925299998222    
  0.09307732747413268    0.06855413617657498    0.06897521252763568    0.07056604668773697    0.07426843460985591    
  0.08093441858467489    0.09035906502912905    0.10087038561805418    0.10935983433243902    0.1126253764052163    
  0.10935990588236724    0.10087037599871414    0.09035903485088863    0.08093443821411932    0.0742684835877946    
  0.07056604113159164    0.0689752091587226    0.06855413617657498    0.061364433497913366    0.062158700203614754    
  0.0647949549459275    0.07006576908505434    0.07869023770139703    0.09021329077549542    0.10263501864618116    
  0.11262538826861365    0.11652231408501676    0.11262549566438185    0.10263500412872985    0.09021328612320795    
  0.07869025876621637    0.07006584431212516    0.06479498130723138    0.06215870240827634    0.061364433497913366    
  0.06855409611886486    0.06897524145816372    0.0705660639632833    0.07426847397375527    0.08093441188536032    
  0.09035904871455373    0.10087040816898407    0.10935979109356585    0.11262538089425357    0.10935986724812155    
  0.10087038798200194    0.0903590507431335    0.08093441324440641    0.07426850188314334    0.07056604486901875    
  0.06897520346641899    0.06855409611886486    0.09307735175306796    0.09208928367351739    0.08984090624349306    
  0.08809997846295597    0.0884699624171277    0.09149067848226208    0.09637904472850436    0.10087035413663827    
  0.10263503838226538    0.10087039769738493    0.09637901262922312    0.09149064183070785    0.08846995005715376    
  0.08809999009496765    0.08984092023909092    0.09208922471483244    0.09307735175306796    0.14324185083459817    
  0.138993923299083    0.12805219655478411    0.11471232815543005    0.10308237756901786    0.09528647331471272    
  0.09149072327228477    0.09035902186656634    0.09021321605192857    0.09035908159609837    0.09149068187881948    
  0.09528647761424539    0.10308237654914519    0.1147123447134927    0.1280522133418242    0.13899388805167798    
  0.14324185083459817    0.2271282843027011    0.21725998788627968    0.1910565342609831    0.1574326945008338    
  0.1262807180096531    0.1030823798078161    0.08846991144638898    0.08093441268240648    0.07869025905512025    
  0.08093445980641484    0.08846994258535475    0.10308236812771736    0.1262806981091059    0.15743272705819492    
  0.1910566089823418    0.2172599697080686    0.2271282843027011    0.33128357346005566    0.3168503606391201    
  0.27468783413199443    0.21503606529755057    0.15743276054269356    0.11471232810544667    0.08809999925135936    
  0.07426842371329906    0.0700657750636097    0.0742684733659716    0.08809997885172491    0.11471234179304249    
  0.15743267171423697    0.21503599537741874    0.27468771261583064    0.31685025181185794    0.33128357346005566    
  0.3973472264402164    0.3895026985308211    0.35101152627852433    0.27468779224398604    0.19105653901955352    
  0.12805215693176317    0.0898409130421256    0.07056601667001894    0.0647949594015681    0.0705660735326708    
  0.08984093196447157    0.12805218453273556    0.19105650721115602    0.27468772054941953    0.35101143854444566    
  0.3895027066314015    0.3973472264402164    0.3907696517004228    0.3998956402622172    0.3895028286211077    
  0.31685029180989915    0.21726002446602283    0.13899388520996797    0.0920892575909047    0.06897522084632261    
  0.062158705094532446    0.06897524751034839    0.09208929838037876    0.1389938618565724    0.2172599822662896    
  0.31685027849265734    0.38950281781989826    0.39989549374338895    0.3907696517004228    0.3730206672779892    
  0.3907696288611756    0.3973472877962237    0.33128351006062495    0.22712821485676024    0.14324184575107013    
  0.09307733884289995    0.06855410863870959    0.061364433477122185    0.0685541297547441    0.0930773517379999    
  0.14324180360562275    0.22712824787821828    0.3312836977255695    0.3973472832023914    0.39076965274843733    
  0.3730206672779892    0.17403752656164723    0.22710631359223796    0.3452580932584959    0.3760896736529905    
  0.2826618224472104    0.17875391741392394    0.11372504185934275    0.08204318331195895    0.07276076928426872    
  0.08204319894741968    0.11372507688723066    0.1787538869229225    0.28266178535401976    0.37608981191631335    
  0.3452580601705939    0.22710638317174145    0.17403752656164723    0.2271063136928895    0.27520915957846676    
  0.3676299627727926    0.37007920463971083    0.2728647521648669    0.17464945470361828    0.1136562196600927    
  0.08372203103362856    0.07489000057624012    0.08372203124848321    0.11365617334852429    0.17464948605807915    
  0.27286471259696704    0.3700791123420813    0.3676298479480779    0.2752091267451335    0.2271063136928895    
  0.34525796583810253    0.36762992131990463    0.388466051523261    0.339308868112017    0.24504320211083958    
  0.1643282939612549    0.11449467347396397    0.08944763794878663    0.08192304511057102    0.08944767510561907    
  0.11449465617622266    0.16432827776071002    0.24504320107525845    0.33930889807815257    0.3884659311284582    
  0.36762985980402785    0.34525796583810253    0.3760896965546539    0.3700791859520131    0.3393089017638404    
  0.2769206328705864    0.20692155410270666    0.1524871583048666    0.11839009954039975    0.1007339444637263    
  0.0953580771488805    0.10073398974109309    0.11839010691943444    0.15248717140161788    0.2069214814661929    
  0.27692065003517646    0.33930889405988063    0.37007909377275927    0.3760896965546539    0.28266183160055797    
  0.27286480220032217    0.2450433198891205    0.20692151714694923    0.17062612774363006    0.14365007471258123    
  0.12699396094604923    0.11879610815057261    0.11649279811485728    0.11879627556596828    0.12699394169593475    