#     DFTpy    
  CRYSTAL 
    
  PRIMVEC    
  5.91155310024506    4.715171340979311e-07    7.784334580689655e-07    
  4.7151724612551725e-07    5.911555127446618    7.86947117984138e-07    
  7.784335576289655e-07    7.869471360531035e-07    5.911554717694716    
  PRIMCOORD    
  16    1    
  Si    0.8723103469008107    5.0392438407199895    2.0834673070384393    
  Si    5.0392431680614    0.8723122237102365    3.828086563052042    
  Si    0.8723112355424233    0.8723114538411221    0.8723117608383089    
  Si    2.0834703670815258    2.0834712323028723    2.0834710146243944    
  Si    5.03924173456692    2.083467452421902    0.872310782957082    
  Si    0.8723101519567563    3.8280898848506117    5.039243794616822    
  Si    2.083466672321187    0.8723124025539731    5.0392442703196485    
  Si    3.828086347957829    5.039245207414095    0.8723108539834419    
  Si    3.8280860492799884    2.083471580205603    5.039247023698399    
  Si    2.0834682137698217    3.82808469226778    0.8723079857156824    
  Si    3.828084088680673    3.8280876328476796    3.828086482084993    
  Si    5.039243335496667    5.039246120673539    5.0392450173756895    
  Si    2.0834705988241096    5.039248796513673    3.8280866909149363    
  Si    3.828083213794514    0.8723076618613291    2.0834690082957863    
  Si    5.039245448932829    3.8280870923009997    2.083471154753627    
  Si    0.8723079168460377    2.083469724355565    3.828084642778327    
  BEGIN_BLOCK_DATAGRID_3D    
  3d_datagrid_density    
  BEGIN_DATAGRID_3D#0    
  27    27    27    
  0.0    0.0    0.0    
  5.91155310024506    4.715171340979311e-07    7.784334580689655e-07    
  4.7151724612551725e-07    5.911555127446618    7.86947117984138e-07    
  7.784335576289655e-07    7.869471360531035e-07    5.911554717694716    
  0.181076795734112    0.18488608196221482    0.19579595665872956    0.2130528055596109    0.23412963531955552    
  0.253853237101089    0.2664152906902046    0.266415608765455    0.25385308964508374    0.23413012415518863    
  0.21305298860743946    0.19579659770668295    0.18488651587440824    0.1810775357119212    0.18488673566450275    
  0.19579693066161766    0.21305363458690577    0.234130705566625    0.25385400574512124    0.26641626508551375    
  0.2664162269773507    0.2538536880680406    0.23413024762376777    0.21305309204526207    0.19579625497622694    
  0.18488616455072432    0.181076795734112    0.18488602056313028    0.20683373558288667    0.23757958839197904    
  0.277306029148873    0.3243481293723672    0.37034527494037883    0.4002709108880347    0.40027068675045446    
  0.3703458788637249    0.3243482360360042    0.2773067659999192    0.2375800735670229    0.20683445643364856    
  0.18488650031310808    0.17163283083288855    0.16595187766191796    0.1664289528246942    0.170820144710452    
  0.17603583943224    0.1796406787854478    0.17964062225308677    0.17603570132208474    0.17081990136190758    
  0.1664286280879176    0.1659514970948773    0.1716322604139959    0.18488602056313028    0.1957960045163513    
  0.23335128764286986    0.281821947552103    0.34292593716360753    0.4194183679539356    0.5014284609456053    
  0.5577183824666369    0.5577187569866502    0.5014285703596825    0.4194190713301709    0.34292631535553436    
  0.2818226731961979    0.23335180303679867    0.19579655187381426    0.16906342175911712    0.15191161714035037    
  0.14243001164344773    0.1382142234220514    0.1367756343112719    0.13651417707740582    0.13651425096203165    
  0.13677555974043587    0.1382142487208232    0.14242988104673066    0.15191138127081402    0.169063067296927    
  0.1957960045163513    0.21305270941753113    0.25920966646573157    0.31653306803281156    0.3887785610492718    
  0.4853442728111186    0.5983722045347328    0.6807837675949621    0.6807836864695072    0.5983727138064783    
  0.4853446315611371    0.3887792791319823    0.3165335743032578    0.2592102123505157    0.21305312433921703    
  0.17852077199437869    0.15509058297352116    0.14094718043098042    0.13351428162180037    0.13017019790433576    
  0.12900241479920352    0.12900237410020038    0.13017034590995735    0.13351424067972772    0.14094727649239758    
  0.15509042816696608    0.17852054771513315    0.21305270941753113    0.23412974997381825    0.2792935651147487    
  0.3343036704491071    0.4046032748340645    0.5021848821445623    0.6205439211976239    0.7096134103868169    
  0.7096135799483345    0.6205441086036121    0.5021853400992164    0.40460371684029184    0.3343042365300084    
  0.2792941047579296    0.23413010138200205    0.19957375089753707    0.17593768891661685    0.16209993265873665    
  0.15600686434768132    0.15466572388651517    0.1549691430639519    0.15496932670145983    0.15466564141333897    
  0.15600707707685468    0.1620998692790594    0.17593773915563302    0.19957347299386147    0.23412974997381825    
  0.2538530936638521    0.28812944218039155    0.33097012027081885    0.38801304841754786    0.4673514020150941    
  0.5605863134683859    0.6295817647205254    0.6295818271283067    0.5605864519508574    0.46735175138293195    
  0.3880134305275315    0.33097069157534725    0.28812989684657975    0.2538537112184063    0.22857720511045732    
  0.21280663504324765    0.20641261745113013    0.20835483869791682    0.21470737079435437    0.21994309260039105    
  0.2199428586212377    0.21470766306431022    0.20835465180260143    0.20641280073924015    0.2128063004308949    
  0.22857706737030847    0.2538530936638521    0.2664155162072952    0.28134538278375126    0.3040038290080808    
  0.33856765436459546    0.3880086844971254    0.4434335836756677    0.4826784715263818    0.48267840169396004    
  0.44343384450033574    0.3880088749225657    0.3385682652995747    0.3040043462685102    0.2813461666703925    
  0.2664160294127527    0.25902194309186394    0.2596954291418768    0.27018330294729553    0.290715808833859    
  0.3149786886095328    0.33192510515197315    0.33192541205600934    0.3149781647746664    0.2907158043677525    
  0.2701827510663347    0.259695291917064    0.2590212380638502    0.2664155162072952    0.2664156090623231    
  0.25902132552465645    0.259695387463567    0.2701830394770301    0.2907161184148904    0.3149788717799814    
  0.3319258577656262    0.3319260277550056    0.3149789590192606    0.2907166133589683    0.27018341459848666    
  0.25969623984977436    0.25902190465151836    0.2664167911446017    0.2813460308560598    0.3040049219363009    
  0.33856795884384705    0.388009399288643    0.4434333842032926    0.48267851641708265    0.48267775111784045    
  0.4434333110356651    0.3880081482855699    0.33856759751491833    0.30400373394184715    0.281345471165517    
  0.2664156090623231    0.25385337861332596    0.22857726983024607    0.21280653934122135    0.20641293800324043    
  0.20835502822038895    0.21470792951048642    0.21994361086463987    0.21994344154372494    0.21470832855849048    
  0.20835523005797515    0.20641368756008746    0.21280707193031462    0.22857848688233715    0.25385423618095365    
  0.2881312535892785    0.33097117968222434    0.38801468850452725    0.46735217434669607    0.5605879146057897    
  0.6295823140947827    0.6295824913813844    0.5605860766655194    0.46735140894671917    0.38801289965486196    
  0.3309702947950325    0.28812963710579764    0.25385337861332596    0.23413009877933116    0.1995736956394087    
  0.17593786792359187    0.16210004678500792    0.15600718477568126    0.1546660053485765    0.15496954038130334    
  0.15496977314422886    0.15466606768765542    0.15600779490878497    0.16210045678944168    0.1759390323675823    
  0.19957461792252604    0.2341319019103018    0.27929522040897875    0.33430612966922024    0.4046046636132618    
  0.5021874391570561    0.6205458743119869    0.7096163884302195    0.7096148550893944    0.6205450825651359    
  0.5021850927769977    0.40460367302041916    0.33430404959226717    0.279294054563976    0.23413009877933116    
  0.21305314316329904    0.17852077346703735    0.15509057999533582    0.1409472346475755    0.13351435764817549    
  0.13017038255968483    0.12900272613359032    0.12900262810271682    0.13017090640075157    0.13351472961160388    
  0.14094830479035853    0.15509141527129025    0.1785224868888459    0.21305444439366228    0.2592125681177798    
  0.31653517729989095    0.3887817548041814    0.4853465898975913    0.5983762703949124    0.6807868297251657    
  0.6807870659858521    0.5983738341145168    0.4853455073890179    0.38877932448241437    0.31653375322963556    
  0.2592102611440554    0.21305314316329904    0.19579647733792796    0.16906332862569876    0.15191147554764048    
  0.14242993295135933    0.13821415872720202    0.13677568470657367    0.1365143425603967    0.13651469365580834    
  0.13677604131511573    0.13821526757585628    0.1424307934839846    0.1519131805994069    0.1690646825029381    
  0.1957987534349812    0.23335359619602336    0.2818254573847638    0.3429284730027319    0.41942242525520146    
  0.5014317597156437    0.5577228459205832    0.5577214181470519    0.5014311327115087    0.41941983882519734    
  0.3429271153590836    0.2818227403201992    0.2333519476696824    0.19579647733792796    0.18488645429268002    
  0.17163254682223805    0.1659515965045053    0.1664286138182183    0.17081995699367336    0.17603571990635913    
  0.17964097091523626    0.179640980429883    0.1760367907910693    0.1708209318203591    0.1664304936341346    
  0.16595308100517983    0.17163485185778363    0.18488815361376393    0.20683697742821636    0.2375820771076321    
  0.277309621726586    0.3243507628937099    0.3703491771091278    0.40027353185018943    0.4002738532987154    
  0.3703472543752101    0.32434971113708805    0.27730711435986416    0.23758047442074914    0.20683441384334636    
  0.18488645429268002    0.18107723683944985    0.18488642792031412    0.19579641994831098    0.2130531491536076    
  0.2341302228429762    0.2538539032992525    0.266416395263769    0.2664171189861869    0.25385478866287237    
  0.23413228138572703    0.21305493889679053    0.19579895185102264    0.18488831993242988    0.18107975827355993    
  0.18488818280525535    0.19579893456417088    0.21305477969585745    0.234132532098518    0.2538550355802022    
  0.2664178269846929    0.2664169576990202    0.25385472336145215    0.23413070455621    0.21305368501150806    
  0.19579664415507464    0.18488658371524408    0.18107723683944985    0.1848865029518109    0.20683433424333272    
  0.23758010594332218    0.27730668804612546    0.32434878849278126    0.37034637952214816    0.4002723976016088    
  0.40027262473883124    0.3703482282418367    0.324350598321279    0.2773095185700325    0.23758232460711373    
  0.2068370993730331    0.18488828163643029    0.17163487238430972    0.16595297389069177    0.16643046112235046    
  0.17082086954002665    0.1760370404854797    0.17964114769623837    0.17964145220329328    0.17603597378850547    
  0.17082041243198418    0.16642886578267213    0.16595186538055134    0.17163268137660082    0.1848865029518109    
  0.1957965409994809    0.2333518306106689    0.28182256351367424    0.3429264491865148    0.41941924325972724    
  0.5014295510807703    0.5577200200745163    0.5577208556981249    0.5014306873334083    0.41942151692211327    
  0.3429284452875604    0.2818254650587399    0.23335394532023543    0.19579892329016757    0.1690647710776077    
  0.15191319325419064    0.14243068417210297    0.13821530409359045    0.13677595967731485    0.13651488095822653    
  0.13651439165312704    0.13677598320588416    0.13821431139739956    0.14243018402508162    0.151911596307539    
  0.1690635066579959    0.1957965409994809    0.21305319594023675    0.2592102902603959    0.31653347165878026    
  0.3887790971259377    0.4853447011581194    0.5983729719556174    0.6807847939493117    0.6807849634917826    
  0.5983741761969568    0.4853457043661408    0.38878118987722377    0.31653541239504274    0.25921283583443927    
  0.21305481090673173    0.17852270670658496    0.15509145656962264    0.14094838160800363    0.1335146103186542    
  0.13017094613533006    0.12900252405458426    0.12900277782323685    0.1301703424302929    0.1335144774810877    
  0.14094733527686867    0.15509074545010365    0.17852093512001255    0.21305319594023675    0.23413027652016494    
  0.2792939773130379    0.3343040406053421    0.4046032478840961    0.5021849013741346    0.6205438554600851    
  0.7096134050391549    0.7096138347576009    0.6205442177114011    0.502186038064123    0.4046044300131759    
  0.33430621792794757    0.2792957416531842    0.23413226653087757    0.1995748862381712    0.17593917555915828    
  0.16210043265751517    0.1560077820014589    0.15466586727800472    0.15496969755595516    0.15496928365765333    
  0.1546659640298612    0.1560070395829856    0.1621000884961281    0.17593792406282321    0.1995738621193078    
  0.23413027652016494    0.25385354626788736    0.28812989256572674    0.33097018409678547    0.38801294289834143    
  0.46735078960862214    0.5605854777939373    0.6295807794219932    0.6295809126224474    0.560586205275513    
  0.46735167416720175    0.3880143290648638    0.33097160049453406    0.28813175478820513    0.2538548581987904    
  0.22857890864391953    0.21280732175256964    0.2064137727978363    0.20835507001824705    0.21470816852931465    
  0.21994306304287625    0.21994326186458468    0.2147075591324992    0.20835489236937632    0.20641281269124126    
  0.2128065959413429    0.22857743032853442    0.25385354626788736    0.2664159413385221    0.2813456008228739    
  0.304004000564104    0.33856725549894173    0.38800805091446916    0.4434325305236336    0.4826771477677333    
  0.4826773049719623    0.44343297893169276    0.3880088134486471    0.3385682708500053    0.304005257355255    
  0.281346812584911    0.26641741616330383    0.2590225047238355    0.2596966791701007    0.2701835407166343    
  0.2907166328105129    0.3149785363021203    0.3319256551904752    0.3319252124767654    0.31497848128957234    
  0.2907157049549751    0.2701829737788648    0.25969539617641657    0.25902154209756517    0.2664159413385221    
  0.2664158075193804    0.25902163125287064    0.25969534490495927    0.2701828883301068    0.2907154966562236    
  0.3149780985745568    0.3319247927834506    0.33192493198918444    0.31497820207079674    0.29071597859694914    
  0.27018345512202024    0.259696106819534    0.2590225279103831    0.2664168302270359    0.28134688898682914    
  0.30400485541235517    0.33856857526467754    0.3880089253143744    0.4434337487534801    0.48267785664059554    
  0.48267790501290603    0.4434328918911313    0.38800827808975547    0.3385675055433549    0.30400389057509813    
  0.2813456554549201    0.2664158075193804    0.253853525947159    0.22857730785104866    0.21280662674987538    
  0.20641279070839566    0.20835476403149095    0.21470735309622385    0.21994289686658336    0.21994272379986857    
  0.21470753154601555    0.20835476245993417    0.20641303440966052    0.21280699862257238    0.22857796688247903    
  0.2538544180589526    0.28813069687429377    0.33097142613309793    0.38801387721488684    0.4673520823079955    
  0.560586488341648    0.6295818104571163    0.6295812076388971    0.5605859705169077    0.46735099466552815    
  0.3880129881564598    0.33097022263734294    0.28812972202339593    0.253853525947159    0.23413004122234618    
  0.1995738049563253    0.17593780708426762    0.16210005301327396    0.1560068991961948    0.1546657448226649    
  0.1549690871450872    0.15496922762820856    0.1546655255281325    0.15600708586346335    0.16210001277408867    
  0.17593815987369357    0.19957419245039992    0.23413083975133137    0.27929484277111927    0.334304903850176    
  0.4046043651248142    0.502185712517084    0.6205447582413403    0.709613961083799    0.7096136670942381    
  0.6205437567608277    0.5021848465534554    0.40460324521037555    0.33430388248696735    0.2792939497954811    
  0.23413004122234618    0.2130530566239415    0.1785206554031218    0.15509060678830736    0.1409471408079934    
  0.13351433013866293    0.1301701092406901    0.12900240946252092    0.1290021828496142    0.13017026233601575    
  0.13351411208814729    0.14094735686188517    0.15509070633769337    0.17852123567094455    0.21305365791744532    
  0.2592109767871049    0.3165343833238694    0.3887799441167092    0.4853455371250676    0.5983735536737479    
  0.6807848628829706    0.6807843956450017    0.5983727007983726    0.48534440925446043    0.3887789127696933    
  0.3165333363242735    0.2592099759262205    0.2130530566239415    0.19579616769072528    0.16906324218701477    
  0.15191128564289708    0.14242987384469186    0.13821394399986925    0.136775477913011    0.13651388862776648    
  0.13651407812029764    0.13677527292999742    0.1382141985130313    0.1424298047017787    0.1519117166591185    
  0.1690635731340235    0.19579699509659232    0.23335240279290662    0.28182342984860626    0.3429272758907341    
  0.4194199853669898    0.5014300029994481    0.5577199281106647    0.5577196490051991    0.5014291246938739    
  0.41941903868033714    0.34292624502247526    0.2818222782498284    0.23335157206452437    0.19579616769072528    
  0.18488616635526323    0.1716321768655558    0.16595143409386212    0.166428314547371    0.1708197249159103    
  0.17603524014715122    0.17964033704747703    0.17964007041407584    0.1760355488581816    0.17081961294483164    
  0.16642876959157482    0.16595161444053066    0.1716328722552869    0.18488672701429273    0.20683488664957905    
  0.23758076679720821    0.277307454080856    0.32434936542876897    0.37034681008388687    0.4002720106944925    
  0.400271831582419    0.37034621682384794    0.3243485721736572    0.2773065497737819    0.2375799345616969    
  0.20683397114101312    0.18488616635526323    0.181076795734112    0.18488608196221482    0.19579595665872956    
  0.2130528055596109    0.23412963531955552    0.253853237101089    0.2664152906902046    0.266415608765455    
  0.25385308964508374    0.23413012415518863    0.21305298860743946    0.19579659770668295    0.18488651587440824    
  0.1810775357119212    0.18488673566450275    0.19579693066161766    0.21305363458690577    0.234130705566625    
  0.25385400574512124    0.26641626508551375    0.2664162269773507    0.2538536880680406    0.23413024762376777    
  0.21305309204526207    0.19579625497622694    0.18488616455072432    0.181076795734112    0.18488604189920446    
  0.20683375754917369    0.2333513528802061    0.25920959928585485    0.2792936488806598    0.28812931074061887    
  0.2813454649231034    0.25902113902197904    0.2285773753240202    0.19957360093087662    0.17852100855924022    
  0.1690634118416301    0.17163294471363502    0.18488672823369892    0.2068348508215532    0.23335230969459653    
  0.25921079590991625    0.2792944728737931    0.2881302085729234    0.28134594975982063    0.259021711034565    
  0.22857746648098295    0.19957379707130757    0.17852077466971197    0.16906321283513412    0.17163228165622052    
  0.18488604189920446    0.20683377621414414    0.24745647960610753    0.29068391720908526    0.33137847313999014    
  0.3709354037173213    0.40383671710110686    0.4112552717665873    0.3817606493988493    0.32766238800839753    
  0.27018023932298557    0.22324581641538038    0.1920473540690812    0.17589905977729997    0.17163291268978695    
  0.1758992158642238    0.18515260488407004    0.19528844850943114    0.2016189280711919    0.20080872233700878    
  0.1925753684148689    0.17902482447677884    0.16443646086897568    0.15353454248164194    0.15004775517844812    
  0.15700279516230148    0.17589862204151266    0.20683377621414414    0.23757960326781108    0.29068396929872736    
  0.3376941494545806    0.3771448333518012    0.4306738344881967    0.5027224470064432    0.5486768427093305    
  0.5245280389516626    0.44486906052593317    0.35209679106104    0.27437514289315135    0.2195590130007005    
  0.18515243174641388    0.16595180437072268    0.15700316639152587    0.1545787011567541    0.15524108268594194    
  0.15536708623370438    0.1525974903459474    0.14702058993237246    0.14028428400361423    0.13505686273077702    
  0.1345206999362042    0.14186267604537095    0.1602080233877339    0.19204675506575902    0.23757960326781108    
  0.2773060672701434    0.3313784327893983    0.364910230688371    0.385227452779177    0.4385932177120666    
  0.5452785004178042    0.6405820480179653    0.6360849436428448    0.5395733470737757    0.4175448113484819    
  0.31486920980603955    0.24240189341309495    0.19528819912538103    0.1664287623939161    0.15004792633111286    
  0.1421699731207326    0.13954417786915144    0.13911862709326744    0.13868830644417574    0.13750337737834684    
  0.13623082916012721    0.1367780766130816    0.14221884085188036    0.15612026314700317    0.18219089680767267    
  0.22324542697771568    0.2773060672701434    0.3243479318375181    0.3709354252960007    0.3876428544917709    
  0.3901788892909516    0.4352668225536496    0.5479478985140032    0.6596636390463501    0.6652535854450966    
  0.5665391545307147    0.437691049411046    0.32853784160292615    0.25158960579217626    0.20161869581120298    
  0.17082000448937215    0.15353446012532074    0.14610382932949675    0.1457563209065295    0.14995333581594267    
  0.15598447939510074    0.16158075134128927    0.16598035272142822    0.17054992303956468    0.17901361278979355    
  0.19611086291321828    0.22588843516325996    0.27017972172952237    0.3243479318375181    0.37034533621622323    
  0.4038365123720722    0.41115157196080104    0.4084391350523015    0.44218142995406157    0.5271096924452594    
  0.6048860407063024    0.5981106037222659    0.5122224507056639    0.403613492301078    0.3099960634296171    
  0.24327871304485466    0.20080868927395865    0.17603560081926953    0.16443659379102157    0.16357857273340215    
  0.17195265972128546    0.18761047288220428    0.2065737021393807    0.22379006588696918    0.23547798012281768    
  0.24188157531512813    0.24873144464497426    0.2635423918163258    0.2902065287586683    0.32766206434589484    
  0.37034533621622323    0.40027070155197875    0.4112552481737383    0.40857598217206986    0.40337507229114644    
  0.4200718352576853    0.46023991358509836    0.4881697984696338    0.46773933057576206    0.4055122800244137    
  0.33124373002508734    0.26639994939617306    0.22021192472897402    0.19257527355606172    0.17964085000608687    
  0.17902474428604026    0.19052371399431361    0.21496327937260382    0.2511516899623614    0.2928687880904395    
  0.32943104076203433    0.3490753600868226    0.3491594290064253    0.34263688987079916    0.3455288201955976    
  0.36122584773702804    0.3817603108648533    0.40027070155197875    0.40027090690855005    0.38176040617962076    
  0.3612261327042689    0.34552899107083906    0.3426374174952369    0.34915961037765486    0.34907592725306397    
  0.3294309490738428    0.2928691656430942    0.25115131154278225    0.21496359826192613    0.19052337978914574    
  0.17902519292079463    0.1796406676148545    0.19257594898626096    0.22021195410722902    0.26640080123718973    
  0.3312439505748023    0.40551311180684324    0.4677393308062251    0.48816996597561135    0.460239318881744    
  0.4200714743360979    0.4033746718093028    0.40857593360339045    0.4112552663169071    0.40027090690855005    
  0.37034560827717156    0.3276624441864098    0.29020673694414933    0.2635427407671244    0.2487315969864361    
  0.24188196597385006    0.23547817152215092    0.22379055193443645    0.20657375559416258    0.18761098236532545    
  0.17195262230847394    0.16357920604629309    0.164436700158941    0.17603649475240402    0.20080902861263492    
  0.2432800205779105    0.3099967940018088    0.4036152232714258    0.5122234819580265    0.5981121230367573    
  0.6048861165544924    0.5271094637747632    0.442180507599321    0.4084386365559036    0.4111513922096414    
  0.4038367847067945    0.37034560827717156    0.32434842326868524    0.27017996389711296    0.22588871873442576    
  0.1961109724821449    0.1790139119224821    0.17055003965865723    0.16598075052661876    0.1615808813499793    
  0.1559850261450881    0.1499534904751488    0.14575706347226994    0.1461041045996041    0.15353549508113143    
  0.17082053522345378    0.20162017080193792    0.2515905976294689    0.32853999335995654    0.43769277964599324    
  0.566542134882875    0.6652555961333362    0.659665116900829    0.5479473944521154    0.43526610595052795    
  0.3901781300754785    0.3876428776373647    0.3709358037098772    0.32434842326868524    0.27730658269107084    
  0.22324579980787498    0.18219107737648368    0.15612041820608116    0.14221889487263517    0.1367783343037691    
  0.13623097410296406    0.1375038824780729    0.1386885696535476    0.13911944024203649    0.139544592737376    
  0.14217107971137674    0.1500485842147357    0.16643023331095674    0.19528929894592278    0.24240401482447077    
  0.31487096519018043    0.4175479286962661    0.5395762006137671    0.6360884455177552    0.6405838153317585    
  0.5452791013535768    0.43859269705261805    0.38522726202761043    0.36491037733478576    0.331378997680718    
  0.27730658269107084    0.23758016022578213    0.1920470960128162    0.16020822690242742    0.14186273727468793    
  0.13452085173256195    0.13505693877968275    0.14028470854223932    0.14702091141843    0.1525983826413134    
  0.15536771745731928    0.15524234922711047    0.15457954936658194    0.15700473306099666    0.16595290565048545    
  0.18515433954896965    0.21956055524613435    0.2743777454849089    0.3520992022041896    0.44487264674952354    
  0.5245310402305662    0.5486796226109043    0.5027237513959335    0.43067445018440514    0.3771452043371572    
  0.3376947435331646    0.2906846315927523    0.23758016022578213    0.20683427152394354    0.17589893397894674    
  0.15700297563046411    0.1500478938649971    0.15353462865526193    0.1644368217523754    0.17902516602851948    
  0.1925762518579109    0.20080954222729577    0.2016204249837887    0.19528962743974043    0.18515443001470316    
  0.17590055024026024    0.17163487479970435    0.17590046833367193    0.19204946438712742    0.22324750963308382    
  0.2701828295461059    0.3276646077825877    0.38176353153834736    0.4112573803332503    0.40383856670835033    
  0.37093644165145406    0.3313794484496326    0.29068471025265863    0.24745716778742402    0.20683427152394354    
  0.1848864425739545    0.17163258534217066    0.16906339449982216    0.17852091855499788    0.1995740367760529    
  0.22857774138615258    0.25902247677848383    0.28134675059499104    0.2881318164520125    0.2792958306965918    
  0.2592129556818575    0.23335393674076485    0.20683712402875973    0.18488825717300483    0.17163487727568028    
  0.16906474654337994    0.17852285303897633    0.19957500671161765    0.22857930592464865    0.2590226590125053    
  0.28134715820707384    0.2881304739660105    0.27929469429385306    0.2592103747107481    0.23335198363855306    
  0.20683432753202471    0.1848864425739545    0.17163259135737682    0.1758989303040836    0.19204715417762602    
  0.2232459214354826    0.2701803198792151    0.32766321391572567    0.3817616106930186    0.41125738121232525    
  0.403838433106482    0.37093814192125923    0.3313808606898826    0.2906877152500309    0.24745942045530997    
  0.20683708006691154    0.17590052433325495    0.1570048580312989    0.15004872759185142    0.15353589264567122    
  0.16443706652712603    0.17902576415733204    0.19257568096088126    0.20080908901650604    0.2016187732199588    
  0.1952883619044735    0.1851521862875349    0.17589898070076496    0.17163259135737682    0.1659516728147163    
  0.18515224130185706    0.21955890911663709    0.2743749481688364    0.3520969472556972    0.44486922476428953    
  0.5245292206699086    0.5486775637782432    0.502723330071388    0.4306734798608351    0.37714619022300894    
  0.33769613298971135    0.2906876922188219    0.23758221864151502    0.19204939052980924    0.16020927248587627    
  0.1418639901279701    0.13452114615037258    0.13505758099369664    0.1402844321019502    0.1470209678824925    
  0.1525974581797393    0.155367156546937    0.1552409064454201    0.15457854437094495    0.15700295631122602    
  0.1659516728147163    0.16642868872840086    0.19528811602064886    0.24240170796703664    0.31486894479343663    
  0.4175443586961962    0.5395732545596812    0.636084703867486    0.6405820675514131    0.5452766764676608    
  0.43859140938234875    0.3852258636928448    0.3649116751446064    0.33138079245968377    0.277309417536304    
  0.22324737905638495    0.18219272222295751    0.15612093510705857    0.1422195959106882    0.1367782181711292    
  0.13623115124890112    0.1375033714054736    0.1386884004413401    0.13911853255381207    0.1395441518386182    
  0.14216989454039808    0.15004781888066504    0.16642868872840086    0.17081985017634888    0.2016186719883786    
  0.25158929370625577    0.32853736911771736    0.43769021742815156    0.5665381337751596    0.665252785045357    
  0.6596623050106011    0.5479462392131392    0.4352641977541396    0.39017755222238704    0.3876430828771306    
  0.3709382256000113    0.32435051087092914    0.27018230464060117    0.22588972817025005    0.1961120128625529    
  0.17901395345044224    0.17055032063766967    0.16598035159906221    0.1615808323532385    0.15598437355962    
  0.14995326158373007    0.14575625129037384    0.14610369630601067    0.15353448649558463    0.17081985017634888    
  0.1760356274300221    0.20080842618945124    0.24327858104328393    0.3099954055892223    0.40361261739003307    