#     DFTpy    
  CRYSTAL 
    
  PRIMVEC    
  1.7280295577930862    -2.9930349910784044    0.0    
  1.7280295577930862    2.9930349910784044    0.0    
  0.0    0.0    5.842611191448276    
  PRIMCOORD    
  2    1    
  Si    1.7280295577930864    0.9976783303594682    1.4606527978620687    
  Si    1.7280295577930866    -0.9976783303594682    4.381958393586205    
  BEGIN_BLOCK_DATAGRID_3D    
  3d_datagrid_density    
  BEGIN_DATAGRID_3D#0    
  15    15    25    
  0.0    0.0    0.0    
  1.7280295577930862    -2.9930349910784044    0.0    
  1.7280295577930862    2.9930349910784044    0.0    
  0.0    0.0    5.842611191448276    
  0.031104174214982412    0.03241118453678512    0.03638523097438641    0.043016894469777994    0.051882387333173775    
  0.06158234974919215    0.06945771295826905    0.07253665400089902    0.0694577095884739    0.061582351423469184    
  0.05188239415784307    0.0430168923478654    0.036385238847097046    0.032411184583543154    0.031104174214982412    
  0.03241118531206395    0.032410857008201316    0.03506031665462784    0.040436378002050084    0.048428717853211005    
  0.058192671272689254    0.06761043287137189    0.07357912831278625    0.07358088579256374    0.067610278660323    
  0.058194150992793875    0.04842772934662929    0.040437199369712046    0.03505898791927324    0.03241118531206395    
  0.03638523317259665    0.03506031763785924    0.036383877314281596    0.040436798265350085    0.047360380183850304    
  0.05684367605578118    0.06731478958317749    0.07586535645204541    0.07922452152605153    0.07586376111317754    
  0.06731477340386025    0.056842801160845995    0.047361315508010884    0.040437193926733936    0.03638523317259665    
  0.04301688878968247    0.04043637726472262    0.040436794170311145    0.04301817039750573    0.04842793269339361    
  0.05684213597679786    0.0674188323758759    0.07769716456149192    0.08422819361860075    0.08422748938929546    
  0.07769856615320186    0.06741935066543682    0.05684281030367507    0.0484277143106284    0.04301688878968247    
  0.05188239855172108    0.04842870880822624    0.0473603744550469    0.04842792336850139    0.05188128026106897    
  0.05819366205061439    0.06731590491278437    0.07769768874458981    0.08626492137247471    0.08965967066999625    
  0.08626515364485553    0.07769858078137798    0.0673147859577766    0.058194164386621505    0.05188239855172108    
  0.06158235570141038    0.05819267055176908    0.05684367976423061    0.056842146647971055    0.05819365123778393    
  0.061582267884557305    0.06761047455739524    0.07586301800052958    0.08422857019181193    0.08965974935658287    
  0.08965966991359436    0.08422748315878058    0.07586374349705353    0.06761029421055992    0.06158235570141038    
  0.06945771181583059    0.06761044200444503    0.06731479777531363    0.0674188577202562    0.06731592363721471    
  0.06761048052700505    0.06945591230840675    0.07358045741008391    0.07922411531512506    0.0842285507465498    
  0.08626489942961275    0.08422818151187579    0.0792245029504729    0.07358091612101987    0.06945771181583059    
  0.07253664619871798    0.07357916732654755    0.07586534054755752    0.07769716144295581    0.07769768568960861    
  0.075863033501259    0.07358042901573535    0.07253762958459849    0.07358045049525316    0.07586300389205433    
  0.07769767653891448    0.07769717265030458    0.07586535846624486    0.0735791642872049    0.07253664619871798    
  0.0694577256443809    0.07358089789025474    0.07922451649852881    0.08422819828888034    0.08626491823788127    
  0.08422857130330927    0.07922412400917336    0.07358045525038573    0.06945590750456512    0.06761046318842956    
  0.06731591131714154    0.06741886509854243    0.06731479429904942    0.06761043199123343    0.0694577256443809    
  0.061582346088361675    0.06761028513038661    0.07586375665150695    0.08422750844558141    0.08965965799401009    
  0.08965977034058109    0.08422856024142382    0.07586302644716629    0.067610471471503    0.06158224475419949    
  0.058193663283809656    0.05684213166978801    0.056843669167410106    0.0581926704978967    0.061582346088361675    
  0.051882388464515185    0.05819416676701275    0.06731478649889033    0.07769855371474199    0.08626517468769519    
  0.08965966740086469    0.08626491282164737    0.07769770110974533    0.06731591307362168    0.05819365446877524    
  0.05188127318008881    0.04842792851806376    0.04736038213163053    0.04842870423604723    0.051882388464515185    
  0.043016899769891884    0.04842771593197137    0.056842809980178204    0.06741933416164228    0.0776985645005517    
  0.08422749745231288    0.08422819637356932    0.07769716627272741    0.06741884039666542    0.05684213314561617    
  0.04842793638923426    0.04301818553933736    0.04043679845360477    0.04043636770862894    0.043016899769891884    
  0.03638523752181282    0.040437188598575764    0.04736131485593816    0.05684281732837354    0.0673147878042913    
  0.07586376294426578    0.07922450136061424    0.07586535881462483    0.06731479375615633    0.056843669585310716    
  0.047360384870142797    0.04043679503288576    0.036383877033118725    0.03506031726734617    0.03638523752181282    
  0.03241118052770658    0.03505897644244449    0.04043720321038543    0.048427730176671256    0.05819416732579902    
  0.06761027896639839    0.07358089940165782    0.07357916137344546    0.0676104245418955    0.058192657653743825    
  0.0484287134733173    0.0404363770105866    0.035060301408090924    0.032410858702228235    0.03241118052770658    
  0.031104174214982412    0.03241118453678512    0.03638523097438641    0.043016894469777994    0.051882387333173775    
  0.06158234974919215    0.06945771295826905    0.07253665400089902    0.0694577095884739    0.061582351423469184    
  0.05188239415784307    0.0430168923478654    0.036385238847097046    0.032411184583543154    0.031104174214982412    
  0.032353313676952114    0.03384124141189989    0.03842356581778315    0.046214324103343106    0.056802069628465485    
  0.06850370774547629    0.07804942901640212    0.08178979463820354    0.07804871391739675    0.06850327788644266    
  0.05680422008042244    0.04621438999560886    0.038422950188495335    0.03384145512588639    0.032353313676952114    
  0.03384145516642705    0.033841660105907855    0.03607778913019432    0.04060220738724658    0.04733328201998548    
  0.055513496911153    0.0633693439826918    0.06836467507226958    0.068365211324161    0.06337035223439544    
  0.055513348130371565    0.047331645346907605    0.040602138066598355    0.03607813905211908    0.03384145516642705    
  0.03842294652431314    0.037714655960133674    0.03842280548567394    0.04060219573626206    0.04438075693098658    
  0.049581467932165585    0.05533251172522279    0.060054388107394725    0.06192277101444029    0.06005437819008037    
  0.0553318696534688    0.04958153419036213    0.044382667932468735    0.040602141953448856    0.03842294652431314    
  0.046214382560762005    0.045853181225060255    0.04585303266950303    0.04621481565511165    0.047332400408985384    
  0.04958206402493661    0.052859106480988655    0.056314925905858904    0.058578867548156645    0.058578219591587564    
  0.056314709518125734    0.05286029905534398    0.049581552430165786    0.0473316198112735    0.046214382560762005    
  0.056804227182470565    0.058340041478034524    0.05903590570942906    0.05833996442038594    0.05680232382816437    
  0.05551327439924095    0.05533205394413695    0.05631394527205208    0.05761724347448938    0.058200253747720074    
  0.057617861989797396    0.056314716676431266    0.0553318616936493    0.0555133399172795    0.056804227182470565    
  0.06850328273365117    0.07404110188894232    0.0777402213192176    0.0777393961006633    0.0740424894755922    
  0.06850343746010128    0.06336977206417291    0.06005489622680413    0.05857890638911018    0.05819967208792416    
  0.05820025208499845    0.05857821943310241    0.060054378407679944    0.06337038654278354    0.06850328273365117    
  0.07804869043860083    0.08948206778277237    0.09909961526305687    0.10291572335193293    0.09909961792278142    
  0.0894816263867921    0.07804951293634824    0.06836353378485983    0.061922615584534414    0.05857888063257706    
  0.057617234654604235    0.05857885459324584    0.06192273957292329    0.06836521616800115    0.07804869043860083    
  0.08178982413809388    0.09931056619384389    0.11682654278926133    0.1280420049452014    0.12804471322001743    
  0.11682585033593516    0.09930912062484631    0.08179162371481925    0.06836354189836519    0.0600548882040375    
  0.05631396528587443    0.056314945686646765    0.06005440061703909    0.0683646844809545    0.08178982413809388    
  0.0780494340270419    0.09930866157599677    0.12380649051493697    0.14416839218469008    0.15219093041207224    
  0.14416766679436693    0.12380800104971647    0.09930910501254728    0.07804952713744617    0.06336976419566759    
  0.05533205064144512    0.052859121823493276    0.055332495890943946    0.0633693457730269    0.0780494340270419    
  0.06850371270272976    0.08948438672818743    0.11682427770878753    0.14416976044921148    0.16173126344956887    
  0.16173322925196715    0.14416764722620265    0.11682584681109277    0.08948160461955053    0.06850341526343422    
  0.05551327207145499    0.04958207405086959    0.04958144055278545    0.055513498554096694    0.06850371270272976    
  0.05680206771517238    0.0740419998395662    0.09909860547041198    0.12804496255567716    0.15218805916639677    
  0.16173126882634115    0.15219090371665536    0.12804476040303123    0.09909960995037682    0.07404250424209002    
  0.05680231665218743    0.04733240658709139    0.044380759323260834    0.04733327086388046    0.05680206771517238    
  0.04621433711223613    0.05834130673164642    0.07773922053890324    0.10291656511413502    0.12804498144798412    
  0.14416976437110438    0.14416837022137705    0.12804202231304482    0.10291573690424587    0.07773939961326486    
  0.05833997633735811    0.0462148361567896    0.04060219518845375    0.04060220436478594    0.04621433711223613    
  0.038423568185581326    0.04585228634061187    0.059037463978792774    0.07773922817288012    0.09909860931149841    
  0.11682429961426244    0.12380650114820209    0.11682655996276331    0.09909959465402039    0.0777401779871395    
  0.059035912816874356    0.04585304045496478    0.038422807961068686    0.03607779067294915    0.038423568185581326    
  0.033841232335218484    0.037715208226226156    0.045852303235508686    0.05834131944554401    0.07404200105798973    
  0.08948436384843104    0.09930865517391485    0.09931056948230857    0.08948206783926613    0.07404110638459517    
  0.05834003896597526    0.045853173933246776    0.03771464364558234    0.033841657246704564    0.033841232335218484    
  0.032353313676952114    0.03384124141189989    0.03842356581778315    0.046214324103343106    0.056802069628465485    
  0.06850370774547629    0.07804942901640212    0.08178979463820354    0.07804871391739675    0.06850327788644266    
  0.05680422008042244    0.04621438999560886    0.038422950188495335    0.03384145512588639    0.032353313676952114    
  0.035934340708637075    0.03798780536709066    0.04443590704364824    0.05578857907337196    0.07176453269949458    
  0.0898377363203698    0.10475680881722267    0.11063143409941778    0.10475455518550247    0.08983610976503323    
  0.0717642711760676    0.05578882763689604    0.04443479647608533    0.03798706441206153    0.035934340708637075    
  0.037987057487405114    0.03798635102259531    0.04044956732050055    0.045569268734848255    0.05344222618443622    
  0.0632391866001519    0.0727064836678831    0.07870919853602576    0.07871015393890261    0.07270773541035581    
  0.06323878957633663    0.05344252248185989    0.04556937956853054    0.04045062646278896    0.037987057487405114    
  0.044434788664004236    0.044121436645189936    0.044435926572606366    0.04556917408466272    0.047900353276415474    
  0.0515202140141239    0.05581981920898303    0.05944678726910595    0.06088120832618456    0.05944731139237653    
  0.055818955717301035    0.051521047502755594    0.04789911091426296    0.04556937746321894    0.044434788664004236    
  0.05578880951293046    0.05748318717505827    0.05748382750544337    0.05578769808500183    0.053442586950402785    
  0.05151971506719309    0.05067607578675425    0.05079724778415963    0.05113171066432677    0.05112993975679854    
  0.0507976593783978    0.050675831321150354    0.05152104922363722    0.05344251607732655    0.05578880951293046    
  0.07176426965116015    0.0789269482785695    0.08181945235889075    0.07892676596376766    0.07176441649946672    
  0.06323887497907589    0.05581964513111536    0.050797148167309604    0.04811082232779298    0.04728160017951967    
  0.04811191495833173    0.050797659351575306    0.055818960368318224    0.06323878137229401    0.07176426965116015    
  0.0898361089226431    0.10693952051109848    0.11801202693954191    0.11801375038528242    0.10693866185247904    
  0.08983747474393938    0.0727069728353263    0.05944662819971188    0.05113137899195976    0.04728080676007705    
  0.0472816052806579    0.05112993280821495    0.05944730728723403    0.07270775641485508    0.0898361089226431    
  0.10475454912719386    0.13515788428620276    0.16071680522869405    0.1708295464947159    0.16071654048471704    
  0.1351570559112899    0.10475572901271352    0.07870970469326842    0.06088093283164271    0.05113136428289929    
  0.04811079959957617    0.05113170027278032    0.060881197272979935    0.07871015478867047    0.10475454912719386    
  0.11063142610184065    0.15329611215102235    0.19651892873557097    0.22407228095617587    0.22407519502243245    
  0.19652255370909855    0.15329548841932053    0.11063170122972159    0.07870971098215704    0.05944662804470765    
  0.050797160272613905    0.05079724647598635    0.05944680163110141    0.07870923158500354    0.11063142610184065    
  0.10475679601223771    0.15329361181323786    0.21053529076727115    0.25742200227246614    0.2752352314125119    
  0.2574226922652682    0.21053992845174313    0.15329549783428675    0.10475571270679783    0.07270697524004792    
  0.05581966657632386    0.05067607959605705    0.0558197877563715    0.07270648471611488    0.10475679601223771    
  0.0898377481336901    0.13515623637990604    0.19652276257313722    0.25742325951412    0.2943626723639892    
  0.29435462523035105    0.25742268659983675    0.19652259240763212    0.13515702471974836    0.0898374448982206    
  0.06323887578104459    0.05151972612546581    0.051520187097453984    0.06323918811245156    0.0898377481336901    
  0.07176453036326483    0.10693881922619601    0.16071831842735967    0.22407143090871898    0.27522847391864863    
  0.2943626765187221    0.2752351917440503    0.2240752140034501    0.160716534326056    0.1069386650167993    
  0.07176440844517322    0.05344257993414615    0.04790036228793427    0.05344220840977525    0.07176453036326483    
  0.05578858684559514    0.07892673886651157    0.11801377391845634    0.17082903599494778    0.2240714710409398    
  0.25742325058624693    0.2574219782188685    0.2240723018208389    0.17082954156855537    0.11801374391952638    
  0.07892678635875788    0.05578772442955951    0.04556917568662804    0.04556927088222008    0.05578858684559514    
  0.04443591148219278    0.05748435833182899    0.08182010801210882    0.11801377664332352    0.16071833467326876    
  0.19652280541882342    0.21053529019437725    0.19651898813002983    0.16071679358072916    0.11801199880533386    
  0.08181945976819584    0.05748383686159386    0.04443593455032426    0.04044957165902112    0.04443591148219278    
  0.03798779886005839    0.044119520767469694    0.057484375459600764    0.07892674647434375    0.10693883573141329    
  0.1351562275472544    0.1532935886750388    0.153296137243375    0.1351578622595792    0.1069395421268503    
  0.07892694836818348    0.05748317695441277    0.04412141454984311    0.03798634531009321    0.03798779886005839    
  0.035934340708637075    0.03798780536709066    0.04443590704364824    0.05578857907337196    0.07176453269949458    
  0.0898377363203698    0.10475680881722267    0.11063143409941778    0.10475455518550247    0.08983610976503323    
  0.0717642711760676    0.05578882763689604    0.04443479647608533    0.03798706441206153    0.035934340708637075    
  0.04121188863129046    0.044191138427330724    0.05372090376351646    0.07102670139913014    0.09619899625603759    
  0.12535457433758654    0.14971076147750945    0.15933914889293496    0.1497132520608719    0.12535275639848173    
  0.09619580502517704    0.07102654315332024    0.05372084315867942    0.044191191840807    0.04121188863129046    
  0.044191181486290323    0.04419145052166619    0.047435780972281356    0.05436109760625953    0.06527845099793228    
  0.07918807388511301    0.09282312729425009    0.10151121324179346    0.10151144519213252    0.09282055786006783    
  0.07918720954962867    0.06528039546876882    0.054361143758750924    0.04743663313211595    0.044191181486290323    
  0.053720822115635315    0.05362102946750112    0.053721841377511674    0.05436197246752449    0.05623470533676889    
  0.05974766484029634    0.06431814282083055    0.06829645461761197    0.06988986123868723    0.06829719719052667    
  0.06431952847575695    0.059749143022405395    0.056232335411658334    0.05436113798072767    0.053720822115635315    
  0.07102652720883705    0.07481567396323008    0.0748159636869625    0.07102355898648909    0.06527868272228975    
  0.05974965699774128    0.05591948562960155    0.05398745280000598    0.05330479183936945    0.05330405602969589    
  0.05398711442787122    0.05591831110191927    0.05974913655018023    0.06528038480058035    0.07102652720883705    
  0.09619580961259187    0.11038469019581108    0.11603562681681646    0.1103880531075883    0.0961986452745022    
  0.07918595715990756    0.06431857419269678    0.05398742234102967    0.0482659183920096    0.046471165027775985    
  0.04826710021849045    0.0539871106791782    0.06431952924404824    0.07918719735782397    0.09619580961259187    
  0.12535276382075936    0.15837488464915417    0.17967604111445157    0.1796744508972229    0.1583719535513494    
  0.12535622945087355    0.09282126633996907    0.06829600722895267    0.05330487258702755    0.046470957731626246    
  0.04647117193568329    0.053304052069970985    0.0682971884892379    0.09282057067235133    0.12535276382075936    
  0.14971325236763916    0.20699685143082935    0.2542094507977108    0.2722083824708382    0.25420679272169383    
  0.2069935905594114    0.14971479601317078    0.10151322456846125    0.06988941610049303    0.05330487025388733    
  0.04826593071845384    0.05330478918758855    0.06988985035663267    0.10151147502154048    0.14971325236763916    
  0.15933914849832578    0.23777124964532093    0.31261537858003935    0.354507628633158    0.3545137547503682    
  0.31263877404419327    0.2377718306458859    0.15933491030430857    0.10151322101863863    0.0682960184782944    
  0.05398741893001544    0.05398745672554684    0.06829645582620877    0.10151127684701529    0.15933914849832578    
  0.1497107641035011    0.2377714227132312    0.33365056708242496    0.39467911400997346    0.41105811550428645    
  0.3946749359869685    0.33366880401431026    0.2377718487301126    0.14971476451578472    0.0928212477316279    
  0.06431857518980758    0.05591950856054783    0.0643181346752254    0.09282313079932994    0.1497107641035011    
  0.12535458238918054    0.20699341254942474    0.312635854283952    0.394680316228088    0.42301076795048437    
  0.4229886692962669    0.3946749348978552    0.3126387251048276    0.20699359781003968    0.1253561721130819    
  0.07918593903125698    0.05974965326292175    0.05974764876180704    0.07918806818932084    0.12535458238918054    
  0.0961990120119444    0.15836873140504068    0.2542183807099431    0.3544883968453311    0.41104871105515023    
  0.42301077958142963    0.41105804726401013    0.35451378558326435    0.2542067515992548    0.15837193026826718    
  0.09619862929294787    0.06527867830635797    0.056234707603024334    0.06527842737826749    0.0961990120119444    
  0.07102671892133441    0.11038797262680297    0.17967692127074658    0.27221425003457256    0.3544884687977804    
  0.39468027319350324    0.39467912162343693    0.3545076268176566    0.2722083163536373    0.17967443242895714    
  0.11038806895335017    0.0710235832632701    0.05436197904109953    0.05436110740384144    0.07102671892133441    
  0.05372091276486345    0.07481545716206855    0.1160357106988871    0.1796769425360342    0.2542183864268907    
  0.3126359188355956    0.33365058845752876    0.31261542513953144    0.25420944527085765    0.17967601200526717    
  0.11603564756969303    0.07481598084765943    0.053721850799478735    0.0474357808036454    0.05372091276486345    
  0.044191138763012804    0.05362303565949095    0.07481546075046769    0.11038797834705392    0.15836874926277056    
  0.20699342239935564    0.237771393599616    0.2377712491489442    0.20699680240821167    0.158374844984737    
  0.110384688908345    0.07481567759312645    0.05362101435883737    0.044191449054790694    0.044191138763012804    
  0.04121188863129046    0.044191138427330724    0.05372090376351646    0.07102670139913014    0.09619899625603759    
  0.12535457433758654    0.14971076147750945    0.15933914889293496    0.1497132520608719    0.12535275639848173    
  0.09619580502517704    0.07102654315332024    0.05372084315867942    0.044191191840807    0.04121188863129046    
  0.046998686156939216    0.05106250462744032    0.06426660763702216    0.08889753920854136    0.1256640441470035    
  0.1688259241009719    0.20491304079250192    0.21912746351166135    0.2049545470917086    0.16882458248011065    
  0.12563021676323033    0.0889050522117549    0.06426885284642143    0.051062098756587015    0.046998686156939216    
  0.05106208679919858    0.05106206747038721    0.05535400333319321    0.0647690940114128    0.07985247756862254    
  0.09941905809699583    0.1188889214590016    0.13139451742147898    0.13139551635243896    0.11886087952800643    
  0.09941834717372085    0.07987512252088268    0.06476409407049713    0.05535308224283154    0.05106208679919858    
  0.06426884708719817    0.06429516924812961    0.06426793883160424    0.06476215516004116    0.06685879010237253    
  0.07111258419284548    0.07681568678291675    0.08190202077889654    0.08397410619216673    0.08190057473138249    
  0.07683364863197994    0.07111609606374568    0.0668375612342549    0.06476409021122713    0.06426884708719817    
  0.0889050371189393    0.09478374648481713    0.09478687171443705    0.08890296154569938    0.07985168156253221    
  0.0711205430279031    0.06482276016820467    0.0612796395769853    0.05991297626955154    0.05991210220810144    
  0.06128250990556317    0.06480704118059724    0.07111612270645114    0.07987509923986584    0.0889050371189393    
  0.12563022880883706    0.14758511611669067    0.15625905503968887    0.14759083367702366    0.12566371181656094    
  0.09941036558342502    0.07681726237120115    0.0612870278278829    0.05276117803990294    0.050135576236722004    
  0.05276248648118066    0.061282512036435824    0.07683363082147888    0.09941837338178658    0.12563022880883706    
  0.1688246193799819    0.21944516560265617    0.25132113691679553    0.25130406928000154    0.21940226430067858    
  0.16883789927313034    0.11888397167158236    0.08189192232695332    0.059913917256850385    0.050134744857933705    
  0.05013556775834281    0.05991211379990876    0.0819005674658466    0.11886092128186344    0.1688246193799819    
  0.20495452642601075    0.2894513313920379    0.35167497768389155    0.37231952791527023    0.35173050772125325    
  0.28943292419948036    0.2049251393053222    0.13141012779727584    0.08397244594908132    0.059913904073714136    
  0.05276117176811001    0.05991296955274594    0.08397409494556472    0.13139552332007354    0.20495452642601075    
  0.21912748719220027    0.3302448872145319    0.40972194958749747    0.4302866463586847    0.4302521912432231    
  0.4097617317524178    0.3303077142903445    0.21909079896866746    0.13141014584850833    0.08189191183942368    
  0.06128704383019574    0.061279633301249296    0.08190203084590836    0.13139454309728144    0.21912748719220027    
  0.20491302185324112    0.33030755874764617    0.4226480047968473    0.4169236661519367    0.3914394708604309    
  0.41691266638256264    0.4226653738035944    0.33030773473357755    0.2049251565236252    0.11888400593211683    
  0.07681726050265224    0.06482278682729897    0.07681566169940506    0.1188889113431451    0.20491302185324112    
  0.1688259223080432    0.2894373934827492    0.4097685648940879    0.4169074329932019    0.35085225010976795    
  0.35088762483317393    0.4169126521392545    0.4097617218790902    0.28943289200148564    0.16883784684054082    
  0.09941037489296478    0.07112056595643967    0.07111255895914699    0.09941905021090244    0.1688259223080432    
  0.12566403762674708    0.21940280958904532    0.3517476294774096    0.43015705850085834    0.3915234423836367    
  0.35085225511547835    0.3914393967368652    0.4302522375688074    0.35173046206271447    0.2194022683340224    
  0.12566369738745747    0.07985168717139275    0.06685879959701291    0.07985245907681873    0.12566403762674708    
  0.08889754869675312    0.14759944180506235    0.251301163859007    0.3723905421055592    0.4301571168130853    
  0.41690742261409025    0.4169236067785926    0.43028668013125304    0.3723195279942495    0.25130411326018015    
  0.14759082668478696    0.08890297512567093    0.0647621573248489    0.06476910017659494    0.08889754869675312    
  0.06426661580634523    0.09478794761523456    0.15625548344560516    0.25130117986348877    0.3517476087821655    
  0.4097686079134245    0.4226480190492606    0.40972200903912415    0.3516749389226914    0.2513210392802632    
  0.15625905572148954    0.09478688729760364    0.06426795062280481    0.05535401500700999    0.06426661580634523    
  0.05106250093550759    0.06429642480598563    0.09478796587443768    0.14759944891425014    0.2194028239231044    
  0.28943736853036683    0.3303074896430864    0.3302448685198498    0.28945131603361524    0.21944516906692746    
  0.14758510137874606    0.09478374621519868    0.06429515565839494    0.05106206891266811    0.05106250093550759    
  0.046998686156939216    0.05106250462744032    0.06426660763702216    0.08889753920854136    0.1256640441470035    
  0.1688259241009719    0.20491304079250192    0.21912746351166135    0.2049545470917086    0.16882458248011065    
  0.12563021676323033    0.0889050522117549    0.06426885284642143    0.051062098756587015    0.046998686156939216    
  0.05153931518840546    0.056506920183313915    0.072814704740758    0.1037446553633156    0.15067827450968313    
  0.2058148485097321    0.25117267985399366    0.2687182023784461    0.25130980126368596    0.20581853599767255    
  0.15056824410509287    0.10376599434649393    0.07282572673099418    0.0565065801338278    0.05153931518840546    
  0.05650656481497456    0.05650898447238552    0.061774326344233355    0.07342267350536766    0.0921924208605712    
  0.11695628557884902    0.14181681919648695    0.15762524403000336    0.15762896893151396    0.14172676223026248    
  0.11695358359575678    0.09227070705995759    0.0734074476552651    0.061766371384581596    0.05650656481497456    
  0.07282570622050362    0.07286978159034939    0.07281415871046967    0.0733984282202233    0.0759742481451274    
  0.08108477734212373    0.08805559213448588    0.09437372722512853    0.09691612354709336    0.09436604539187726    
  0.08811802583126126    0.08109042856915596    0.07590332722216858    0.07340745369116064    0.07282570622050362    
  0.10376595908798042    0.11121777746382319    0.1112335260729266    0.10377244659273815    0.0921901299266461    
  0.08109890300320878    0.07305710760145197    0.06842264251371902    0.0666254376110853    0.0666269418041416    
  0.06843178009516866    0.07300276354414656    0.08109043730678955    0.09227067829989198    0.10376595908798042    
  0.150568239477698    0.17864106996861698    0.1896416403030775    0.17863871454223496    0.1506792447284469    
  0.11693896057410139    0.08805871294281968    0.06844447948490011    0.057733943825913625    0.054444353802627875    
  0.05773344988308951    0.06843178159092833    0.08811803064660807    0.11695357430128821    0.150568239477698    
  0.20581851523256522    0.2690754510275351    0.30711454640407215    0.3070819585655925    0.2689246879578468    
  0.20584270742499447    0.1418078782154104    0.09434523304736052    0.06662765874238157    0.05444251832088341    
  0.054444353623900175    0.0666269526345848    0.09436606122660274    0.14172679259080861    0.20581851523256522    
  0.25130974939822415    0.35032550646185073    0.4080495959946576    0.42117933095578275    0.4082549304383308    
  0.3502922733923372    0.25119659837018665    0.15766581201369625    0.09691452464594068    0.06662764002871648    
  0.05773392772745829    0.06662543485828508    0.09691608156144578    0.15762896170459081    0.25130974939822415    
  0.268718201304673    0.39069197162892366    0.4294585153164472    0.39390387485316114    0.39377470632429457    
  0.42947760709151167    0.3909075631952833    0.2686116709720542    0.15766584534207131    0.09434523415866373    
  0.06844448656105039    0.06842263164414036    0.09437374957862076    0.15762527788910413    0.268718201304673    