#     DFTpy    
  CRYSTAL 
    
  PRIMVEC    
  6.317690336139758    5.039114410206897e-07    8.319136193103448e-07    
  5.039115607448276e-07    6.3176925026147055    8.410121871586207e-07    
  8.319137257103449e-07    8.410122064689656e-07    6.317692064711911    
  PRIMCOORD    
  16    1    
  Si    0.9322400653901792    5.385451432830522    2.2266062823311565    
  Si    5.385450713958749    0.9322420711407107    4.0910848765441665    
  Si    0.9322410150835058    0.932241248379825    0.9322415764684215    
  Si    2.226609552606211    2.226610477270245    2.2266102446367575    
  Si    5.385449181979914    2.226606437702796    0.9322405314045149    
  Si    0.932239857053022    4.0910884265579055    5.385451383559961    
  Si    2.2266056040073754    0.9322422622714216    5.385451891944662    
  Si    4.091084646672489    5.385452893419642    0.9322406073105485    
  Si    4.091084327474797    2.2266108490746896    5.385454834486839    
  Si    2.2266072513570614    4.091082877232742    0.9322375419862253    
  Si    4.091082232177818    4.091086019837214    4.091084790014496    
  Si    5.385450892897202    5.3854538694221015    5.385452690325164    
  Si    2.2266098002700407    5.385456729098582    4.091085013191535    
  Si    4.091081297184978    0.9322371958823364    2.2266081004687788    
  Si    5.385453151531268    4.09108544215374    2.226610394393189    
  Si    0.9322374683850785    2.226608865723504    4.091082824343251    
  BEGIN_BLOCK_DATAGRID_3D    
  3d_datagrid_density    
  BEGIN_DATAGRID_3D#0    
  27    27    27    
  0.0    0.0    0.0    
  6.317690336139758    5.039114410206897e-07    8.319136193103448e-07    
  5.039115607448276e-07    6.3176925026147055    8.410121871586207e-07    
  8.319137257103449e-07    8.410122064689656e-07    6.317692064711911    
  0.13288575276489312    0.13633841815424372    0.14634164944456293    0.16083095833689623    0.1768818890868055    
  0.19117708810050232    0.19941024448948252    0.19941008925570552    0.19117744790181307    0.17688190026877185    
  0.16083147741792317    0.14634186957035503    0.13633905224208978    0.13288606235200012    0.13633921510290814    
  0.14634226227978714    0.1608320159489699    0.17688254586078367    0.19117804503393176    0.19941074965515637    
  0.19941079800363057    0.19117764137036453    0.17688226642077798    0.16083132974487777    0.14634188262643805    
  0.13633853166427182    0.13288575276489312    0.13633841009141023    0.1559863959673302    0.18398605496339612    
  0.21831667493086823    0.25555130902055023    0.28924090952418147    0.30934898490575186    0.30934935321998885    
  0.28924096441522007    0.25555196609078873    0.21831692396561558    0.18398674863100054    0.15598668828783363    
  0.13633901599934617    0.12500583820101077    0.1207804362540207    0.12152865281423952    0.12477923574885012    
  0.12850869291872466    0.13089498013402842    0.13089483676217145    0.1285086944503847    0.12477894775237895    
  0.12152853386334463    0.12077998168246204    0.12500559644957043    0.13633841009141023    0.14634166061427395    
  0.18067942564089415    0.22604336767281427    0.2812290404307761    0.34423534082019436    0.40523788141210904    
  0.4442580532397251    0.4442578028103166    0.40523855552610305    0.3442355198995597    0.28122983754135944    
  0.2260436695053829    0.18068014673180288    0.1463418916185012    0.12313189831612861    0.10913777812440874    
  0.10193621610852972    0.09900154437712021    0.09818152861216463    0.09818891780110461    0.09818906592115893    
  0.09818138646913005    0.09900163075337058    0.10193597008623355    0.10913778803427221    0.12313145366953039    
  0.14634166061427395    0.160830979073728    0.20431604453402616    0.26009316706872493    0.32804367660386363    
  0.410008365393275    0.49573909450352555    0.5539583696046656    0.5539589453516838    0.4957391502748788    
  0.41000923826403424    0.3280439358837147    0.26009398012432555    0.20431628364279172    0.16083152425049263    
  0.13051892324003317    0.11136869798445109    0.10057247016167567    0.09539405338215491    0.0932855751246963    
  0.09269875353542703    0.09269863285055467    0.09328573430024863    0.09539396797481912    0.10057263944464774    
  0.11136846334660366    0.13051892287512087    0.160830979073728    0.1768818693960001    0.22044645977510416    
  0.2758471001431482    0.34338399436567313    0.4270883791667641    0.5182241729280966    0.5814377267722388    
  0.5814374590005251    0.5182248951204558    0.42708836220552815    0.34338489305047254    0.27584732994918065    
  0.22044724219394846    0.17688198506087754    0.14637513380940045    0.12737726727590018    0.11717034379674807    
  0.11302756426176298    0.11217080948820374    0.11246452690333643    0.11246471686726828    0.11217073301102916    
  0.11302782832993638    0.11717025891115633    0.12737742769712632    0.14637481724884627    0.1768818693960001    
  0.19117710613962988    0.22450759939694187    0.2682431847186993    0.3226464043017876    0.38989456297372466    
  0.4620120892123489    0.5109438991528193    0.5109443379082382    0.46201198571625895    0.3898953376696251    
  0.3226465136103235    0.268244060406935    0.22450785883726185    0.19117768885299355    0.16885560736082103    
  0.1567027468082419    0.15291382665405362    0.15507566416110663    0.15978503445345174    0.16351484948384035    
  0.1635146933514272    0.15978527829140812    0.1550756093102126    0.1529140564842253    0.15670249532920483    
  0.16885558610010898    0.19117710613962988    0.19941034458443474    0.2144657137017801    0.2385454345091171    
  0.27125813876566834    0.3120632000277749    0.3543110922507655    0.3820333686215913    0.3820330575997061    
  0.35431168203732183    0.31206316827552105    0.2712589461253812    0.2385456815976064    0.21446652963418478    
  0.19941057855691452    0.19363507906783667    0.19667014981853398    0.20754657925487713    0.22442085551959254    
  0.2425523449418058    0.2545471827823617    0.25454730130182446    0.2425521925962684    0.22442096555127675    
  0.20754625645298314    0.1966701526544179    0.19363444209897812    0.19941034458443474    0.1994101656468351    
  0.19363469572004557    0.19666992501571054    0.20754657704677704    0.22442099770706028    0.24255288259539928    
  0.2545476587244304    0.2545480221187616    0.2425526818343493    0.22442153405116747    0.2075467250237291    
  0.19667075912093107    0.19363517559547744    0.19941112407698733    0.2144665853302726    0.23854620934962617    
  0.2712588010527435    0.31206351965349877    0.35431117679629953    0.3820331472126184    0.382032640136397    
  0.3543111323226452    0.3120627011254323    0.2712584468957314    0.23854524671697586    0.21446607658438674    
  0.1994101656468351    0.19117756555800536    0.16885552609290236    0.15670280902515077    0.15291397543847352    
  0.15507602960604036    0.15978537274015142    0.16351535097917913    0.16351514056463967    0.15978577182200507    
  0.1550760039721737    0.15291460111921198    0.15670317319475938    0.16885653556564612    0.19117827852161498    
  0.22450901949223115    0.26824470258182775    0.3226477627472546    0.38989590031311105    0.4620131571426356    
  0.5109447483059357    0.5109445552705721    0.46201192199200164    0.3898949871161264    0.32264632691229594    
  0.26824385181032484    0.22450767069036034    0.19117756555800536    0.1768820069327376    0.1463751880691708    
  0.12737733148392907    0.11717050692131363    0.11302775025264408    0.11217109684733305    0.11246480324925738    
  0.11246507872276057    0.11217104730531824    0.1130282485320399    0.11717075513379178    0.12737820743448885    
  0.1463758901760188    0.17688341798636228    0.22044839402767308    0.27584922473405943    0.34338621586697615    
  0.4270906262494082    0.5182266565003684    0.581439988404365    0.5814391486296967    0.5182255635138836    
  0.42708872377872864    0.34338485509313066    0.27584739750015214    0.22044719399373439    0.1768820069327376    
  0.16083154805165595    0.13051895126261712    0.1113687203279445    0.10057251232336277    0.09539418994888699    
  0.09328564737261213    0.09269899739189598    0.09269886416756536    0.09328609007095996    0.09539434910589538    
  0.10057327192806734    0.11136933122700932    0.13052020436863895    0.16083275383487378    0.2043183014892009    
  0.2600958497578916    0.3280464930097792    0.4100116643242145    0.4957426319198667    0.5539619159979673    
  0.5539615092074806    0.4957407510955962    0.41001002766465766    0.32804431268696566    0.26009415975393146    
  0.20431641337625558    0.16083154805165595    0.14634186468016386    0.12313184265339026    0.10913765040818547    
  0.10193612954636451    0.09900146406516241    0.09818157789733004    0.09818900219491325    0.09818935334490442    
  0.09818179082729137    0.09900224996661869    0.10193677882577369    0.10913888797828357    0.12313292631892696    
  0.1463435857483619    0.1806818497408431    0.22604617933911228    0.28123221239995366    0.3442387689841728    
  0.4052416656055353    0.4442614992804643    0.4442606819612388    0.405240453302894    0.34423664601034015    
  0.2812304273214812    0.2260440039786046    0.1806802743234072    0.14634186468016386    0.1363389495753677    
  0.12500564840912753    0.12078017955455506    0.1215284030709865    0.12477904244607546    0.12850855404408726    
  0.1308951469777735    0.13089518157299318    0.12850947392896916    0.1247798406207319    0.12152980516864424    
  0.12078138059926573    0.1250073218453107    0.13634037959570108    0.1559886337487839    0.18398864796765943    
  0.21831941294523916    0.2555543599683769    0.28924387829449677    0.3093517733254528    0.3093514996636943    
  0.28924250707840465    0.25555290255614915    0.21831746686057377    0.1839870444129427    0.155986759051082    
  0.1363389495753677    0.1328859155672578    0.13633892091754776    0.14634178740686976    0.16083149182372375    
  0.17688206736246478    0.19117787613664253    0.19941084253912753    0.19941150807925878    0.1911787243710679    
  0.17688390137299376    0.16083311527352415    0.1463438253270909    0.1363405337870662    0.13288771788997034    
  0.1363404338619787    0.14634366805777205    0.1608330567055326    0.1768838703849411    0.19117901462756645    
  0.1994118961475155    0.19941148631440542    0.19117843794283249    0.17688260393470998    0.16083183570415432    
  0.14634206762338597    0.13633901969300055    0.1328859155672578    0.1363389662951999    0.15598666339827413    
  0.1839867402165307    0.21831695653987618    0.25555211703593345    0.28924149744792516    0.30935053861387896    
  0.30935088181418813    0.2892434202038044    0.25555411000835    0.21831959155348546    0.18398882462055152    
  0.1559888032580135    0.13634048060746554    0.1250072905556539    0.12078137081894036    0.12152971424294251    
  0.12477989905132687    0.1285094886102454    0.13089545174855022    0.1308953894512529    0.12850894086381753    
  0.12477932670336864    0.12152865564788538    0.12078034796505177    0.12500576410780828    0.1363389662951999    
  0.14634195260170046    0.1806801570006868    0.22604372713268017    0.28122986442102604    0.3442356534517362    
  0.405239121585554    0.44425912509579957    0.4442601096167102    0.4052407426965507    0.34423843429814993    
  0.2812322541027145    0.22604647202388026    0.18068213122004906    0.14634374528739436    0.12313300403556766    
  0.1091388471010538    0.10193678012984804    0.09900218584108084    0.09818187463858387    0.09818932765693672    
  0.0981891788434128    0.09818165767131484    0.09900164659859668    0.10193621553634954    0.10913784963183895    
  0.12313193486646191    0.14634195260170046    0.16083159750415138    0.20431644810014277    0.2600938977797214    
  0.3280438748399539    0.4100090727194655    0.49573930730195465    0.55395960513034    0.553960017075092    
  0.49574124587854196    0.41001096211446064    0.32804648005772274    0.2600961376221435    0.20431865986620265    
  0.16083305395760503    0.13052030020904137    0.11136946217217951    0.10057322841060497    0.0953944071909254    
  0.09328598817867326    0.09269888599946809    0.09269889341910789    0.09328573810727131    0.09539415466046784    
  0.10057262237136115    0.11136879073319507    0.13051907779122704    0.16083159750415138    0.17688217988381835    
  0.22044718951086786    0.2758472712057261    0.34338439594782644    0.427087981689725    0.518224222154269    
  0.5814372543519951    0.5814381111159408    0.5182253615106291    0.42708984454799187    0.3433862317354355    
  0.2758494952178728    0.2204489154573498    0.17688375216641022    0.14637616118590446    0.12737825590640642    
  0.11717081044161416    0.11302811984318627    0.11217102550307448    0.11246487865278049    0.11246474128723331    
  0.11217092233531245    0.11302774911366631    0.11717045468601517    0.12737747697039564    0.1463752487580687    
  0.17688217988381835    0.19117768170219915    0.2245078500535734    0.2682437090134885    0.3226460382742889    
  0.38989436742612976    0.46201097915655515    0.5109431735792821    0.5109433524885232    0.4620121889490997    
  0.3898955262471566    0.3226477827644929    0.2682451264121787    0.22450949706785056    0.19117878070795025    
  0.16885680605973286    0.15670339143997894    0.15291458373068403    0.15507600286424855    0.15978548417711524    
  0.16351497611257498    0.163514929526475    0.15978518579360096    0.15507577739992204    0.15291398201251902    
  0.1567027556525361    0.16885571264977986    0.19117768170219915    0.19941044562976448    0.2144662067001993    
  0.23854536564890547    0.2712582483513029    0.3120623366356492    0.354310370712175    0.3820318356858151    
  0.3820322640531301    0.3543107546215693    0.31206335891231246    0.27125907133260857    0.23854661479655384    
  0.21446719873922673    0.19941160096306512    0.1936356902974161    0.1966709352848634    0.20754696502261027    
  0.2244214310674871    0.24255254300328155    0.2545475311951721    0.2545473262621743    0.2425522709982649    
  0.22442075042533904    0.2075463761442298    0.19667000628685985    0.19363480988170217    0.19941044562976448    
  0.19941053872493336    0.19363471927224102    0.1966702098777667    0.2075462613156466    0.22442077245674402    
  0.2425518529251623    0.2545469914686332    0.2545468691237652    0.2425522365681472    0.22442095107307827    
  0.20754684237385573    0.19667071166298294    0.1936356171261701    0.19941127870675224    0.21446711953317743    
  0.2385462023274596    0.2712591954189555    0.31206339432330554    0.3543113569167782    0.38203284298641027    
  0.3820326328214696    0.35431073262382123    0.3120626740378232    0.27125812980352376    0.2385453894473685    
  0.2144660111185154    0.19941053872493336    0.19117743519646238    0.16885578886236965    0.15670264424443692    
  0.15291407040567906    0.1550756078349355    0.15978513202715827    0.16351455688803077    0.1635147336312567    
  0.15978499602258417    0.15507574477929467    0.15291408662582548    0.15670309840895522    0.16885616500810083    
  0.1911782752118085    0.22450859285455216    0.26824462153513273    0.32264719286878013    0.38989561342889745    
  0.4620122678738874    0.510944155341441    0.510943634916138    0.4620115709907518    0.38989444021744774    
  0.322646219942998    0.2682434497046778    0.22450778171633695    0.19117743519646238    0.17688210959312997    
  0.14637503740319877    0.12737751725618304    0.11717029220971784    0.11302777558717232    0.11217072353635832    
  0.11246461618611153    0.11246449812357186    0.11217081392130299    0.11302762917419878    0.11717049524144342    
  0.12737757403771063    0.1463755433051141    0.17688264305031204    0.2204478968328041    0.2758481989115723    
  0.3433854563897639    0.4270892358272098    0.5182254187520898    0.5814380973424185    0.5814378420180859    
  0.5182243037978539    0.4270881819091834    0.3433841818737192    0.27584726763542977    0.22044682030749482    
  0.17688210959312997    0.16083123632177612    0.13051902549809652    0.11136855741609586    0.10057262698145765    
  0.09539394620666426    0.09328567042013636    0.0926986012147625    0.09269867099883149    0.09328548774729309    
  0.09539404441143158    0.10057254342937742    0.11136885090292784    0.13051929344819463    0.16083203141896912    
  0.20431703107115018    0.26009476936720516    0.3280449240058201    0.41001013693246147    0.4957402240467186    
  0.5539598027856348    0.553959277158151    0.4957394677187751    0.41000885168855306    0.3280439038100371    
  0.2600935442049722    0.2043163123931594    0.16083123632177612    0.14634180776821928    0.1231315582669253    
  0.10913771467644917    0.10193591825512659    0.09900152039424036    0.09818124126967369    0.09818887402709418    
  0.0981887424486578    0.09818138240697807    0.09900139340077282    0.10193613307890298    0.10913781539159616    
  0.12313208507759574    0.1463422653831933    0.18068069979141277    0.22604451687819613    0.28123075103030165    
  0.3442366928419499    0.40523970615329896    0.4442590816525564    0.44425890712479105    0.40523873065362936    
  0.3442358336248347    0.28122952715074145    0.22604370940891488    0.18067975160127758    0.14634180776821928    
  0.13633852205250951    0.12500557051469718    0.12077984701641295    0.12152837729600247    0.1247786572148672    
  0.1285084480337186    0.13089445781711578    0.1308946531528198    0.12850834766768393    0.12477894016881509    
  0.12152840254885507    0.12078026425004641    0.12500583274092034    0.1363392207768724    0.15598713255881222    
  0.18398735659193213    0.21831772454459655    0.2555528327930543    0.28924198064496776    0.3093503179521636    
  0.30934992667405586    0.28924158917296466    0.2555519499966565    0.21831709199257973    0.18398647573606813    
  0.15598657012668865    0.13633852205250951    0.13288575276489312    0.13633841815424372    0.14634164944456293    
  0.16083095833689623    0.1768818890868055    0.19117708810050232    0.19941024448948252    0.19941008925570552    
  0.19117744790181307    0.17688190026877185    0.16083147741792317    0.14634186957035503    0.13633905224208978    
  0.13288606235200012    0.13633921510290814    0.14634226227978714    0.1608320159489699    0.17688254586078367    
  0.19117804503393176    0.19941074965515637    0.19941079800363057    0.19117764137036453    0.17688226642077798    
  0.16083132974487777    0.14634188262643805    0.13633853166427182    0.13288575276489312    0.13633847522514514    
  0.15598636971077043    0.18067949081490411    0.20431601313081996    0.22044660436757632    0.22450757746932648    
  0.21446578663327773    0.1936346611855826    0.1688555721510836    0.14637517122578067    0.130519055202116    
  0.12313190542234183    0.12500593931858223    0.13633917746936008    0.1559871382102851    0.18068060891523302    
  0.20431696240826755    0.22044760338071467    0.22450818486291188    0.21446640292269079    0.19363491276344938    
  0.16885584110669616    0.14637513160672613    0.13051900899367241    0.12313162891023824    0.12500552768722387    
  0.13633847522514514    0.1559863654580764    0.1943895477690359    0.23882918218443652    0.2809711562774561    
  0.3150991087668599    0.3343807035997804    0.32784244322327966    0.29491137991310235    0.2486123939365584    
  0.2031374882557325    0.16680587842194045    0.14215612596903374    0.12875550616303932    0.12500590465638584    
  0.12875564793791605    0.13693270303740357    0.1454657914532002    0.15025579654689744    0.14891962083445534    
  0.14151512334814922    0.13030180971136265    0.11883571139188967    0.11043091771023991    0.10791332299717823    
  0.11334385676350779    0.1287550126356387    0.1559863654580764    0.18398611413090268    0.23882918887056542    
  0.29540296580088476    0.34457934972951937    0.39409807163924093    0.44268187790015984    0.4577113733294802    
  0.41831842683011883    0.34566394514045573    0.2704651696242867    0.2088996801277446    0.16505903635261832    
  0.1369324856047855    0.12078032280790417    0.11334399334775279    0.11135897359614484    0.11177864551617286    
  0.11185400590891677    0.10984772287752469    0.10575173767874291    0.10063178144001891    0.09657017703173405    
  0.095860103293094    0.1011307484878637    0.11546613936555478    0.14215586419445334    0.18398611413090268    
  0.21831666649798162    0.280971166526266    0.3339608347265515    0.37022795794352487    0.4218073764213912    
  0.5019479558228263    0.5526764740451815    0.5181490773328249    0.4252596145614962    0.3249237625457908    
  0.24257074529215295    0.18390820358311058    0.14546558048103303    0.12152852523575858    0.10791350254449628    
  0.1013515665141982    0.09908829302782442    0.09877666120096294    0.09874044841204799    0.0983785010301541    
  0.09784199245166816    0.09843814060778387    0.10217098661007915    0.11211268744688391    0.13233280153159319    
  0.1668053691433514    0.21831666649798162    0.25555135715635857    0.31509907693458655    0.35715255867748985    
  0.37861096636415853    0.4232680342017472    0.5107515498193053    0.5747721821020608    0.545063765812187    
  0.44801540647381244    0.3411614954805521    0.25358944203136174    0.19121913578859756    0.15025556587914385    
  0.12477904448797197    0.110430797707945    0.10419972758616919    0.10364635861721025    0.10671461969600532    
  0.11158379463705731    0.11675616052031802    0.12121753597390642    0.1256283671148222    0.1321244619681876    
  0.1443219010119541    0.1667148252448006    0.20313726066783253    0.25555135715635857    0.289240855175981    
  0.3343805907455378    0.3665412334122853    0.384117893998422    0.4185726317955898    0.48061123763324926    
  0.5183292963792581    0.48473098452899943    0.40110014045316444    0.3104058429242776    0.2362275974796581    
  0.183376979476822    0.14891956244822943    0.12850857259130286    0.11883580479549793    0.11770565316506451    
  0.12366014554947719    0.13524196579378214    0.15023108322247508    0.16554542779204645    0.177681423792574    
  0.18575068492118296    0.19228060756388568    0.2020417547726563    0.21982767971928194    0.2486118908007999    
  0.289240855175981    0.3093490660948059    0.3278423442359837    0.3437350089881837    0.35537274092223065    
  0.3737804811799909    0.3984101261332905    0.4027474121204319    0.36925175514666764    0.31065374984328453    
  0.24934069849692955    0.19905734584857715    0.1635226425758811    0.14151512992028673    0.13089498092322235    
  0.13030181859751103    0.1390835517829943    0.1573509946960973    0.18470268228961323    0.21824569181210682    
  0.25147508244860795    0.2750171494692642    0.28378371282317477    0.2827348510029671    0.2819464499163732    
  0.286078834208389    0.2949113477634504    0.3093490660948059    0.30934934708640943    0.29491124201039093    
  0.28607910450143287    0.2819463949489891    0.28273530975577527    0.28378377724109943    0.275017646577419    
  0.25147506726110125    0.2182459398961901    0.1847025290952001    0.1573510915971378    0.13908344588812324    
  0.1303020280276858    0.1308950322202494    0.14151551190705527    0.1635228393262762    0.1990578800168384    
  0.24934097501405572    0.31065419795705823    0.36925180549682124    0.40274757811944073    0.39840973091016585    
  0.3737803866256639    0.35537242880012476    0.3437352113277502    0.3278422590158034    0.30934934708640943    
  0.28924096995403964    0.24861231217656712    0.2198276928438723    0.20204210607604525    0.19228064691267938    
  0.1857510788027726    0.1776815571208398    0.16554582320871025    0.15023112619684315    0.13524230113128277    
  0.12366019747076758    0.11770602047766628    0.11883602177285131    0.1285091204035473    0.14892003820353394    
  0.1833778252220109    0.2362284535774896    0.31040718091825237    0.40110112712331686    0.48473230318414556    
  0.5183295403118747    0.48061126047570424    0.4185719940487586    0.384117885614911    0.3665412331343274    
  0.33438114065054825    0.28924096995403964    0.2555519573520908    0.20313741314704123    0.166715130045654    
  0.14432188949941996    0.13212473078925302    0.1256284128965328    0.12121785198081474    0.11675627470468741    
  0.11158416925733547    0.10671480747883316    0.10364679976535447    0.10420002605685269    0.11043143284585981    
  0.12477961810544634    0.15025657117354965    0.19122025346960914    0.2535910676182802    0.34116330465590466    
  0.4480178109978215    0.5450657480802117    0.5747738541359254    0.510751478133361    0.4232677287575985    
  0.37861049627346627    0.3571530930575598    0.3150994094813694    0.2555519573520908    0.2183169654720926    
  0.16680578894790088    0.1323328364263757    0.11211289788575918    0.10217096986207691    0.09843832930797827    
  0.09784209510238526    0.09837887784928871    0.0987406803717255    0.09877718112694958    0.09908867340819612    
  0.10135223627047803    0.10791413857741816    0.12152955390404743    0.14546664150770572    0.18390984959329906    
  0.24257250520380874    0.3249263396744779    0.425262265669919    0.5181522929513315    0.5526785009143711    
  0.5019490381538481    0.42180729758558894    0.3702282261900967    0.3339611403112193    0.280971964410558    
  0.2183169654720926    0.18398669782488755    0.1421560127987522    0.11546633082231608    0.1011307453496824    
  0.09586025930579412    0.09657020984338076    0.10063208414638791    0.10575201501751541    0.109848351294202    
  0.11185450882563917    0.11177947169622557    0.11135973927839025    0.11334505412706296    0.12078129082321663    
  0.13693383357004835    0.16506051796105864    0.20890171118939208    0.27046745644909076    0.3456668637448003    
  0.41832117174710154    0.457714070333501    0.44268341300855424    0.39409915442870985    0.3445799705597828    
  0.2954039117409375    0.23882977042519044    0.18398669782488755    0.15598665694864083    0.12875536972328191    
  0.11334387263715162    0.10791352971693619    0.11043089656432968    0.11883600370284375    0.13030204925134    
  0.1415158375308331    0.1489204016833587    0.1502569529326559    0.14546689773574234    0.13693400243371925    
  0.12875677616534628    0.12500724488937395    0.1287567229649898    0.1421576605228587    0.16680734878425318    
  0.2031394910910061    0.24861437812992027    0.29491374985433305    0.3278443462548037    0.3343825269721332    
  0.315100294832603    0.28097225988411545    0.23882989008822772    0.1943902746114002    0.15598665694864083    
  0.13633888950965448    0.12500573740332557    0.12313182122172438    0.13051904511217535    0.14637536163770123    
  0.16885603487412426    0.19363556375094476    0.21446723196450762    0.22450968382215578    0.22044911249499768    
  0.20431881374093913    0.1806822016073244    0.15598882796786062    0.13634052438761415    0.12500724469158345    
  0.12313306438266827    0.1305203310851291    0.14637637113350618    0.16885696069140618    0.19363594192866132    
  0.21446714509229967    0.22450861132024244    0.2204475856650262    0.2043166188902473    0.18068019990719947    
  0.1559867372424661    0.13633888950965448    0.12500572913680705    0.12875538100710812    0.14215606694353503    
  0.1668058449785251    0.203137609173405    0.2486128883035005    0.29491258299760353    0.32784438139172717    
  0.33438332209893595    0.3151020974910016    0.28097445790509756    0.23883263400816207    0.19439260211101814    
  0.15598873229278284    0.1287567884558753    0.11334509352866251    0.10791432734437613    0.1104316614565518    
  0.11883639647365937    0.13030229805857368    0.14151551131509077    0.14891978759148283    0.15025580431670021    
  0.14546562264431667    0.1369324699711677    0.12875537320227132    0.12500572913680705    0.12078016237474289    
  0.13693241349894947    0.1650589258364064    0.20889964653903076    0.27046515809999094    0.34566430559941974    
  0.4183193987551165    0.45771297491654656    0.4426835753230413    0.39409962730793757    0.34458153689174825    
  0.2954061826655117    0.23883253155998457    0.1839888034068984    0.14215762115359176    0.11546728746182053    
  0.10113144992107045    0.09586061730047768    0.09657052959646661    0.10063205589468863    0.1057518772184854    
  0.10984783105827262    0.11185392833209182    0.11177855299544831    0.11135884529851937    0.11334391562793063    
  0.12078016237474289    0.12152852308669101    0.14546553675307813    0.18390813029621042    0.24257045887707898    
  0.32492345271991413    0.4252592737101881    0.5181492947486028    0.5526768966464447    0.5019478183632545    
  0.4218066062918501    0.37022821892080365    0.3339629627511437    0.28097435427872136    0.21831933295690956    
  0.16680725032331428    0.13233390141913484    0.11211338695877472    0.10217133282533764    0.09843836902011331    
  0.09784211070114428    0.09837861155449612    0.09874041830579995    0.09877667309176758    0.09908822550313512    
  0.1013515423993326    0.10791344203236009    0.12152852308669101    0.1247789953605652    0.150255527131659    
  0.19121891944645178    0.25358901665808586    0.341160771087824    0.44801449239047997    0.5450628544501531    
  0.5747717056164043    0.510750524165704    0.42326667686091046    0.37861046676631566    0.35715416820723833    
  0.31510192703577394    0.25555405519916796    0.20313911728684766    0.1667160282880327    0.1443225331133455    
  0.13212482235123676    0.12562851367777775    0.12121765659964596    0.11675612293576865    0.1115838046901638    