#     DFTpy    
  CRYSTAL 
    
  PRIMVEC    
  1.5350049795289646    -2.658706614415391    0.0    
  1.5350049795289646    2.658706614415391    0.0    
  0.0    0.0    5.189979090275862    
  PRIMCOORD    
  2    1    
  Si    1.5350049795289646    0.8862355381384637    1.2974947725689654    
  Si    1.5350049795289649    -0.8862355381384637    3.8924843177068955    
  BEGIN_BLOCK_DATAGRID_3D    
  3d_datagrid_density    
  BEGIN_DATAGRID_3D#0    
  15    15    23    
  0.0    0.0    0.0    
  1.5350049795289646    -2.658706614415391    0.0    
  1.5350049795289646    2.658706614415391    0.0    
  0.0    0.0    5.189979090275862    
  0.06372670669395193    0.06637844184022267    0.07460690606421223    0.08836615087906075    0.10618653524860065    
  0.12489021563653661    0.13938678814464397    0.1448141744523862    0.13938680723359514    0.12489021525230941    
  0.1061865720429401    0.08836612244963188    0.07460688765387345    0.06637845104782383    0.06372670669395193    
  0.06637844978616442    0.06637638724794113    0.07184144654772778    0.08296876020631895    0.09906411230525872    
  0.11787592670018521    0.1351504816317106    0.1455155897485167    0.1455158232410161    0.13515083621426188    
  0.11787576292377461    0.09906410188866302    0.08296897833288124    0.0718408929288314    0.06637844978616442    
  0.0746068991725402    0.07184143082993576    0.07460830978683572    0.08296832809356547    0.09668767549658838    
  0.11442225545219444    0.13290305968038432    0.14707366838464034    0.15237410130915582    0.14707346156998513    
  0.13290299897131622    0.11442278425741921    0.09668716030783882    0.08296896326820058    0.0746068991725402    
  0.08836612033204039    0.08296876043892246    0.08296834038796524    0.08836563022120873    0.09906346659707169    
  0.11442309542101459    0.13222767443676156    0.1483376156645497    0.15802497410331376    0.1580241210129994    
  0.14833743685223238    0.13222760725629043    0.11442282344368057    0.09906411235620788    0.08836612033204039    
  0.10618653354232535    0.09906412305033678    0.09668767465839304    0.09906348264526918    0.10618867259035733    
  0.11787479763439213    0.1329031744775166    0.14833686873701565    0.1602859741573158    0.16489406085388306    
  0.1602873598622976    0.1483374113429657    0.13290300397811797    0.11787574132241921    0.10618653354232535    
  0.12489022695667507    0.11787585541714794    0.11442226195523977    0.11442310352450884    0.11787482036595867    
  0.12488891641830167    0.1351515359281816    0.1470732222698294    0.1580258262752083    0.16489317900778286    
  0.16489401386572117    0.15802405105716788    0.14707344170338374    0.13515090176366207    0.12489022695667507    
  0.13938680562796357    0.13515047170052444    0.132903109376291    0.13222767824430146    0.13290318100790965    
  0.1351515365757956    0.1393871705093596    0.14551598831737012    0.15237289603680007    0.15802587600036647    
  0.16028597850677465    0.15802500716989404    0.15237415276893568    0.14551583290547482    0.13938680562796357    
  0.14481419089464742    0.14551550406835678    0.14707370909813378    0.14833761818969726    0.14833682786521316    
  0.14707322132278877    0.1455159107444175    0.14481295408096792    0.14551591094895783    0.14707318836674954    
  0.14833689247738702    0.14833755348975938    0.14707370265338998    0.14551551737286966    0.14481419089464742    
  0.13938681481679477    0.1455158414871474    0.15237411623832822    0.15802499081447569    0.16028598398711108    
  0.15802584909144765    0.15237291518114118    0.14551598363640914    0.13938713570679137    0.13515153050915069    
  0.13290317749113426    0.1322276569996482    0.13290311899420923    0.13515045042804824    0.13938681481679477    
  0.12489022991718908    0.13515082863313685    0.1470734677830017    0.158024103667525    0.16489404920241046    
  0.16489316647331054    0.15802582375990032    0.1470732193793739    0.13515147953402085    0.12488892940645957    
  0.11787479401811184    0.1144230837550847    0.11442226029204561    0.1178759188484578    0.12489022991718908    
  0.1061865276223743    0.11787573448898926    0.13290300104999855    0.148337460575127    0.16028736005437375    
  0.1648940146618384    0.16028597534972863    0.14833683437669365    0.13290317237690583    0.11787486849298025    
  0.10618864357452783    0.09906347380577457    0.09668768431198473    0.09906412673831323    0.1061865276223743    
  0.08836613190012703    0.0990641036613107    0.11442283220904866    0.13222759203441797    0.14833741070261428    
  0.15802407110856817    0.15802500620096552    0.14833762973350328    0.132227669545954    0.11442310906507733    
  0.09906346640235944    0.08836561902487135    0.08296833932417673    0.0829687443316582    0.08836613190012703    
  0.07460687743298314    0.08296894946999388    0.09668715723705196    0.11442283279549775    0.1329029877315465    
  0.14707348529611483    0.15237414507277874    0.1470736700711893    0.13290301846127803    0.11442226800886239    
  0.09668768033045355    0.0829683261509218    0.07460830630944373    0.07184146775760808    0.07460687743298314    
  0.06637843605607548    0.07184090753848849    0.08296895576231507    0.09906409563423911    0.11787574170203419    
  0.13515086379987287    0.14551583926939712    0.14551557154303382    0.1351504594427734    0.1178759246659005    
  0.0990641351450906    0.08296874005924006    0.07184143941598017    0.06637638839855586    0.06637843605607548    
  0.06372670669395193    0.06637844184022267    0.07460690606421223    0.08836615087906075    0.10618653524860065    
  0.12489021563653661    0.13938678814464397    0.1448141744523862    0.13938680723359514    0.12489021525230941    
  0.1061865720429401    0.08836612244963188    0.07460688765387345    0.06637845104782383    0.06372670669395193    
  0.0672168033897892    0.07022969051827718    0.0794907674722332    0.09492017141693974    0.11499185638574164    
  0.13606447792021492    0.15240728631267164    0.1585662427498112    0.152408139461437    0.1360643315759867    
  0.11499051428044299    0.09492001073876814    0.07949104961336699    0.07023002937383244    0.0672168033897892    
  0.0702300355888078    0.07022999826977269    0.07502673044363246    0.08469573461608172    0.09858536458034556    
  0.11471792761727781    0.12936982053819449    0.13804390578161227    0.13804561834169873    0.12936756639940075    
  0.11471941346502293    0.09858579396110195    0.08469596269456235    0.07502663192978165    0.0702300355888078    
  0.07949104552617706    0.07775912108833763    0.07949091934536241    0.08469682689987376    0.09314962444173806    
  0.10401107041114926    0.11529760777525959    0.12386897942782311    0.1270275355803366    0.12386862820045991    
  0.11529913058676297    0.10400997717555337    0.09314977199297532    0.08469594174711442    0.07949104552617706    
  0.09492001607747926    0.09312528714244245    0.09312589959366338    0.09491873229344558    0.09858538400873793    
  0.1040096233920698    0.11055006825521026    0.11667589207122966    0.12040517730612803    0.12040533476953248    
  0.11667575216362767    0.1105492165496183    0.1040100040634487    0.09858578856217219    0.09492001607747926    
  0.11499047557310495    0.11569042865674695    0.11606212953373253    0.11569080136411636    0.1149918602272985    
  0.11471924566992195    0.11529793193473131    0.11667613635754524    0.11821599264101267    0.11890586708548984    
  0.11821628249112744    0.11667574533436592    0.11529914837341591    0.11471941514571934    0.11499047557310495    
  0.13606432969465085    0.14242900516473087    0.14649663463180335    0.14649437670469106    0.1424293295419629    
  0.13606241190843438    0.12936929708811518    0.12386832586382697    0.12040508589409109    0.11890557912080074    
  0.1189058287110556    0.1204052961795585    0.12386860744709044    0.129367612871767    0.13606432969465085    
  0.15240816342058217    0.16726609877287507    0.17871402584435833    0.18309619270125488    0.17871568847795294    
  0.16726595835896568    0.15240923437290427    0.13804413986825417    0.12702844620301865    0.12040514363671187    
  0.11821600725038568    0.12040515236295671    0.12702757484334207    0.13804563606887735    0.15240816342058217    
  0.15856627804481094    0.18245605479612226    0.2038083018136922    0.21646703879340623    0.2164657633186952    
  0.20380792958424868    0.1824566400055134    0.15856558160921233    0.1380440502830304    0.12386828378672123    
  0.11667617155621378    0.11667584273887054    0.1238689955078662    0.13804385042079578    0.15856627804481094    
  0.1524072799414897    0.18245767156973153    0.21335046037051736    0.2364980122877409    0.24510202117770444    
  0.23649767220246126    0.21334974202387402    0.18245670539845413    0.15240920047791084    0.12936931625883274    
  0.11529793447616411    0.11055006255934936    0.11529763431564714    0.12936980371965193    0.1524072799414897    
  0.13606450846051607    0.16726643007999764    0.20380621247155087    0.23649669334130113    0.2558295021740989    
  0.2558328990020332    0.23649763539166108    0.20380795337170898    0.16726596846308575    0.13606240740778214    
  0.11471924624597402    0.10400962697496836    0.10401105638345015    0.11471796233087703    0.13606450846051607    
  0.11499186686906471    0.14242798754511957    0.1787163108433458    0.21646690504252483    0.2451049410349017    
  0.25582946817166563    0.24510205609440933    0.21646583032108513    0.17871572563508772    0.14242942203231818    
  0.11499185042171739    0.09858538887840174    0.0931496185737042    0.09858538899623588    0.11499186686906471    
  0.0949201641986323    0.11569025534121115    0.14649535205631756    0.18309488241919394    0.21646685020205364    
  0.2364966437957553    0.23649804850765063    0.21646704305719083    0.18309617794320926    0.14649435428067603    
  0.1156907823343389    0.09491871666498915    0.08469682337627589    0.08469573012912802    0.0949201641986323    
  0.07949073116055747    0.09312464220953517    0.1160639583670832    0.14649533265681058    0.17871629482391496    
  0.2038062346526333    0.21335049227507383    0.2038082407927832    0.17871394551492198    0.14649663269048396    
  0.11606213064095203    0.0931258837013739    0.07949091152237359    0.07502675870133574    0.07949073116055747    
  0.07022967102202117    0.07776054522188344    0.09312468076193325    0.11569025426631817    0.14242796925061568    
  0.1672664635589366    0.18245769402607567    0.18245606186506924    0.16726608149289462    0.14242902359115472    
  0.11569041163643849    0.09312527080145777    0.07775914114213883    0.07023001838742397    0.07022967102202117    
  0.0672168033897892    0.07022969051827718    0.0794907674722332    0.09492017141693974    0.11499185638574164    
  0.13606447792021492    0.15240728631267164    0.1585662427498112    0.152408139461437    0.1360643315759867    
  0.11499051428044299    0.09492001073876814    0.07949104961336699    0.07023002937383244    0.0672168033897892    
  0.07731940202584595    0.08134389143070032    0.09354858795518851    0.11390333433765079    0.14072059320432304    
  0.1689027732808081    0.19069404993539543    0.19894609242036487    0.19069617161144323    0.16890290514533932    
  0.1407182287817649    0.11390372804381538    0.09354958143982857    0.08134351854165377    0.07731940202584595    
  0.0813435238889105    0.08134409955325085    0.08655459840665418    0.09694362155545601    0.11189715191242679    
  0.12926153490731468    0.14494752875347103    0.1543244930037128    0.15432314424876947    0.1449468004544453    
  0.1292614793558784    0.1118989233713276    0.09694274962927985    0.08655436057159514    0.0813435238889105    
  0.09354958739156068    0.0924406310696551    0.09354859482340697    0.0969423456714325    0.10263483058841538    
  0.11015826790930563    0.11811635626963958    0.12428062770380251    0.1266051872028615    0.12428089464870964    
  0.11811674726527437    0.11015871853233695    0.10263324140731922    0.09694272422277429    0.09354958739156068    
  0.11390372934880931    0.11524807893209738    0.11524897526061542    0.11390448508856368    0.11189752007113733    
  0.11015856294319736    0.10940130428050744    0.10956371580840851    0.10993258171662368    0.10993322243221482    
  0.10956431390209002    0.10940008675599414    0.11015875538600522    0.11189892694125561    0.11390372934880931    
  0.14071820713568522    0.1494272204538515    0.15271740265366152    0.1494265684039182    0.1407190663828114    
  0.12926154279837077    0.11811568035262648    0.109564641932673    0.10439487219947231    0.10266815276604722    
  0.10439374265959765    0.1095643225180077    0.11811679892593552    0.12926150345328874    0.14071820713568522    
  0.16890289604224895    0.19040728606521856    0.20325765964011352    0.2032581895210745    0.19040538709383867    
  0.16890377855556712    0.14494815400739317    0.12428027752092381    0.10993232712464233    0.10266779289288568    
  0.1026681262496701    0.1099332020157434    0.12428088644568615    0.14494681297968504    0.16890289604224895    
  0.19069621284625587    0.22810223970255303    0.25592132435614134    0.26613401607095427    0.2559239133527066    
  0.22810314076041552    0.1906934735558394    0.15432351432523653    0.1266063719811392    0.1099323841293633    
  0.10439487364558046    0.10993258802869436    0.12660522189675083    0.15432317606135892    0.19069621284625587    
  0.19894607292391717    0.2508249279383201    0.2949743582391562    0.31892300933302237    0.31892108794826507    
  0.2949741114779078    0.2508272833213697    0.1989474355015586    0.15432343478249552    0.12428022216150206    
  0.1095646340482648    0.10956370315629585    0.12428060980186648    0.15432444423724015    0.19894607292391717    
  0.19069408922792797    0.25082556929969174    0.3091549120628412    0.34675578521178263    0.35858450368888406    
  0.34675616426142486    0.30915214598858964    0.2508273640955982    0.19069343328279864    0.14494816004523173    
  0.11811567143330143    0.10940133921013818    0.11811639239020767    0.14494752037922018    0.19069408922792797    
  0.1689027568646217    0.22810494198906078    0.29497381852830384    0.34675264194765526    0.370702758428761    
  0.3707046166569925    0.3467561023743715    0.2949741279478722    0.22810311526236787    0.1689037713531644    
  0.12926151601205896    0.11015856469921022    0.11015825143012623    0.1292615537739315    0.1689027568646217    
  0.14072059815503615    0.19040543669388862    0.25592117107117873    0.3189221995820477    0.3585881752659804    
  0.3707027532124306    0.3585844704168175    0.31892112330508904    0.2559239012623065    0.19040544635804768    
  0.1407190440638477    0.11189751898936193    0.1026348285377308    0.11189714353099725    0.14072059815503615    
  0.11390333669049657    0.1494262697855634    0.20325893085614857    0.2661343273663518    0.31892220156789286    
  0.3467525537848056    0.3467557642949004    0.31892306005535076    0.26613400347455074    0.20325823218642733    
  0.14942656212010857    0.1139044686750065    0.09694235699484115    0.09694358563682631    0.11390333669049657    
  0.09354855489977305    0.11524963310109812    0.15271693170690387    0.20325890750199013    0.2559211161967545    
  0.294973817407885    0.30915493025870266    0.2949743682682612    0.255921223081102    0.20325766372643356    
  0.1527173694361039    0.11524892402492479    0.09354858287992618    0.08655462382193745    0.09354855489977305    
  0.08134388309077532    0.09244028003125282    0.11524964337937796    0.14942626798087855    0.190405429849175    
  0.22810501600964625    0.2508256133648984    0.2508250382241417    0.2281022381570259    0.19040735161754452    
  0.1494272345785404    0.11524807914080705    0.09244062665457826    0.08134411401740275    0.08134388309077532    
  0.07731940202584595    0.08134389143070032    0.09354858795518851    0.11390333433765079    0.14072059320432304    
  0.1689027732808081    0.19069404993539543    0.19894609242036487    0.19069617161144323    0.16890290514533932    
  0.1407182287817649    0.11390372804381538    0.09354958143982857    0.08134351854165377    0.07731940202584595    
  0.09199374525688271    0.09753235685807189    0.11424060885870008    0.14217312700771742    0.17918991304989748    
  0.21773825388456758    0.24693466276601253    0.2578473007641593    0.2469428734502663    0.21773863306508934    
  0.1791835725471963    0.14217437708314903    0.11424228478018317    0.09753193057651481    0.09199374525688271    
  0.09753194339200072    0.09753377739354271    0.10396978060642029    0.11672636185370207    0.1351308913263916    
  0.15642996662724915    0.17561602773687476    0.1872438197375496    0.18724319341774176    0.1756109941734729    
  0.15642995288787667    0.13513567710070165    0.1167249594827238    0.10396878907935958    0.09753194339200072    
  0.11424229693909257    0.1134985634054016    0.11423898301863869    0.11672434592747893    0.12130216399776134    
  0.1275669637439492    0.1342454291051378    0.13962620344458623    0.1417608148595667    0.13962574681068085    
  0.13424887681507086    0.12756712924061694    0.12129767720129538    0.11672494441180102    0.11424229693909257    
  0.1421743728591945    0.14656040654158622    0.14656385631925872    0.14217625223644878    0.1351309535766137    
  0.12756687293349295    0.12124113279103405    0.11711015190587531    0.1152131028919795    0.1152147243081832    
  0.11711105910625866    0.12123744875044677    0.12756717326195838    0.13513566987820247    0.1421743728591945    
  0.17918356549896527    0.19636706373200707    0.2027960737489379    0.19636577013180312    0.1791873603411353    
  0.15643073922549222    0.134245024590968    0.1171117996279679    0.1066557063245456    0.10315084623252141    
  0.10665376841233767    0.11711105617791652    0.13424893180385705    0.15642996630265985    0.17918356549896527    
  0.2177386485603392    0.254864781840691    0.2761226487064358    0.2761203431135839    0.25485706654791285    
  0.21774126070348698    0.17561563064602878    0.13962498013189567    0.11521259604162783    0.10315117972597651    
  0.10315082556312383    0.11521468138828164    0.13962569529082317    0.17561104501493663    0.2177386485603392    
  0.24694287064772338    0.30491636094865315    0.3426594412637916    0.3546654304248004    0.34267559039746465    
  0.3049147050250162    0.24693500321420006    0.1872435326026314    0.14176343391460167    0.11521263275090608    
  0.10665571401777772    0.11521308126519794    0.141760854098871    0.18724320411030332    0.24694287064772338    
  0.25784729147601504    0.3320914228385575    0.37897730438123745    0.3925105255822587    0.3925015428297951    
  0.3789750191408252    0.33210474160135    0.257847005028557    0.18724346552492957    0.13962494333183287    
  0.11711178987601885    0.11711011052423086    0.13962621599353106    0.1872438129023886    0.25784729147601504    
  0.246934669452456    0.33210231333115636    0.3880065578207158    0.39292077810302173    0.38467233676547413    
  0.39291902468511636    0.3880040291314519    0.33210491053834296    0.24693495255752626    0.17561564288605397    
  0.13424499256976052    0.1212411091917815    0.1342454273536517    0.17561603909724635    0.246934669452456    
  0.21773825118929005    0.304919296441139    0.37897694132469595    0.39291578405503846    0.370155355464153    
  0.37016723933408535    0.39291901959424175    0.37897505194201    0.30491464470117063    0.2177412992169191    
  0.15643074011140756    0.12756688549115644    0.12756699952586062    0.15642998435769537    0.21773825118929005    
  0.1791898980603846    0.25485812978491573    0.34266810537366343    0.39249474087640657    0.3846908767565317    
  0.37015528324179126    0.38467232422032865    0.3925015947824772    0.34267559993640057    0.25485715272608095    
  0.1791873856587089    0.13513092507955013    0.1213021717984518    0.13513092764646573    0.1791898980603846    
  0.1421731303511522    0.19636664528598358    0.27612160065050867    0.3546723391296646    0.39249469602689924    
  0.392915764441527    0.39292075567590223    0.3925106400621239    0.35466544014856477    0.27612039363108876    
  0.19636576922196505    0.14217623594295278    0.11672434020175054    0.11672635002590452    0.1421731303511522    
  0.11424057381975602    0.1465634816258887    0.2027956499536634    0.27612159121440705    0.3426680390841606    
  0.3789769344106795    0.38800650649166024    0.378977309374514    0.34265928857023603    0.2761226145046768    
  0.2027960483763486    0.14656381846800498    0.11423896663875885    0.10396980036900756    0.11424057381975602    
  0.09753234300866223    0.1134980709125793    0.1465635172816103    0.19636666775187706    0.25485807897065393    
  0.30491933530121884    0.33210237481606597    0.3320915232773619    0.3049163206567116    0.25486485305043    
  0.19636708428072835    0.14656037391514715    0.11349859037874331    0.0975337912033919    0.09753234300866223    
  0.09199374525688271    0.09753235685807189    0.11424060885870008    0.14217312700771742    0.17918991304989748    
  0.21773825388456758    0.24693466276601253    0.2578473007641593    0.2469428734502663    0.21773863306508934    
  0.1791835725471963    0.14217437708314903    0.11424228478018317    0.09753193057651481    0.09199374525688271    
  0.10697510350289205    0.1141341083319939    0.1357542119789543    0.17190903328851195    0.21936790792116506    
  0.267159500877655    0.30120216407069106    0.31324854241788647    0.3012266691448475    0.2671611304721781    
  0.2193505989106262    0.17191119791114196    0.13575850610080115    0.11413381021068278    0.10697510350289205    
  0.11413382363813475    0.11413357010178146    0.12217125580297464    0.13793896506051873    0.16054994320612914    
  0.1865879982638768    0.20980877685643182    0.2237276377514631    0.223727584793594    0.20979346250686093    
  0.18658764583922693    0.16056314891696286    0.1379382264846375    0.12216502869146646    0.11413382363813475    
  0.13575851044988646    0.13514124101520575    0.13575227974457788    0.13793441295466102    0.1421766104578682    
  0.14814346002846263    0.1546600888460674    0.16005722317881957    0.16223681034618323    0.1600558525814289    
  0.1546704947899905    0.14814580934825125    0.14216078603175059    0.13793819983056543    0.13575851044988646    
  0.17191120643563354    0.17893377250270004    0.17894094255143178    0.17191660629938305    0.16054790605555463    
  0.14814548518860962    0.13749041738931075    0.1302263631609131    0.12669909216081757    0.12670069017334015    
  0.13022952529203527    0.13747821887054096    0.1481458345584327    0.1605631524934898    0.17191120643563354    
  0.21935056795205296    0.24389048072834282    0.2529957905957313    0.2438853422616821    0.21936673911795151    
  0.18658824964601195    0.1546585662342323    0.13023114225430463    0.11544487255204326    0.11050885716381383    
  0.11544156582272459    0.13022954533567727    0.1546705503060248    0.1865876626564572    0.21935056795205296    
  0.2671610957978929    0.3147429884464825    0.33953547215273094    0.3395320302336332    0.3147181653412884    
  0.2671642026301604    0.2098101678626485    0.16005194576141568    0.1266998399608449    0.11050636580161323    
  0.11050882280914119    0.12670064456076724    0.1600558400523308    0.20979351381449082    0.2671610957978929    
  0.3012266710025    0.3647635832470328    0.39113234450668044    0.3944599954329748    0.39117033320124184    
  0.36476534214353046    0.3012013061647034    0.2237317691930049    0.16223907708604177    0.12669987050474957    
  0.1154448680334003    0.12669905348485555    0.16223684513182313    0.2237275830295171    0.3012266710025    
  0.31324852649224394    0.3841192195175175    0.38759071377102533    0.35604242594005103    0.3560258634939618    
  0.38758035219878123    0.3841596076353278    0.3132385750778423    0.22373168861336193    0.16005189880149448    
  0.1302311625655421    0.13022631191590778    0.16005725034434617    0.22372758744919694    0.31324852649224394    
  0.30120219718072594    0.38415069745256963    0.375168241019956    0.29373331771368444    0.2516737355227484    
  0.2937332744780967    0.3751578357815082    0.3841597298461949    0.3012012622376659    0.20981018574835517    
  0.1546585453609007    0.1374903884460123    0.15466014228445082    0.20980878468006253    0.30120219718072594    
  0.26715949516459325    0.3647727273448991    0.38759036339534303    0.29372039670458605    0.20412406552859083    
  0.20413653027837875    0.2937333068659888    0.38758041447251923    0.36476533525733856    0.26716420030634574    
  0.18658826892358257    0.1481455001505373    0.14814346318217508    0.18658801775136744    0.26715949516459325    
  0.21936789012218685    0.3147221474576039    0.3911539197504124    0.3560112856166528    0.2517067858126462    
  0.20412404970275191    0.25167374661929776    0.35602594892412764    0.391170304427669    0.31471826845968465    
  0.21936673073289575    0.16054787280285107    0.14217663120774982    0.16054997839519455    0.21936789012218685    
  0.17190900586400357    0.2438899878198404    0.339537666051122    0.3944717900702582    0.3560112163850182    
  0.2937204181789982    0.2937333759193496    0.3560425135963957    0.39446000305909673    0.33953205548667326    
  0.24388527183168826    0.1719165822192817    0.13793441012753804    0.13793897440832698    0.17190900586400357    
  0.1357541809606595    0.17894214170984868    0.2529886318603616    0.33953757874738766    0.39115387497070747    
  0.38759037822535053    0.375168214840001    0.38759071312469107    0.39113224140723685    0.33953546487498465    
  0.25299580043907705    0.1789408909504912    0.13575227489883374    0.1221713023769978    0.1357541809606595    
  0.11413409022623766    0.13513830295075926    0.178942176447867    0.24388999103892042    0.31472215760249894    
  0.364772779426659    0.38415071606434    0.38411935922974355    0.36476355987246634    0.3147430599896871    
  0.2438904587895546    0.17893371986030643    0.13514125736882132    0.11413359850784938    0.11413409022623766    
  0.10697510350289205    0.1141341083319939    0.1357542119789543    0.17190903328851195    0.21936790792116506    
  0.267159500877655    0.30120216407069106    0.31324854241788647    0.3012266691448475    0.2671611304721781    
  0.2193505989106262    0.17191119791114196    0.13575850610080115    0.11413381021068278    0.10697510350289205    
  0.11679689087920361    0.12494993490494415    0.1497358547215689    0.19135477651786295    0.24540591465713318    
  0.29776890549168417    0.33222418167796075    0.34343776157281763    0.33225413333584836    0.2977744041795114    
  0.2453888397640209    0.19135237856138204    0.14974586565497192    0.124948905503275    0.11679689087920361    
  0.12494889984629552    0.12494759463450121    0.13408708591969123    0.1519161562183475    0.17742893906395327    
  0.20675575307830701    0.23249978705357768    0.2474760719627129    0.24747525766013304    0.2324832789361113    
  0.20675385222674666    0.17744291911465956    0.151915710351839    0.13407642392097927    0.12494889984629552    
  0.14974587467198758    0.14909156942266621    0.14973531405550253    0.1519115868979792    0.1560285327868415    
  0.16206022050142785    0.16890282799064016    0.1745157708593586    0.17672475286054248    0.17451188987936    
  0.1689161512831092    0.1620611217041318    0.15601365081940152    0.15191573625625054    0.14974587467198758    
  0.19135236617350357    0.19978779303116834    0.1997990501425054    0.1913620178357127    0.17742678128094275    
  0.16206016755933875    0.14898806706635084    0.1400548226701244    0.13557928680835804    0.13558497065982364    
  0.1400578122144114    0.14897427342991196    0.1620611842282476    0.17744291284233935    0.19135236617350357    
  0.2453887931453297    0.27376121325165664    0.2840966173527106    0.273750155280922    0.24540299999662288    
  0.20675928730268578    0.1688999933131954    0.140060410851428    0.12259724255723603    0.11673272105839919    
  0.122591526921028    0.14005783482635387    0.16891617482093343    0.20675387560131905    0.2453887931453297    
  0.297774345813732    0.3480329288779776    0.3711078325625842    0.37110742069437996    0.34801162252529844    
  0.2977718512056074    0.2325034158235653    0.17450999593328656    0.13557960044342154    0.11673204393261531    
  0.11673272913158347    0.13558495957052352    0.17451188146532798    0.23248331895965063    0.297774345813732    
  0.3322541010508056    0.38842196787202304    0.3938285590984819    0.38577506767239406    0.3938570401027189    
  0.3884325946887107    0.3322234244056292    0.2474774339809779    0.17673085463397012    0.1355796164573983    
  0.12259724692951783    0.135579220314188    0.1767248085404937    0.24747527787141443    0.3322541010508056    
  0.34343772570232073    0.39440712592539057    0.34826829514165    0.28132720362978425    0.28132076078694546    
  0.3482598170399448    0.39445164685200784    0.3434289296231433    0.24747737545974705    0.1745099602357088    
  0.1400604217685526    0.140054746908651    0.17451576787368867    0.24747605729979874    0.34343772570232073    
  0.33222421589567835    0.3944387454456876    0.31815235460564545    0.18839637777817997    0.13854289684720925    
  0.18840000935453444    0.3181380441195889    0.39445175337867633    0.3322233419645045    0.23250346733568683    
  0.16889994862961524    0.14898807551926233    0.16890289977052472    0.23249977807204086    0.33222421589567835    