#     DFTpy    
  CRYSTAL 
    
  PRIMVEC    
  3.1466896551724135    0.0    0.0    
  0.0    3.1466896551724135    0.0    
  0.0    0.0    3.1466896551724135    
  PRIMCOORD    
  4    1    
  Si    0.0    0.0    0.0    
  Si    0.0    1.5733448275862068    1.5733448275862068    
  Si    1.5733448275862068    0.0    1.5733448275862068    
  Si    1.5733448275862068    1.5733448275862068    0.0    
  BEGIN_BLOCK_DATAGRID_3D    
  3d_datagrid_density    
  BEGIN_DATAGRID_3D#0    
  15    15    15    
  0.0    0.0    0.0    
  3.1466896551724135    0.0    0.0    
  0.0    3.1466896551724135    0.0    
  0.0    0.0    3.1466896551724135    
  0.055230077104035526    0.0998889490077165    0.272180181702642    0.4803178270862025    0.5178269156221221    
  0.450161822207353    0.39057546577950697    0.36953754946153416    0.39057542441347254    0.4501618176158742    
  0.5178268528551723    0.480317807798639    0.2721801483700614    0.09988897363894655    0.055230077104035526    
  0.09988893412072282    0.1547419289688729    0.3324497220686707    0.5119814203044605    0.5309360217766182    
  0.4649894373587002    0.40987156204027364    0.3905754341794269    0.40987150149797785    0.4649895189956369    
  0.5309360174283222    0.5119815051988371    0.3324496815455579    0.15474193844826928    0.09988893412072282    
  0.27218013811191655    0.332449623177696    0.475295646771217    0.5723334456235497    0.5605506292202272    
  0.5068699126649603    0.46498952543709743    0.4501618017654694    0.4649894282090665    0.5068698632528807    
  0.5605506439326945    0.5723334156714425    0.4752956811063922    0.33244970928425627    0.27218013811191655    
  0.48031784265685334    0.5119814808028583    0.5723335021400648    0.6012677837548952    0.5895429228173032    
  0.5605506493083398    0.5309360283758349    0.5178267496901457    0.5309360255501222    0.5605507971889353    
  0.5895428558062733    0.6012679296298642    0.5723333345713095    0.5119814859318201    0.48031784265685334    
  0.5178269021104035    0.5309359414952812    0.560550763217451    0.5895429670130973    0.60126794545267    
  0.5723334241498387    0.5119816025845458    0.4803178582422267    0.5119814261386483    0.5723334597720162    
  0.6012678462278069    0.5895428463615559    0.5605506983018529    0.5309360389345663    0.5178269021104035    
  0.4501618168230869    0.46498942491429657    0.5068699772635312    0.5605506891820805    0.5723333934315843    
  0.47529550608171073    0.33244971029808573    0.2721801858203792    0.3324496935977728    0.47529561651803265    
  0.5723334250557466    0.5605507518187286    0.5068699708465139    0.4649895375166196    0.4501618168230869    
  0.3905754124250089    0.40987157238840566    0.4649894606307283    0.530935998385092    0.5119815687311134    
  0.3324496547969393    0.15474193963680422    0.09988893797034334    0.15474192145078633    0.3324497217045653    
  0.5119815573747375    0.5309359933353383    0.4649894339419654    0.40987157270190744    0.3905754124250089    
  0.3695375322592337    0.3905754507777973    0.4501618626336482    0.5178267945099932    0.4803179637026158    
  0.2721801280558956    0.09988896114304935    0.05523008047928322    0.0998889255391294    0.2721801431591786    
  0.4803178335389676    0.5178268017378814    0.4501618207058274    0.3905754517662389    0.3695375322592337    
  0.39057543785249166    0.40987156540175224    0.46498946868647656    0.530936037098597    0.5119814596283825    
  0.33244966310170904    0.15474192330182848    0.0998889377880278    0.15474193553887192    0.3324497119110305    
  0.5119814836493313    0.5309360090110861    0.46498945650337675    0.40987158744259755    0.39057543785249166    
  0.45016178688353775    0.46498943820711236    0.5068699748831147    0.5605506774587811    0.5723334938816282    
  0.47529557161908903    0.33244969818783904    0.27218011292433497    0.3324496682132391    0.47529556841653525    
  0.5723334847646101    0.5605507388201477    0.5068699791089872    0.464989509250752    0.45016178688353775    
  0.5178268518261336    0.5309360466536895    0.5605507016567216    0.5895428745772793    0.6012678413142288    
  0.5723334703475155    0.5119816233876917    0.48031785864592685    0.5119814788200614    0.5723334820220731    
  0.6012678910136243    0.5895428951609266    0.5605506446041638    0.5309360492631697    0.5178268518261336    
  0.480317853997024    0.5119814340957659    0.5723335612957696    0.6012679339831385    0.5895429062695794    
  0.5605506580715438    0.5309361388814349    0.5178267688293889    0.5309359019600798    0.560550794496297    
  0.5895428913997933    0.6012678292555756    0.5723334278123897    0.5119815147322843    0.480317853997024    
  0.27218014143612956    0.3324496441821805    0.4752955919208515    0.5723334297678144    0.5605506617219519    
  0.5068699257362945    0.4649894362875299    0.4501617902893459    0.464989466279454    0.5068699327368525    
  0.5605507281859847    0.5723334435768516    0.4752956601353147    0.33244973491918617    0.27218014143612956    
  0.0998889417304507    0.15474194786497195    0.3324496698675097    0.5119814427762212    0.5309360926751581    
  0.46498941064051247    0.4098716046481613    0.3905754084216493    0.4098715786541769    0.4649894365014952    
  0.5309359985462688    0.5119814651441351    0.33244971242065147    0.15474191634075496    0.0998889417304507    
  0.055230077104035526    0.0998889490077165    0.272180181702642    0.4803178270862025    0.5178269156221221    
  0.450161822207353    0.39057546577950697    0.36953754946153416    0.39057542441347254    0.4501618176158742    
  0.5178268528551723    0.480317807798639    0.2721801483700614    0.09988897363894655    0.055230077104035526    
  0.09988894720004186    0.1547419601527412    0.33244972269169326    0.5119814308325407    0.5309361531274647    
  0.46498944998282665    0.40987163870411475    0.3905754296763557    0.4098715674073062    0.4649894841404325    
  0.5309360632585719    0.5119814535399082    0.3324496978383909    0.15474197509918222    0.09988894720004186    
  0.15474190227373552    0.2153670747662093    0.38754548267065325    0.5367772302998747    0.5408249968570086    
  0.47761970204057086    0.42726526617773364    0.40987156969046123    0.4272652213305735    0.47761977437465913    
  0.5408249705887748    0.5367772143445134    0.3875453915608176    0.2153670827097079    0.15474190227373552    
  0.3324497189248585    0.38754539003158567    0.509198063926953    0.5820593193479228    0.563792391287935    
  0.5142949591792078    0.4776198076973048    0.4649894783615427    0.4776197108346905    0.5142949195065507    
  0.5637923529668595    0.5820594163860634    0.5091980419526941    0.3875453912611731    0.3324497189248585    
  0.5119814822472876    0.5367771988963344    0.5820593993162977    0.6006405016666868    0.5879881713014916    
  0.5637923033388922    0.5408250582360066    0.5309359682409404    0.5408249461534723    0.5637924901960784    
  0.5879880922449239    0.6006405429813892    0.5820593332471776    0.5367772685266162    0.5119814822472876    
  0.530936094271655    0.540824885961766    0.5637924781533181    0.587988089462563    0.6006405826683429    
  0.582059446718994    0.5367772879889704    0.5119815029434198    0.5367771521333489    0.582059510585139    
  0.6006405074260979    0.5879881333394589    0.5637923658088922    0.5408250320194193    0.530936094271655    
  0.4649894468709614    0.4776196647215272    0.5142949506754148    0.5637923984937896    0.5820593814488549    
  0.5091978668287881    0.3875454323358212    0.3324497108115283    0.38754540908061275    0.5091979988717182    
  0.582059413405632    0.5637923401535794    0.5142950107888125    0.47761983245995476    0.4649894468709614    
  0.40987154625750816    0.42726526120753894    0.4776197336511622    0.5408249230188981    0.5367772347975115    
  0.38754536825034613    0.21536705222764807    0.1547419257050995    0.21536703705760168    0.3875454336452114    
  0.5367772797550102    0.5408248665215971    0.4776197392997812    0.4272653121582948    0.40987154625750816    
  0.3905754624255903    0.40987165207752113    0.4649894714167731    0.5309359470983152    0.5119816049280235    
  0.3324497151376337    0.15474195740278437    0.0998889535144654    0.15474191894602823    0.33244970867782175    
  0.5119814013899551    0.5309360449863744    0.4649894711865637    0.4098715939440158    0.3905754624255903    
  0.40987157495505055    0.42726524613486394    0.47761969182869124    0.5408249694185897    0.5367771940233871    
  0.3875453559004958    0.21536705698770336    0.15474192003464357    0.21536706237983413    0.3875454719585669    
  0.5367772217272067    0.5408249865988769    0.47761971682744864    0.4272652825029882    0.40987157495505055    
  0.46498945981720025    0.4776196829169075    0.51429499869639    0.56379232684421    0.582059319103268    
  0.5091979961113101    0.3875453817929962    0.33244966606024023    0.38754542613212994    0.509198011351078    
  0.582059371147429    0.5637923798562341    0.5142949601738573    0.47761974783068695    0.46498945981720025    
  0.5309360214528238    0.5408250083279106    0.563792431448099    0.5879880967229443    0.6006405553325403    
  0.5820593358351708    0.5367773215629149    0.5119814509662478    0.5367772240500921    0.5820594125141189    
  0.6006405062671683    0.5879881018942689    0.563792311626726    0.5408249613499274    0.5309360214528238    
  0.5119815521558111    0.5367771436244984    0.5820594431421083    0.6006405459708896    0.5879881208143716    
  0.5637923880406361    0.5408250015568471    0.5309360042474578    0.540824966713484    0.5637924851635449    
  0.5879881333327159    0.6006405361458208    0.5820593864873786    0.5367772426572348    0.5119815521558111    
  0.3324497038358932    0.38754537388346005    0.5091979844494003    0.5820593567583954    0.5637923810760832    
  0.5142949142399792    0.47761976247379373    0.4649894657628767    0.4776197795074607    0.5142949667194002    
  0.5637924352244694    0.5820593808447252    0.5091980388780146    0.38754542584088364    0.3324497038358932    
  0.15474191951753177    0.21536707145741638    0.38754540741082494    0.5367771803411504    0.5408250134527346    
  0.47761970076631516    0.42726529957178006    0.409871578312865    0.4272652467284776    0.4776197889932865    
  0.5408249778370687    0.5367772026218003    0.38754539777259867    0.21536704319980673    0.15474191951753177    
  0.09988894720004186    0.1547419601527412    0.33244972269169326    0.5119814308325407    0.5309361531274647    
  0.46498944998282665    0.40987163870411475    0.3905754296763557    0.4098715674073062    0.4649894841404325    
  0.5309360632585719    0.5119814535399082    0.3324496978383909    0.15474197509918222    0.09988894720004186    
  0.27218013058938406    0.3324497398336714    0.4752956258087708    0.5723334014978071    0.5605507002114833    
  0.5068699606321804    0.464989497541027    0.45016181278112816    0.4649894300371425    0.5068698620646043    
  0.5605506823978574    0.5723334144158987    0.47529565883646824    0.332449743628101    0.27218013058938406    
  0.33244969772960264    0.3875454115444811    0.5091980652822811    0.5820593509234216    0.5637924374405228    
  0.5142948645661862    0.47761976711384163    0.4649894492871953    0.4776196768038388    0.5142949576494944    
  0.563792386810319    0.5820593712800566    0.509197936357247    0.38754541145572446    0.33244969772960264    
  0.47529556576451026    0.5091979548689757    0.5725000443631975    0.5961763862849795    0.572010812184238    
  0.537306296686866    0.5142950102565454    0.5068699804985326    0.5142949523641839    0.5373063024380162    
  0.5720108562441283    0.5961763534634611    0.5725001028255953    0.5091979848824811    0.47529556576451026    
  0.5723335122596125    0.5820594343515983    0.5961762949927623    0.5951291993224965    0.583392944726584    
  0.5720108250034225    0.5637924627046462    0.5605506192533172    0.5637923901862497    0.5720109245066387    
  0.5833927865643773    0.5951293099810077    0.5961761926271627    0.582059458290867    0.5723335122596125    
  0.5605507475420983    0.563792305711796    0.572010871075337    0.5833928934095742    0.5951293821329744    
  0.5961763003567069    0.5820594733924174    0.5723334175039743    0.5820593184307113    0.5961763950097658    
  0.5951292534772654    0.5833928743348696    0.572010790621236    0.5637924066157141    0.5605507475420983    
  0.5068698480854282    0.514294904487679    0.5373063271996477    0.5720109220774393    0.5961763264821104    
  0.5725000548063944    0.5091980098614088    0.47529559635097135    0.5091980185919205    0.5725000646959261    
  0.5961763874078724    0.5720108349732992    0.5373063605176363    0.5142950005243879    0.5068698480854282    
  0.4649894326761633    0.4776197402322469    0.5142949718380294    0.5637924142068216    0.5820594841481783    
  0.509197917113236    0.3875454282789561    0.3324497078225851    0.387545372208265    0.5091979943166001    
  0.5820594452863821    0.5637923626030772    0.5142949425548364    0.47761974974144156    0.4649894326761633    
  0.4501618218688598    0.4649894985953359    0.5068699580625006    0.5605506239839758    0.5723335710532601    
  0.47529559213852257    0.3324497385915    0.2721801721080904    0.33244965766928064    0.4752955577267331    
  0.5723334147320299    0.5605506694880128    0.5068699337160634    0.4649895307756991    0.4501618218688598    
  0.4649894621850735    0.477619804879298    0.5142948810498884    0.5637923811512734    0.5820594565842494    
  0.5091979272681815    0.38754546050710054    0.3324496833569441    0.3875454301601921    0.509198039874435    
  0.5820593983521677    0.5637924069604873    0.514294918834639    0.47761974290788184    0.4649894621850735    
  0.5068698537673445    0.5142949426728322    0.5373063907023659    0.5720108223732726    0.596176385153813    
  0.5725000945394124    0.5091980574149999    0.4752956342060746    0.5091979714241771    0.5725000978571557    
  0.5961762809516219    0.5720107999564957    0.537306383655294    0.5142950354319681    0.5068698537673445    
  0.5605506909229971    0.5637924310653804    0.572010908033755    0.5833929151269955    0.5951293071639323    
  0.5961762526132132    0.582059468627228    0.5723334626006553    0.582059394281459    0.5961763359285024    
  0.5951292008037927    0.5833929143547135    0.5720107614233676    0.563792401841411    0.5605506909229971    
  0.5723335205344117    0.5820593854798785    0.596176324454446    0.5951293127629711    0.5833929187665176    
  0.5720107742711842    0.5637924592473174    0.5605506318180703    0.5637923771872883    0.5720109075059289    
  0.5833928345944109    0.595129317709185    0.5961763389610897    0.5820594419675154    0.5723335205344117    
  0.4752956608435474    0.5091979721971783    0.5725000954805243    0.5961762466298107    0.5720108619530025    
  0.5373063359522186    0.5142949178755062    0.5068699476744426    0.5142949981057543    0.5373063038635738    
  0.5720108617366133    0.596176223615293    0.5725001315610618    0.5091980352542601    0.4752956608435474    
  0.33244967355716387    0.38754546402249024    0.5091979710013044    0.5820593528001918    0.563792410364535    
  0.5142948939123462    0.47761977682351386    0.4649894295455677    0.4776196539416424    0.5142950091679838    
  0.5637923726729017    0.582059436358001    0.5091979874922256    0.3875454386331354    0.33244967355716387    
  0.27218013058938406    0.3324497398336714    0.4752956258087708    0.5723334014978071    0.5605507002114833    
  0.5068699606321804    0.464989497541027    0.45016181278112816    0.4649894300371425    0.5068698620646043    
  0.5605506823978574    0.5723334144158987    0.47529565883646824    0.332449743628101    0.27218013058938406    
  0.4803178573373925    0.5119814697179615    0.5723334713250287    0.6012677729179818    0.5895429414298545    
  0.5605507610230294    0.5309361038709588    0.5178268068818428    0.5309359959316842    0.5605506851795653    
  0.5895428719194945    0.6012678311171566    0.5723334411090817    0.5119815391129392    0.4803178573373925    
  0.5119814894117644    0.5367772833727693    0.5820594148168993    0.6006404731241568    0.5879881249414434    
  0.5637923604998484    0.5408249147986909    0.530935997463955    0.5408249303738748    0.5637924389608905    
  0.5879880739971745    0.6006405280204965    0.582059442691946    0.5367772135056263    0.5119814894117644    
  0.5723334335110924    0.5820593649339553    0.5961763283928512    0.5951291929906551    0.5833928840062266    
  0.5720108140418794    0.5637924141216661    0.5605507920979274    0.5637923274329861    0.5720107963493183    
  0.5833928813138299    0.595129266009859    0.5961763337900492    0.5820593893691405    0.5723334335110924    
  0.6012678614986015    0.6006405626704451    0.595129264108113    0.5847997840780348    0.5798689429562252    
  0.5833928364101254    0.5879881324810147    0.5895429587334855    0.5879881804404073    0.5833930087460194    
  0.5798688484848759    0.5847998663577453    0.5951291583759895    0.6006406156982563    0.6012678614986015    
  0.5895429478306362    0.5879880722197998    0.5833929049322719    0.579868904590656    0.5847999366733445    
  0.5951292450326522    0.6006406514608993    0.601267911171808    0.6006403977277697    0.5951292796937577    
  0.5847998864467835    0.5798689385064061    0.5833929216191942    0.5879880827949915    0.5895429478306362    
  0.5605506797332493    0.5637923233992193    0.5720108805522249    0.5833929671514646    0.5951291517310996    
  0.5961762595330165    0.5820593982069291    0.5723334916414824    0.5820593805749152    0.5961763212083383    
  0.5951293151289676    0.5833929321549163    0.5720108654892896    0.5637923870982819    0.5605506797332493    
  0.5309359836583817    0.5408250294342358    0.5637923580990636    0.5879880874292528    0.6006406087266416    
  0.5820593502521899    0.5367771764547121    0.5119814724737147    0.5367771087215614    0.5820594230360103    
  0.6006406337508449    0.5879880533432051    0.5637923801003197    0.540824995988066    0.5309359836583817    
  0.5178267996040892    0.5309360896593746    0.5605506069068286    0.5895428073978918    0.6012680208275827    
  0.5723334599081956    0.5119815078165549    0.4803179468865204    0.511981434707075    0.57233336602336    
  0.6012677759237027    0.5895428545893698    0.5605507226474403    0.5309360410928305    0.5178267996040892    
  0.5309359651308112    0.5408249637218016    0.5637923828828171    0.5879880607498752    0.6006405442864717    
  0.5820593686181689    0.5367772614541109    0.5119814823928643    0.5367772167388436    0.5820594301507691    
  0.6006405888794629    0.5879880436403604    0.5637923585150564    0.5408249934920953    0.5309359651308112    
  0.560550682486604    0.563792398709085    0.5720108101654823    0.5833928680971673    0.5951292524442022    
  0.5961762810639851    0.5820593776058103    0.5723334190594072    0.5820594173866832    0.5961763463318415    
  0.5951292365443261    0.5833928810146198    0.5720107921888824    0.5637924826492133    0.560550682486604    
  0.5895428368291399    0.5879881635373759    0.5833929003108951    0.5798688887448213    0.5847999283387133    
  0.5951291797960471    0.600640612055844    0.6012679306630367    0.6006405120775311    0.5951292164752654    
  0.5847998550584034    0.5798689605589348    0.5833928829719737    0.5879881227456388    0.5895428368291399    
  0.601267892866287    0.6006405483516905    0.5951292436495014    0.5847998787973078    0.5798689854053447    
  0.5833928354584966    0.5879882474392408    0.5895429359148068    0.5879880915358334    0.5833930177320622    
  0.5798688923751618    0.5847998910250007    0.5951292807054607    0.6006405401500564    0.601267892866287    
  0.572333499063158    0.5820594272365176    0.5961763724997503    0.5951292790704836    0.5833929812421395    
  0.5720107444691901    0.5637923954932621    0.5605506765882844    0.563792359601    0.5720108695266753    
  0.5833929342747747    0.5951292155006332    0.5961763482633056    0.5820594358981324    0.572333499063158    
  0.5119814429088559    0.5367772425049637    0.5820593730995642    0.6006405635139119    0.58798808271014    
  0.5637923538658617    0.5408250101322509    0.530936031171563    0.5408248860231678    0.5637923719705625    
  0.5879880128872157    0.6006404835863327    0.5820594222550459    0.5367771927013127    0.5119814429088559    
  0.4803178573373925    0.5119814697179615    0.5723334713250287    0.6012677729179818    0.5895429414298545    
  0.5605507610230294    0.5309361038709588    0.5178268068818428    0.5309359959316842    0.5605506851795653    
  0.5895428719194945    0.6012678311171566    0.5723334411090817    0.5119815391129392    0.4803178573373925    
  0.5178268093878308    0.530936038829158    0.5605506749811305    0.5895428864871184    0.6012679139549343    
  0.5723334632769957    0.5119815701108875    0.48031785111599345    0.5119814666632422    0.5723334318775277    
  0.6012678433066522    0.5895428404489187    0.5605506735784428    0.5309361467752894    0.5178268093878308    
  0.5309360013075923    0.5408249732943621    0.5637924364522824    0.5879880349292278    0.6006405473171887    
  0.5820593278648086    0.5367771546435207    0.5119814861900608    0.536777169204069    0.5820594392620289    
  0.600640547517333    0.5879880801996155    0.5637924459806186    0.5408249793172044    0.5309360013075923    
  0.5605507340958604    0.5637923977779451    0.5720108514930853    0.5833928470834268    0.5951292577212584    
  0.5961763221728326    0.582059408362245    0.5723335269392605    0.5820593533897594    0.5961763663439009    
  0.5951292066160437    0.5833929073592454    0.5720108207462044    0.5637923799476532    0.5605507340958604    
  0.5895429105791722    0.587988182269581    0.5833929486561844    0.5798688747832171    0.5847998625425017    
  0.5951292328910335    0.6006405619516474    0.6012678813296972    0.6006405756104224    0.595129318929861    
  0.5847998409588927    0.5798688664511474    0.5833928382180915    0.5879882009660098    0.5895429105791722    
  0.6012679802897345    0.6006404792920038    0.5951292251761932    0.5847998502943595    0.5798690040037051    
  0.5833929266367143    0.5879881294737367    0.5895428426632412    0.5879879467694894    0.5833929216234438    
  0.5798689357189142    0.5847998096192534    0.5951292663821903    0.6006405109287856    0.6012679802897345    
  0.572333412704902    0.5820593511077274    0.5961763712951131    0.5951293610052668    0.5833928363375442    
  0.5720107257911996    0.5637923556104725    0.5605506960299799    0.563792354915521    0.5720108691929942    
  0.583392982161187    0.5951292671512362    0.5961764045999355    0.5820593895246629    0.572333412704902    
  0.5119814945218866    0.536777290128086    0.5820594191951225    0.6006405563612275    0.5879882116835765    
  0.5637922956514955    0.5408249648628081    0.5309360489189058    0.5408248962024353    0.5637924162007804    
  0.5879882064381644    0.600640500077904    0.5820593642761516    0.5367772405234403    0.5119814945218866    
  0.4803178445847949    0.5119815259182344    0.572333419191382    0.6012677179637156    0.5895430119848732    
  0.5605507021786326    0.5309360539276734    0.517826854510143    0.5309360123601549    0.5605506161903123    
  0.5895428308589838    0.6012678151481615    0.5723335424700784    0.5119815059070342    0.4803178445847949    
  0.5119814578410908    0.5367771823738946    0.582059388702114    0.600640510786887    0.5879881064131623    
  0.5637923819803983    0.5408249735578605    0.530936027153637    0.5408249358966254    0.5637924083572291    
  0.5879881109206916    0.6006405309151271    0.582059408578133    0.5367772269102352    0.5119814578410908    
  0.5723334620392369    0.582059383858358    0.5961763455816749    0.5951292235718827    0.5833929148552365    
  0.5720107991078442    0.5637924199061899    0.5605506746294225    0.5637924002044611    0.5720107803253831    
  0.5833929112586917    0.5951292176321764    0.5961763583885642    0.5820595210130287    0.5723334620392369    
  0.6012678174041605    0.6006405723375775    0.5951292100930349    0.5847997872283618    0.5798689783090302    
  0.5833928418651408    0.587988165931119    0.5895429036978321    0.5879880980637179    0.5833928722465246    
  0.5798689108856273    0.5847999181455321    0.5951292706069178    0.6006405070927229    0.6012678174041605    
  0.589542905967897    0.5879880930731799    0.5833929149265065    0.5798689395864709    0.5847998640270397    
  0.5951291957829037    0.6006406417954938    0.6012678720022465    0.6006405150674751    0.5951293600294612    
  0.5847998490654097    0.5798689557146458    0.5833929555125069    0.5879881341531336    0.589542905967897    
  0.5605506896165846    0.5637924098667205    0.5720108695253244    0.5833929387820609    0.595129340599856    
  0.5961762101845021    0.5820593796835981    0.5723334699569881    0.5820593168769397    0.5961763315366921    
  0.5951292381388255    0.5833928572818273    0.5720108688309287    0.5637924323383041    0.5605506896165846    
  0.5309359815439667    0.540824991922518    0.5637923638269224    0.5879880645623884    0.6006405899129724    
  0.5820593417819522    0.5367773021547431    0.5119814698899304    0.536777109454659    0.5820593455289647    
  0.600640459347138    0.5879880230661741    0.5637924005193633    0.5408249157132662    0.5309359815439667    
  0.5178268093878308    0.530936038829158    0.5605506749811305    0.5895428864871184    0.6012679139549343    
  0.5723334632769957    0.5119815701108875    0.48031785111599345    0.5119814666632422    0.5723334318775277    
  0.6012678433066522    0.5895428404489187    0.5605506735784428    0.5309361467752894    0.5178268093878308    
  0.4501618055762758    0.4649895080969245    0.5068699290173807    0.5605506569851968    0.5723334781383655    
  0.4752956168511808    0.33244973294857333    0.2721801714012889    0.33244967031300154    0.4752955779326939    
  0.5723335209555532    0.5605506871828227    0.506869963568038    0.46498952382244335    0.4501618055762758    
  0.4649894357277152    0.4776197172708397    0.5142949754269137    0.5637923153104017    0.5820594256652725    
  0.5091979254582486    0.38754543594919477    0.33244967533333264    0.3875453650679783    0.5091980378226529    
  0.5820593901171568    0.5637923498923236    0.5142949291512847    0.47761971490297916    0.4649894357277152    
  0.5068699019639017    0.5142949285911603    0.5373063280202606    0.5720108818468114    0.5961763148372718    
  0.5725001447799279    0.5091980018541581    0.4752956474576211    0.5091979768675997    0.5725000676361754    
  0.5961763635859846    0.5720108165293055    0.537306351371079    0.5142949202671633    0.5068699019639017    
  0.560550752069242    0.5637924198895827    0.5720108923984409    0.5833928412654182    0.5951292773393383    
  0.5961762946813669    0.5820594307510236    0.5723334262229189    0.5820594061678986    0.5961764465721765    
  0.5951291553578681    0.5833929070254985    0.5720107341219762    0.5637924224706463    0.560550752069242    
  0.5723334769090419    0.5820593290970317    0.596176344268228    0.5951292316015072    0.5833930024208316    
  0.5720108140803692    0.5637924617905292    0.5605506746269465    0.563792300833789    0.5720109420732893    
  0.5833928921238168    0.5951291917281195    0.5961762814999844    0.5820594007376004    0.5723334769090419    
  0.47529553997451013    0.5091979195038759    0.5725000733350503    0.5961764096011117    0.572010817883001    
  0.5373062481440224    0.5142949652686747    0.5068699490757061    0.5142949683502818    0.5373063222685528    
  0.5720108824570485    0.5961763285063697    0.5725001372225335    0.5091980477679002    0.47529553997451013    
  0.3324496624660153    0.38754539743222555    0.5091979897129122    0.5820593695747515    0.5637924606589143    
  0.5142948739332682    0.47761975320392824    0.4649894674119804    0.4776196783764344    0.5142949404470113    
  0.5637924531761519    0.5820593993137094    0.5091979856357344    0.38754546308750015    0.3324496624660153    
  0.2721801582393572    0.3324497222388226    0.4752955903592592    0.5723333577363308    0.5605508051749747    
  0.5068699101797521    0.4649895300963149    0.45016182078985123    0.4649894305408998    0.5068699010070653    
  0.5605506298330992    0.572333474871523    0.47529562736130815    0.33244970625771775    0.2721801582393572    
  0.3324496632974137    0.3875454791244871    0.509197958329642    0.5820593980855826    0.5637924242043056    
  0.5142949518090991    0.47761979424268963    0.46498945215737186    0.47761976187719596    0.5142950279665766    
  0.5637924171952053    0.5820594014522044    0.5091979551025456    0.3875453869744268    0.3324496632974137    
  0.4752955631866362    0.5091980240177868    0.5725001296794319    0.5961763623357239    0.5720107872550984    
  0.5373062675119296    0.5142950073512856    0.5068699235368925    0.5142949364519629    0.5373063198267335    
  0.5720107677026659    0.5961762768241199    0.5725000969713631    0.5091980566780021    0.4752955631866362    
  0.5723334538532862    0.5820593726883379    0.5961764017959149    0.5951292437965455    0.5833929286964205    
  0.5720107409387859    0.5637924742282316    0.560550636002416    0.5637923930423465    0.5720108586253876    
  0.5833928456827051    0.5951292866906991    0.5961763156830927    0.5820594458461907    0.5723334538532862    
  0.5605506778238611    0.5637923789500195    0.5720108110550337    0.583392968694713    0.5951293453424211    