#     DFTpy    
  CRYSTAL 
    
  PRIMVEC    
  3.9216206896551715    0.0    0.0    
  0.0    3.9216206896551715    0.0    
  0.0    0.0    3.9216206896551715    
  PRIMCOORD    
  4    1    
  Si    0.0    0.0    0.0    
  Si    0.0    1.9608103448275858    1.9608103448275858    
  Si    1.9608103448275858    0.0    1.9608103448275858    
  Si    1.9608103448275858    1.9608103448275858    0.0    
  BEGIN_BLOCK_DATAGRID_3D    
  3d_datagrid_density    
  BEGIN_DATAGRID_3D#0    
  17    17    17    
  0.0    0.0    0.0    
  3.9216206896551715    0.0    0.0    
  0.0    3.9216206896551715    0.0    
  0.0    0.0    3.9216206896551715    
  0.057763879813225116    0.10818930813755813    0.27697706823786616    0.3892287769325705    0.31977070014348413    
  0.22029696192111636    0.15901814735758232    0.12997197888067888    0.12169050064726832    0.12997204829385683    
  0.15901816928526494    0.22029694222982119    0.3197707297644686    0.3892287110419763    0.2769770371186883    
  0.10818929761910973    0.057763879813225116    0.108189241027566    0.16651255045543553    0.3212616047289643    
  0.3909401670579107    0.311874347220652    0.21924435502682235    0.1635646146910407    0.1373986583444408    
  0.12997197921379855    0.1373986943015048    0.16356465154129643    0.2192442465212828    0.31187435864244617    
  0.39094016777080765    0.32126159900417733    0.16651258215486398    0.108189241027566    0.27697711076133036    
  0.32126170917163377    0.39115384837227346    0.3734385051504836    0.29100210097247414    0.2205909438186327    
  0.18097583368428002    0.16356470818315327    0.1590182237587589    0.16356469217468267    0.1809758250499187    
  0.22059096884877927    0.29100214932730745    0.37343845174669643    0.39115386601568225    0.3212616626837428    
  0.27697711076133036    0.3892288026589242    0.39094019259796947    0.37343848664548496    0.32293812797841226    
  0.2684678043577843    0.2339779923152345    0.2205908948831585    0.21924425680182832    0.22029693008806336    
  0.21924432696773324    0.22059091537821254    0.23397794795537294    0.2684678867706482    0.3229381648116627    
  0.37343844952067884    0.39094012692138586    0.3892288026589242    0.31977068550902366    0.31187441445817876    
  0.29100210062146586    0.26846781801146824    0.25889633817406354    0.26846783327723295    0.2910021169553323    
  0.31187435521162993    0.3197707033221243    0.31187436648259237    0.2910021285093624    0.2684678078637099    
  0.2588963311025082    0.26846785270784007    0.29100206989619387    0.3118743464575658    0.31977068550902366    
  0.22029695637116256    0.21924432740471195    0.22059093874848892    0.23397794252914472    0.2684678458222769    
  0.3229382051187726    0.37343841715607884    0.3909401683716741    0.3892287546013016    0.3909402743211819    
  0.3734384108375437    0.32293816178534157    0.2684678565052598    0.23397793196719713    0.2205908690117528    
  0.21924431481187343    0.22029695637116256    0.15901818262461576    0.16356471834866484    0.1809757729723093    
  0.22059089902799883    0.29100211286245264    0.37343850713546745    0.391153849242211    0.321261642754013    
  0.2769770949089292    0.321261710683287    0.3911538462546721    0.3734384870585029    0.29100212742499937    
  0.22059094712047034    0.18097580470258004    0.1635646776292631    0.15901818262461576    0.12997199435450527    
  0.1373986855022875    0.1635646613812161    0.219244280400541    0.3118743514312162    0.3909402241876098    
  0.3212616161343615    0.1665125700670765    0.10818925148498737    0.16651259381186495    0.3212615734706598    
  0.39094014427234836    0.31187438908786597    0.21924434053491731    0.16356465792674912    0.13739866749016427    
  0.12997199435450527    0.1216904764660701    0.12997205012949162    0.1590181704517289    0.22029693905828285    
  0.31977074113159637    0.38922872526390667    0.27697702598091245    0.10818926221630457    0.05776389964962333    
  0.10818926730019701    0.2769770803892565    0.38922869097310975    0.31977069529082097    0.22029696282147673    
  0.15901814369246317    0.1299720026554575    0.1216904764660701    0.12997200719615676    0.13739866392851732    
  0.1635646676500199    0.21924427300975208    0.3118743265306235    0.3909402017882726    0.3212615847166189    
  0.16651257546667622    0.10818925961986521    0.16651259698142504    0.3212616227617805    0.3909401078014471    
  0.3118743846016811    0.21924430613050538    0.16356465375227586    0.1373987079114271    0.12997200719615676    
  0.15901817244324018    0.1635646694878462    0.18097580212457168    0.22059095306352208    0.2910020795115317    
  0.3734384950231016    0.3911539442557773    0.32126160540008647    0.2769770674717388    0.3212616925744864    
  0.39115386423677695    0.3734384965641557    0.2910021489533371    0.22059093854424397    0.18097580433570562    
  0.1635647209490601    0.15901817244324018    0.22029699256848045    0.21924430019102129    0.2205909180913902    
  0.23397799639481381    0.26846783583590683    0.3229381961152881    0.37343841284509843    0.39094015345036676    
  0.3892286430588207    0.39094022371011206    0.3734384579831076    0.3229381362570047    0.26846784754172515    
  0.23397796283456718    0.22059086046193513    0.21924428649740005    0.22029699256848045    0.3197706976041087    
  0.31187444596907066    0.2910020951545241    0.26846786448236126    0.2588962964298175    0.26846787851446074    
  0.2910020985281233    0.3118743165974005    0.31977073483311574    0.31187441972064434    0.2910020949613532    
  0.2684678306904667    0.2588963717893731    0.2684678676728057    0.2910020795008092    0.31187439837865416    
  0.3197706976041087    0.38922879780121766    0.3909401435482511    0.3734384560922959    0.32293813246381076    
  0.2684678362609047    0.2339779880400208    0.22059092800862173    0.21924428075386312    0.22029695251277517    
  0.21924434097899465    0.220590920747    0.23397797781991567    0.2684678277905258    0.32293810554582236    
  0.3734384303626246    0.3909401874416361    0.38922879780121766    0.27697707272090066    0.32126160734114184    
  0.3911537777418839    0.37343857464065083    0.2910020859995785    0.22059094442885058    0.180975807260035    
  0.16356467594556418    0.15901819558964436    0.163564708466772    0.18097582921988442    0.2205908913576665    
  0.2910021197661284    0.37343854552357514    0.3911538462226852    0.3212616819008413    0.27697707272090066    
  0.10818925844884447    0.16651257954474644    0.32126167758325985    0.390940169912282    0.3118743422943115    
  0.21924430011099966    0.1635646876948108    0.13739865855782746    0.1299719766472944    0.13739871460546602    
  0.16356465766895786    0.21924426555943208    0.311874384374787    0.39094012750947865    0.32126155069703644    
  0.16651255256932365    0.10818925844884447    0.057763879813225116    0.10818930813755813    0.27697706823786616    
  0.3892287769325705    0.31977070014348413    0.22029696192111636    0.15901814735758232    0.12997197888067888    
  0.12169050064726832    0.12997204829385683    0.15901816928526494    0.22029694222982119    0.3197707297644686    
  0.3892287110419763    0.2769770371186883    0.10818929761910973    0.057763879813225116    0.1081892665725112    
  0.1665126002740235    0.32126159228624984    0.3909401600528566    0.3118742955949866    0.21924427272574817    
  0.16356462850220088    0.13739864659730722    0.12997202993884635    0.13739870472619592    0.163564674043077    
  0.21924425423655258    0.31187438502821685    0.3909401268490547    0.3212616148906142    0.16651259174646815    
  0.1081892665725112    0.16651257708758724    0.22519211587637625    0.3546080106558223    0.3873169298923911    
  0.3030690939991342    0.21753308117418532    0.16733639929039662    0.14397590350640146    0.1373986445347742    
  0.1439759297333696    0.16733640789810766    0.2175330143497782    0.30306911008113135    0.38731698467908543    
  0.3546079364941381    0.22519215495618866    0.16651257708758724    0.32126165606207874    0.35460803551888886    
  0.39653028794697887    0.3616454194077525    0.2810855957313559    0.2170985752276125    0.18222931191007058    
  0.167336474664333    0.16356467546528988    0.1673364686765782    0.18222930794833586    0.21709853555768988    
  0.28108565013697406    0.36164542731634414    0.396530294576962    0.3546080495669675    0.32126165606207874    
  0.3909402072354883    0.3873169837943701    0.361645438048925    0.309774738688027    0.2585418326464917    
  0.2277031723721076    0.21709851271306713    0.21753303122208484    0.21924424886435195    0.21753305801619807    
  0.21709857443530117    0.22770309942628705    0.25854184210695597    0.3097747474683971    0.3616453823564422    
  0.38731691084731046    0.3909402072354883    0.31187432546024346    0.3030690997957486    0.28108556551494396    
  0.2585418328550188    0.2491603536995694    0.25854180819107764    0.2810856203822588    0.3030690615599665    
  0.311874332509841    0.3030690960245317    0.28108555062163465    0.2585417898116987    0.24916037234347616    
  0.2585418445224675    0.2810856214878773    0.30306908207035727    0.31187432546024346    0.2192443034887322    
  0.2175330281764874    0.2170985629325599    0.22770315321521664    0.2585417823494533    0.3097748206185594    
  0.36164533924234527    0.38731693669562556    0.3909401657610841    0.3873170477471168    0.3616454166889484    
  0.3097747111895918    0.25854182436241907    0.22770317196675882    0.21709848916365335    0.21753303359630305    
  0.2192443034887322    0.1635646905107621    0.16733651272242042    0.18222926470832507    0.21709854391015873    
  0.28108557474888174    0.3616455173974373    0.39653030607753326    0.3546080023728322    0.32126160464969467    
  0.3546080336001041    0.39653028385275946    0.3616454035829471    0.28108567829920117    0.2170985661967077    
  0.18222927401708636    0.16733646073426725    0.1635646905107621    0.1373986597404909    0.1439759208889496    
  0.1673364370069096    0.21753295793712848    0.3030691002213072    0.3873169482654173    0.35460799087888734    
  0.22519214341100913    0.16651257565370003    0.22519221340799425    0.3546079451931249    0.3873168779843531    
  0.30306907408735145    0.2175330168800097    0.16733645460089347    0.14397589142069647    0.1373986597404909    
  0.12997198012203054    0.13739871231859058    0.16356465709208828    0.21924435052319718    0.3118743803688078    
  0.3909401947486296    0.321261655910823    0.1665125500062618    0.10818927646598368    0.1665125940135    
  0.32126164373000304    0.3909401227086182    0.3118744149620682    0.21924428937033802    0.16356466127858327    
  0.13739868780580652    0.12997198012203054    0.13739865708294102    0.1439758864391022    0.1673364445880418    
  0.21753300803399786    0.30306905332931255    0.3873170354314838    0.3546079522476085    0.22519215035252751    
  0.16651253510003491    0.22519219133666796    0.35460797076978157    0.3873169265202791    0.3030690624505632    
  0.217533002874007    0.1673364156734189    0.14397594692092916    0.13739865708294102    0.16356466457184637    
  0.16733645060608185    0.1822292862565186    0.21709855404512346    0.281085580983776    0.361645444419654    
  0.3965302647917933    0.3546080315929418    0.32126163062506186    0.3546080830066259    0.39653030237980713    
  0.36164542423558965    0.28108565987006373    0.2170985754853084    0.1822293215379128    0.1673364928162896    
  0.16356466457184637    0.21924426426222438    0.21753303035447946    0.21709857439627808    0.22770316138372226    
  0.25854180111530534    0.30977479758485965    0.36164535591506347    0.38731691968885373    0.39094005305696705    
  0.38731700357849425    0.3616453402721966    0.309774670369364    0.258541814165452    0.22770315834656896    
  0.21709853040573848    0.21753297974306154    0.21924426426222438    0.3118744060059368    0.3030691280652099    
  0.2810856036806048    0.2585418226287808    0.24916042007621758    0.25854183521324436    0.28108560799367865    
  0.30306903355411074    0.31187437902132453    0.3030691700332962    0.28108559514931336    0.2585418230719165    
  0.2491604334080653    0.25854179028327573    0.28108557735297235    0.3030691494311904    0.3118744060059368    
  0.3909401955907041    0.38731695227829316    0.36164542258470733    0.3097747454115307    0.2585417849911256    
  0.22770315142337658    0.21709857335291877    0.217532973285444    0.21924428450782915    0.21753301688906823    
  0.21709850896109006    0.22770314757405483    0.258541822879861    0.30977472610763973    0.36164541770463055    
  0.38731698434468076    0.3909401955907041    0.3212616136541274    0.3546080239874282    0.39653024224157346    
  0.36164545379464674    0.28108558752938506    0.21709859318731087    0.18222928608484903    0.16733644494701652    
  0.16356469063799928    0.16733647105306795    0.18222928986684503    0.2170985376152737    0.28108566781830013    
  0.3616454298525211    0.39653025691946286    0.3546080087950386    0.3212616136541274    0.1665125628885685    
  0.2251921644634204    0.3546080032287795    0.38731699696267263    0.30306909234869545    0.21753301170996223    
  0.16733645539912317    0.14397591790853115    0.13739866871848852    0.14397595510826175    0.16733642652851125    
  0.21753302440957228    0.3030690722631113    0.3873169653035887    0.3546079183338869    0.22519213711453498    
  0.1665125628885685    0.1081892665725112    0.1665126002740235    0.32126159228624984    0.3909401600528566    
  0.3118742955949866    0.21924427272574817    0.16356462850220088    0.13739864659730722    0.12997202993884635    
  0.13739870472619592    0.163564674043077    0.21924425423655258    0.31187438502821685    0.3909401268490547    
  0.3212616148906142    0.16651259174646815    0.1081892665725112    0.27697706564492486    0.3212617224197737    
  0.39115383551469773    0.37343853879693245    0.29100210596515974    0.22059091383107257    0.18097578252617777    
  0.16356468519646153    0.15901818992468528    0.16356471479764123    0.1809757917463892    0.2205909124246869    
  0.29100218581752363    0.37343847931135504    0.3911538388680892    0.32126165790580014    0.27697706564492486    
  0.32126160001487153    0.35460799639218926    0.3965302807469216    0.3616454537734074    0.2810856004899758    
  0.2170986169816421    0.18222923349613282    0.16733646404121    0.16356466173881468    0.1673364649966359    
  0.18222927900695174    0.21709856014664905    0.2810856218278235    0.36164545506201584    0.39653025850039336    
  0.3546080410121087    0.32126160001487153    0.3911538797569175    0.39653036079486526    0.38270476364642453    
  0.32535509525404915    0.2576779264762356    0.21172185717160358    0.18969230610114926    0.18222930319928066    
  0.1809758204493223    0.1822293419153394    0.18969228045448058    0.21172186293264353    0.25767793764219926    
  0.3253550825086241    0.38270473925528964    0.39653033345863387    0.3911538797569175    0.37343857268373826    
  0.3616454549237342    0.3253550745800649    0.27589359656787926    0.23509485632071067    0.21458039323982733    
  0.21172181144727567    0.21709855909815265    0.2205909349768999    0.21709858829831738    0.21172182631461328    
  0.2145803030281029    0.23509491786711423    0.2758936270685617    0.3253550394538295    0.36164543609047645    
  0.37343857268373826    0.29100206678060847    0.2810856515039979    0.2576778861811855    0.23509490151098256    
  0.22599452035317866    0.2350949240427206    0.25767793629575203    0.2810856064614559    0.29100209403593974    
  0.28108565440756916    0.2576779258133636    0.23509485745543432    0.22599450733205761    0.235094886185155    
  0.2576779067974249    0.28108560547224715    0.29100206678060847    0.22059092004296277    0.21709857917493167    
  0.21172182360707537    0.21458033545575733    0.23509489298706754    0.2758937407084501    0.325355013157585    
  0.36164545359101763    0.3734384794786467    0.3616455657460138    0.32535502134126476    0.27589363599062744    
  0.23509492636993973    0.2145803406047014    0.21172178593198412    0.21709860364069092    0.22059092004296277    
  0.18097581434854967    0.18222935476898572    0.18969222008637796    0.21172182225721528    0.25767788023783417    
  0.32535509204469504    0.38270480220717307    0.3965302525112637    0.3911538939158913    0.39653035757922755    
  0.38270481559588254    0.3253550512896414    0.257677930441907    0.21172185689160905    0.18969226805738346    
  0.18222932572996633    0.18097581434854967    0.16356470394948747    0.16733647518523154    0.1822292840952169    
  0.2170985671233422    0.28108560860323134    0.36164551422277796    0.39653030012623497    0.35460799938228654    
  0.3212615833913141    0.35460804801654    0.39653023519961406    0.36164542830641555    0.2810856363287037    
  0.21709859195894368    0.18222930260045728    0.16733645772142763    0.16356470394948747    0.1590181746964928    
  0.16356471907729195    0.18097578000592435    0.22059096272828738    0.2910021235142413    0.37343848651340183    
  0.3911538480890396    0.3212616220800472    0.2769770754445075    0.3212616842214179    0.39115385505276895    
  0.37343845153403826    0.2910021168324532    0.22059093746128064    0.18097579425585597    0.16356470882225851    
  0.1590181746964928    0.16356471198202252    0.16733644790150162    0.18222930669314485    0.21709856875084632    
  0.2810855883060733    0.3616455056403132    0.39653023418982947    0.3546080065825077    0.32126159156150347    
  0.35460805159824554    0.3965302490250086    0.36164542578906095    0.2810856336238829    0.21709857539369465    
  0.18222927415363507    0.1673365195746233    0.16356471198202252    0.18097580791773715    0.18222930818023028    
  0.18969221054251004    0.21172185875977756    0.2576778756988252    0.32535506235562067    0.3827047979266368    
  0.39653027867107393    0.39115385718020207    0.3965303565407475    0.38270477391195684    0.3253551003026425    
  0.25767792400171174    0.2117218628017082    0.18969226182038684    0.18222933881023595    0.18097580791773715    
  0.22059097369126868    0.21709856683971426    0.2117218280286479    0.21458038328382    0.23509488891457203    
  0.2758936996339087    0.32535502098669516    0.3616454310254013    0.3734384355047497    0.36164551136227874    
  0.32535503011781103    0.27589361226200776    0.235094924247741    0.21458035592079405    0.21172179433655777    
  0.21709853746758223    0.22059097369126868    0.29100205588832834    0.28108566792430023    0.2576779002094266    
  0.23509488360202843    0.22599452138829274    0.23509490989120832    0.25767790061135365    0.2810855764430566    
  0.2910021617379982    0.2810856360388902    0.2576778772251713    0.23509492050486003    0.22599455728293483    
  0.23509491862719964    0.2576778670846544    0.2810856657345015    0.29100205588832834    0.37343857623213056    
  0.36164546549494236    0.32535508988501394    0.2758936377860409    0.23509486819904454    0.21458037928281887    
  0.2117218031404018    0.21709852338717656    0.2205909460212702    0.21709861066116076    0.21172181043612906    
  0.21458032649092185    0.23509489607505732    0.27589360200642726    0.32535501003422385    0.3616454990110937    
  0.37343857623213056    0.3911538523819831    0.3965303479972385    0.382704714608658    0.3253551390845465    
  0.25767788416700993    0.21172183888621612    0.1896922413144719    0.18222929886953224    0.18097584509684386    
  0.1822293302476401    0.1896922690985262    0.21172182561002964    0.25767789736709745    0.32535509698866943    
  0.38270476137104686    0.39653037136307173    0.3911538523819831    0.32126166486599256    0.35460804592191325    
  0.3965303098077746    0.3616454134812758    0.2810855988783696    0.21709855721341922    0.18222930357811384    
  0.16733641376178046    0.1635646756309069    0.16733651219121878    0.1822292712685931    0.21709850201581407    
  0.28108565604856156    0.36164540826237757    0.396530256026381    0.354607971825802    0.32126166486599256    
  0.27697706564492486    0.3212617224197737    0.39115383551469773    0.37343853879693245    0.29100210596515974    
  0.22059091383107257    0.18097578252617777    0.16356468519646153    0.15901818992468528    0.16356471479764123    
  0.1809757917463892    0.2205909124246869    0.29100218581752363    0.37343847931135504    0.3911538388680892    
  0.32126165790580014    0.27697706564492486    0.38922875247616645    0.3909401805101635    0.3734384635631741    
  0.32293815904417755    0.2684678017248522    0.2339779106250139    0.22059091880532494    0.2192442944344982    
  0.22029703665212283    0.2192443060067826    0.2205909296088442    0.23397797774724347    0.2684678716249098    
  0.32293816739551057    0.3734385229801719    0.39094020693873716    0.38922875247616645    0.3909401254576672    
  0.38731691301096005    0.36164539865203854    0.30977470201738383    0.25854180669259014    0.22770318036922174    
  0.21709849777950704    0.2175329741307065    0.2192442564308137    0.21753302018921875    0.21709853331812673    
  0.22770313862571698    0.25854186110902166    0.3097747509547782    0.36164535197744413    0.3873169734980981    
  0.3909401254576672    0.3734385028319468    0.3616454707638267    0.32535504626132283    0.2758936059176374    
  0.23509489163744465    0.21458034735770778    0.21172186223784487    0.21709857252499443    0.22059092113903384    
  0.2170985714672678    0.21172183710283038    0.21458034440877483    0.23509490366271257    0.27589363568917874    
  0.3253550664060738    0.36164548844939964    0.3734385028319468    0.3229381863634881    0.3097747487839379    
  0.27589361696741804    0.23811101841320917    0.21291801804640562    0.20630472662244717    0.21458032468665814    
  0.22770311497288645    0.23397793365436667    0.22770317190205772    0.2145803263890878    0.206304641410109    
  0.21291810440196823    0.23811099860136659    0.2758935768370762    0.30977470848136657    0.3229381863634881    
  0.2684678142643007    0.25854180794022996    0.23509489674927292    0.212918105911531    0.20421066453336634    
  0.21291806628893317    0.23509488860479938    0.25854180689376766    0.26846780561083267    0.2585418570752912    
  0.23509485873526542    0.2129180356651988    0.20421068116520413    0.21291809363987996    0.23509487449185837    
  0.2585418342323312    0.2684678142643007    0.23397797185781896    0.22770316201826224    0.21458037927001328    
  0.20630467647458342    0.2129180397394089    0.23811108625410832    0.27589359155406756    0.3097747342874696    
  0.3229381426670534    0.3097748108931911    0.2758936120215472    0.238111020604568    0.21291808025862724    
  0.206304716032124    0.21458028997273831    0.2277031736360244    0.23397797185781896    0.22059097280660558    
  0.21709861367426223    0.21172183154786012    0.21458033126373033    0.23509488113830349    0.2758936932363852    
  0.32535511748838103    0.36164543227340606    0.3734384904434878    0.36164544108384883    0.3253550769178103    
  0.27589364057341653    0.2350949214482523    0.2145803426092442    0.21172182327460534    0.2170985890090271    
  0.22059097280660558    0.2192443106040452    0.21753303231092433    0.21709852330269094    0.22770309829413246    
  0.25854182213141175    0.30977476063705894    0.36164541802079825    0.38731688936518216    0.39094018999048197    
  0.3873170425916215    0.36164537485854464    0.30977469032237315    0.2585418023859405    0.22770315253611503    
  0.21709852219479656    0.21753299372575852    0.2192443106040452    0.22029692830736566    0.21924431468468666    
  0.22059092597289598    0.23397800310759254    0.2684678115754844    0.322938120125275    0.37343849903335996    
  0.3909401155145083    0.38922870724669145    0.39094017861934366    0.3734385156498333    0.32293807258642815    
  0.26846787186701077    0.23397793675291842    0.22059091554641427    0.2192443236918806    0.22029692830736566    
  0.219244274259797    0.2175330117772048    0.21709856097074645    0.22770314796989408    0.2585418294930033    
  0.3097747732623508    0.3616453580456874    0.38731690955036085    0.3909401034243413    0.38731704570255265    
  0.3616453933434579    0.30977469066597507    0.2585418483226755    0.22770310289775647    0.2170985172401452    
  0.21753303071756247    0.219244274259797    0.22059090936841952    0.21709855645508794    0.2117218370096027    
  0.21458031594982604    0.2350948983288393    0.2758936479239026    0.32535506919689106    0.36164548308828975    
  0.3734385012899279    0.36164549807420415    0.3253551082016124    0.275893636347972    0.23509495214816972    
  0.21458035586650198    0.21172182230394962    0.2170986165042947    0.22059090936841952    0.23397796056149361    
  0.2277031421356915    0.2145803285189811    0.20630467422870288    0.2129180531350748    0.23811105072515926    
  0.27589355808449123    0.3097747162311772    0.32293808149871905    0.3097747560335623    0.2758935844634063    
  0.23811099622424145    0.21291810231352823    0.20630466887710622    0.2145802910997219    0.22770308643302295    
  0.23397796056149361    0.2684678683586167    0.25854183562500754    0.23509488344802618    0.21291809503907583    
  0.20421070143826947    0.21291808469739862    0.23509491587116338    0.2585417766638082    0.26846787392052435    
  0.25854186023719355    0.23509492087935457    0.21291804529529443    0.2042107236085196    0.21291806246370434    
  0.23509488327439723    0.2585418783880492    0.2684678683586167    0.3229381769351594    0.309774741720724    
  0.2758935972521873    0.2381110183540193    0.21291807057883982    0.20630471411193824    0.21458032032172428    
  0.2277031430432941    0.2339779089692141    0.2277031845501232    0.21458029268644116    0.20630470765632838    
  0.21291807807391847    0.23811099946973177    0.27589359921105744    0.3097747375705312    0.3229381769351594    
  0.37343845318272034    0.36164546283606896    0.32535506164912414    0.2758935991481974    0.23509492283996128    
  0.21458038482782246    0.21172185291015438    0.21709852701958038    0.2205909837345169    0.21709857978185904    
  0.2117218497118906    0.2145803202866053    0.23509489834078828    0.2758935872139304    0.3253550561823401    
  0.3616454337044505    0.37343845318272034    0.3909401307527142    0.3873169651009571    0.361645449282502    
  0.3097747595659679    0.25854184532294217    0.22770316927354456    0.21709851805492777    0.21753300484573862    
  0.21924428724627598    0.21753308548770114    0.21709852357882312    0.2277031549130605    0.25854184977848    
  0.3097747434308302    0.36164536168712674    0.3873169816095225    0.3909401307527142    0.38922875247616645    
  0.3909401805101635    0.3734384635631741    0.32293815904417755    0.2684678017248522    0.2339779106250139    
  0.22059091880532494    0.2192442944344982    0.22029703665212283    0.2192443060067826    0.2205909296088442    
  0.23397797774724347    0.2684678716249098    0.32293816739551057    0.3734385229801719    0.39094020693873716    
  0.38922875247616645    0.3197706454919801    0.3118744146792873    0.29100209887305123    0.2684678623203863    
  0.2588962966512068    0.26846785529560985    0.2910020686754059    0.311874317891536    0.31977072295051856    
  0.31187442750922295    0.2910020826191535    0.26846785518579575    0.2588963392135387    0.2684678474501643    
  0.2910020665711772    0.31187441306282965    0.3197706454919801    0.311874338369169    0.3030690606428936    
  0.28108557280057195    0.25854184031430233    0.2491603866365289    0.25854186352548036    0.2810855678382734    
  0.3030690594459605    0.3118743233071325    0.3030691423161184    0.2810856057216626    0.25854180898828505    
  0.24916040216912305    0.25854182392163544    0.2810855926470885    0.30306909638422835    0.311874338369169    
  0.2910021482764656    0.28108565811629976    0.25767787513141294    0.23509491222619086    0.2259944919674171    
  0.23509490477485628    0.2576779560295205    0.2810856347915417    0.29100216227018094    0.2810856236973352    
  0.25767793784743837    0.23509492665744472    0.22599452898252362    0.23509489836287367    0.25767787886521876    
  0.2810856537394409    0.2910021482764656    0.2684678988512909    0.2585418333492864    0.23509488749339919    
  0.2129180778842383    0.2042106645065314    0.2129181106491102    0.2350948910995745    0.258541805934319    
  0.26846779803270915    0.25854191225415546    0.23509486846664754    0.2129180786070045    0.20421071324418172    
  0.21291808959712757    0.23509484427058913    0.2585418452800493    0.2684678988512909    0.2588963224188752    
  0.24916042850090517    0.22599449647008163    0.20421065763504465    0.19579989002805726    0.20421069246666362    
  0.22599451392926923    0.24916036749450213    0.25889631818189934    0.24916040624675373    0.2259945160401179    
  0.20421064564583266    0.19579992090643014    0.204210700946331    0.22599448760020233    0.24916038816315123    
  0.2588963224188752    0.2684678645094622    0.2585418946766706    0.23509489784110318    0.2129181009120937    
  0.20421069603536324    0.21291813753683064    0.23509485825488088    0.25854183012004806    0.26846786441443965    
  0.258541932001227    0.2350948539493642    0.21291809308533355    0.20421070513823078    0.21291806886632747    
  0.23509481609592148    0.25854189152793655    0.2684678645094622    0.29100214294494353    0.28108567501345627    
  0.25767786719962527    0.2350948598467285    0.22599446972059403    0.23509492106379296    0.2576779076274863    