#     DFTpy    
  CRYSTAL 
    
  PRIMVEC    
  4.06251724137931    0.0    0.0    
  0.0    4.06251724137931    0.0    
  0.0    0.0    4.06251724137931    
  PRIMCOORD    
  4    1    
  Si    0.0    0.0    0.0    
  Si    0.0    2.031258620689655    2.031258620689655    
  Si    2.031258620689655    0.0    2.031258620689655    
  Si    2.031258620689655    2.031258620689655    0.0    
  BEGIN_BLOCK_DATAGRID_3D    
  3d_datagrid_density    
  BEGIN_DATAGRID_3D#0    
  19    19    19    
  0.0    0.0    0.0    
  4.06251724137931    0.0    0.0    
  0.0    4.06251724137931    0.0    
  0.0    0.0    4.06251724137931    
  0.05987825371927409    0.10282978448733976    0.2498423221893819    0.38088115336349015    0.3439591654629568    
  0.2421129637284824    0.1671088260339328    0.12572869864015895    0.10626141595944881    0.10063712002767418    
  0.10626140551651884    0.12572870759798135    0.1671088169272862    0.24211297643105184    0.3439591843037162    
  0.38088114530252937    0.2498423065396994    0.10282977724370591    0.05987825371927409    0.10282976862087896    
  0.1520776630764761    0.2923444173404028    0.38798293731298683    0.3351131255168319    0.23697874466175609    
  0.16728419177041526    0.12910679783177206    0.11131488168094233    0.10626142167316943    0.11131488057737093    
  0.12910679971862687    0.16728418045782983    0.23697874206165828    0.3351131415864998    0.38798293946509355    
  0.2923444142972748    0.1520776742997572    0.10282976862087896    0.24984233480333515    0.29234443457884873    
  0.3732876826116911    0.38262850944109333    0.3075601345289697    0.22504233496718706    0.170819232976315    
  0.14192632937375574    0.1291067912752222    0.125728703163338    0.12910679940960076    0.1419263260064429    
  0.17081924352990355    0.22504234649845337    0.3075601379021999    0.38262849961077583    0.3732876558693474    
  0.2923444418472698    0.24984233480333515    0.3808811434671113    0.38798294228698593    0.3826284980714646    
  0.3354889542632723    0.2686616781134103    0.2151283392203259    0.18422424026305503    0.1708192353882995    
  0.1672842132722142    0.16710882007182648    0.16728418317226462    0.17081923695317208    0.18422426040397372    
  0.21512834565003744    0.26866168559844866    0.3354889475179861    0.38262850015733374    0.38798295110497005    
  0.3808811434671113    0.3439592000884305    0.3351131343484438    0.30756011801676125    0.2686616911668043    
  0.23484372126320585    0.21662450035950304    0.21512836594521775    0.22504235183028057    0.2369787492504503    
  0.2421129807808759    0.2369787586902057    0.22504235064912465    0.21512835586581766    0.2166245118882423    
  0.23484371726269543    0.2686616913897133    0.307560119182619    0.3351131331351691    0.3439592000884305    
  0.24211297640962984    0.23697875300653293    0.22504235043420462    0.21512836472617383    0.21662451613520803    
  0.23484372229730607    0.2686616794347987    0.3075601084096848    0.33511315137349384    0.34395917392153613    
  0.3351131274693199    0.30756014044633057    0.26866169634221687    0.23484372934467437    0.2166245173346183    
  0.21512834331873265    0.2250423294682711    0.2369787603082589    0.24211297640962984    0.16710881238609177    
  0.16728419026515115    0.17081923943702818    0.1842242522552315    0.21512833643912643    0.26866168273297625    
  0.3354889623062325    0.38262845775361615    0.38798297148430844    0.3808811321951513    0.38798293591676913    
  0.3826284696660698    0.3354889545994903    0.26866168296663334    0.2151283488056179    0.18422425497706313    
  0.170819234370725    0.1672842049282767    0.16710881238609177    0.12572871007537348    0.12910680054748477    
  0.141926334338509    0.1708192429968486    0.22504235551426713    0.3075601102889739    0.3826285150802967    
  0.37328770269996353    0.29234444428811607    0.2498423032446801    0.2923444293850397    0.3732877085608639    
  0.38262849059458176    0.3075601327643578    0.2250423356598358    0.17081923701076257    0.1419263252828224    
  0.12910679793561422    0.12572871007537348    0.10626141384110506    0.11131487788406791    0.1291067945156461    
  0.16728419704309536    0.23697873466413447    0.33511314363966327    0.3879829488069474    0.2923444207825697    
  0.15207768945589317    0.10282977387503989    0.15207768364235086    0.2923444307427534    0.38798293901711767    
  0.3351131592140306    0.23697874999171342    0.16728418784272478    0.1291067750008997    0.1113148863237402    
  0.10626141384110506    0.10063713333140042    0.10626141627052059    0.12572870544737708    0.16710881289767016    
  0.24211295077568395    0.34395916974208113    0.38088116051123    0.2498422997492236    0.10282977028617644    
  0.05987824905781964    0.10282976326383247    0.24984231657704312    0.38088115659404126    0.34395918239009643    
  0.24211297468115062    0.16710880470471176    0.1257286999398917    0.1062614106843713    0.10063713333140042    
  0.10626141176309165    0.11131487609611888    0.12910678348030133    0.16728419323754695    0.236978755777802    
  0.33511311922721304    0.3879829476810186    0.29234444445447405    0.15207768594879673    0.10282976909495682    
  0.15207768139495273    0.29234444547519983    0.38798293654546073    0.33511314215006766    0.2369787471821799    
  0.16728420387037976    0.12910678436196024    0.11131488403160723    0.10626141176309165    0.12572870969061706    
  0.12910679286398144    0.1419263311035568    0.17081925446601245    0.22504232685814637    0.30756011113189563    
  0.3826285138080335    0.3732876831748326    0.29234443987367315    0.2498423105284859    0.29234445597462566    
  0.37328770126077127    0.3826285028853346    0.3075601389064465    0.22504234860947808    0.17081923478896174    
  0.14192631586692867    0.12910680521429727    0.12572870969061706    0.16710882674246974    0.1672841879029431    
  0.17081925475162404    0.1842242454905432    0.21512835269015004    0.26866168108702065    0.3354889631447299    
  0.38262846855099447    0.38798294966433    0.38088111458574714    0.3879829179751888    0.3826284778811665    
  0.3354889695089029    0.26866168408718627    0.21512834886021745    0.1842242456362124    0.17081924035615972    
  0.16728418643748555    0.16710882674246974    0.24211298068927609    0.23697875734242377    0.22504234179490143    
  0.21512834317902937    0.21662451825957693    0.2348437288053283    0.26866170217306695    0.30756013733965637    
  0.3351131307423893    0.34395917983344493    0.33511312698735307    0.3075601533446567    0.26866170074886825    
  0.2348437128470831    0.2166245091934901    0.21512835456391025    0.22504233471818375    0.23697875720734246    
  0.24211298068927609    0.343959177457518    0.33511311795029064    0.30756012049704473    0.2686616977886481    
  0.2348437154647358    0.21662451056547657    0.2151283499524552    0.2250423396226977    0.23697875486418613    
  0.24211297106211824    0.23697876058925535    0.2250423457343865    0.2151283618616212    0.2166245192080138    
  0.2348437291063916    0.2686616853676123    0.30756010358891683    0.3351131307715723    0.343959177457518    
  0.3808811589277447    0.38798293992673344    0.3826284910900547    0.3354889592027378    0.26866167713814865    
  0.21512833526782885    0.18422425216071073    0.1708192422014492    0.16728420848285724    0.16710881824837961    
  0.1672841925447458    0.170819220807441    0.18422425777814608    0.2151283419729224    0.26866168453005346    
  0.33548893998203105    0.38262850163884404    0.3879829415687402    0.3808811589277447    0.24984231459788347    
  0.2923444342342257    0.373287695647323    0.3826285108400863    0.30756012573138847    0.2250423620076846    
  0.17081924707983706    0.14192633413775047    0.12910679532973093    0.1257287003936135    0.1291067984708543    
  0.1419263465597386    0.17081923133849175    0.22504235052298469    0.30756012947269173    0.3826284891467691    
  0.3732876629507002    0.2923444206950185    0.24984231459788347    0.10282977756889858    0.15207768375900602    
  0.29234442821856194    0.3879829657656499    0.3351131059380985    0.23697874940828628    0.16728418602178308    
  0.1291067945117659    0.11131488730894946    0.10626141439283443    0.11131488733500416    0.12910679360619406    
  0.16728419772721964    0.23697876020705455    0.3351131325428899    0.3879829521979712    0.29234441967142283    
  0.15207767544175607    0.10282977756889858    0.05987825371927409    0.10282978448733976    0.2498423221893819    
  0.38088115336349015    0.3439591654629568    0.2421129637284824    0.1671088260339328    0.12572869864015895    
  0.10626141595944881    0.10063712002767418    0.10626140551651884    0.12572870759798135    0.1671088169272862    
  0.24211297643105184    0.3439591843037162    0.38088114530252937    0.2498423065396994    0.10282977724370591    
  0.05987825371927409    0.102829779210692    0.1520776878730326    0.2923444410501054    0.38798292937049395    
  0.3351131379667055    0.23697875446378347    0.16728418788573135    0.12910678847074156    0.11131489172980856    
  0.1062614071737139    0.1113148725174786    0.1291067826390332    0.1672841965568486    0.2369787719631761    
  0.3351131390282357    0.38798292804999623    0.2923444339161906    0.15207768196170843    0.102829779210692    
  0.15207769150015024    0.2027314235627815    0.32717716156130916    0.38963391505172007    0.32538135580023864    
  0.23162305349199275    0.16706996613345834    0.13199746776918403    0.11582412832678023    0.11131488389949198    
  0.1158241231172138    0.1319974736607024    0.16706995789643983    0.23162303966650494    0.3253813357527515    
  0.3896339272038524    0.32717714691751826    0.202731445441348    0.15207769150015024    0.29234443701165    
  0.3271771695671621    0.38488982628363777    0.37425573576846466    0.296891464527411    0.21925674850289456    
  0.16945017652403918    0.14332924694056187    0.1319974722278631    0.12910679151290058    0.1319974865802535    
  0.14332923953536297    0.16945016386268796    0.21925675442067105    0.29689146863019844    0.3742557393193679    
  0.384889788203412    0.3271771890685573    0.29234443701165    0.3879829524710281    0.3896338756569099    
  0.3742557182463645    0.3231653208417373    0.25868189346734205    0.20880731419221749    0.18085208354008409    
  0.16945014459552893    0.1670699572083611    0.16728419788365045    0.1670699417020626    0.1694501695320332    
  0.1808520707184871    0.2088073187368369    0.258681924518091    0.323165306042931    0.3742557037326052    
  0.38963390012316745    0.3879829524710281    0.33511314408636766    0.3253813538654544    0.2968914802916509    
  0.25868190967385507    0.22636595136949383    0.2094376748034182    0.20880733809536442    0.21925673994798292    
  0.2316230492438228    0.2369787609792444    0.23162305482798845    0.21925675759331628    0.20880731229643734    
  0.20943765993037536    0.22636595539729576    0.2586819308627575    0.29689144902952813    0.3253813528254241    
  0.33511314408636766    0.2369787580960408    0.23162304144761392    0.21925673072916135    0.2088073435530299    
  0.2094376395585586    0.2263659536923471    0.2586819198310024    0.296891485461662    0.32538136475985374    
  0.3351131412432096    0.3253813485736956    0.29689146681638046    0.2586819114570007    0.22636595653062808    
  0.2094376609513359    0.20880731539912276    0.21925672818780587    0.2316230660243479    0.2369787580960408    
  0.16728418977763856    0.16706996650327763    0.16945015715411207    0.18085207651243224    0.20880729878501303    
  0.25868190932762175    0.32316531490151895    0.3742556746792721    0.3896339180014851    0.38798293263969974    
  0.38963386852967635    0.37425571413914116    0.32316531105186624    0.25868191568129295    0.20880732072229996    
  0.18085208625923668    0.1694501727314965    0.1670699588808327    0.16728418977763856    0.12910680467813168    
  0.13199747260959643    0.1433292476074564    0.1694501642888634    0.21925674703741985    0.29689146264285243    
  0.37425573086988556    0.38488981616371565    0.3271771717445431    0.29234443236829005    0.3271771720080031    
  0.38488983496327367    0.37425570096391103    0.2968914772293055    0.21925673782403202    0.16945015500605898    
  0.14332923121442362    0.13199747217223226    0.12910680467813168    0.11131488751203913    0.11582411899933004    
  0.1319974618005467    0.16706997090396675    0.23162303787173036    0.3253813655918721    0.38963390357961003    
  0.32717716583754464    0.20273143948677647    0.15207768418242326    0.2027314448622623    0.32717717275624414    
  0.38963389720670655    0.32538136374981336    0.23162303996082087    0.1670699773861704    0.13199748164300695    
  0.11582412140637685    0.11131488751203913    0.10626142292554092    0.11131488553182663    0.12910680753675244    
  0.1672842043031134    0.236978744695753    0.33511313963052325    0.38798294678918366    0.2923443994496977    
  0.15207768129986318    0.10282977232390125    0.1520776616130153    0.2923444467987374    0.3879829234486672    
  0.33511314452171986    0.2369787481786755    0.16728417068757567    0.12910679322873375    0.11131488079693012    
  0.10626142292554092    0.11131488707927989    0.1158241171453263    0.13199747577182888    0.1670699665867387    
  0.23162307425956788    0.32538136663825296    0.3896338938560334    0.32717719211641494    0.20273144563502055    
  0.15207768140408182    0.20273144514922406    0.3271771707937867    0.38963389655891434    0.32538134017155285    
  0.2316230432801475    0.16706997989699665    0.13199746403361243    0.11582412909021945    0.11131488707927989    
  0.12910679977034736    0.13199747525813088    0.14332923592233487    0.16945018062039258    0.2192567349657348    
  0.2968914937845951    0.37425572744660573    0.38488978170321353    0.32717719179195304    0.2923444362554958    
  0.32717718990653694    0.3848897953217065    0.37425571507416616    0.2968914974229096    0.2192567234723549    
  0.16945016410449473    0.1433292240685321    0.13199747824966196    0.12910679977034736    0.1672841873404398    
  0.1670699730381663    0.16945015398517208    0.180852069012523    0.20880730995170485    0.2586819103411755    
  0.323165318362922    0.37425569692583144    0.3896339196736717    0.3879829277706939    0.38963387508285224    
  0.37425568454449376    0.3231653104875708    0.25868190649864314    0.2088073149679211    0.1808520718286372    
  0.16945016355492132    0.16706995108113168    0.1672841873404398    0.23697875428871878    0.23162304763110375    
  0.2192567476434053    0.2088073289175322    0.20943766923148596    0.22636595914058882    0.25868192917581495    
  0.2968914733116776    0.3253813797431044    0.33511314722821134    0.32538135256592926    0.2968914810498664    
  0.2586819174541816    0.2263659441891481    0.20943766697204735    0.20880732262075688    0.21925672743277258    
  0.23162307583266295    0.23697875428871878    0.33511314388800906    0.3253813683945707    0.29689146085521834    
  0.2586819345553853    0.22636594569803406    0.20943766636110828    0.2088073246654293    0.21925672438296934    
  0.2316230525969896    0.23697875212186145    0.2316230359938558    0.21925674965643777    0.20880732911122923    
  0.20943765332326625    0.22636596350489221    0.25868190978657846    0.2968914788038372    0.3253813421927393    
  0.33511314388800906    0.3879829413709997    0.3896338979609269    0.3742557210825397    0.32316531494478407    
  0.2586818924124238    0.20880731557713325    0.18085209152628418    0.16945015085175025    0.1670699749729628    
  0.16728417434746118    0.16706995153061896    0.16945014972362366    0.18085207916883245    0.20880732615104847    
  0.2586819035919606    0.32316532417349303    0.37425571253391693    0.3896339164293244    0.3879829413709997    
  0.2923444333625714    0.32717716445366757    0.38488980037029324    0.37425572635356097    0.29689146759174256    
  0.21925674263941383    0.16945015978244496    0.14332924596067773    0.13199747665911063    0.1291067954117206    
  0.13199747696852757    0.14332924265698624    0.16945015914390207    0.21925672926718992    0.29689148861385195    
  0.37425570588320317    0.38488978343178504    0.32717719068737355    0.2923444333625714    0.15207768334509147    
  0.2027314343005498    0.3271771667669395    0.38963391550501747    0.3253813384346096    0.23162306435543528    
  0.16706995808610406    0.1319974695930938    0.1158241340190679    0.11131488434766254    0.11582412450901071    
  0.1319974769162634    0.16706996585708692    0.2316230607696858    0.32538135321581474    0.3896339143103516    
  0.32717717789978384    0.20273143375254746    0.15207768334509147    0.102829779210692    0.1520776878730326    
  0.2923444410501054    0.38798292937049395    0.3351131379667055    0.23697875446378347    0.16728418788573135    
  0.12910678847074156    0.11131489172980856    0.1062614071737139    0.1113148725174786    0.1291067826390332    
  0.1672841965568486    0.2369787719631761    0.3351131390282357    0.38798292804999623    0.2923444339161906    
  0.15207768196170843    0.102829779210692    0.24984232917545707    0.2923444457599955    0.37328769846053317    
  0.38262847927937615    0.30756010952591445    0.2250423431077638    0.17081924859770906    0.14192632624352014    
  0.12910680680623954    0.1257286976798218    0.1291067921518496    0.14192632691426707    0.17081923885339814    
  0.2250423382366315    0.3075601300348472    0.3826284800909246    0.37328768349434066    0.2923444440080897    
  0.24984232917545707    0.2923444484126168    0.3271771558219173    0.38488979692266584    0.37425572891151015    
  0.29689146260078464    0.21925674974841242    0.16945014832628727    0.14332923464179526    0.13199747790490576    
  0.12910680478628173    0.13199748550380483    0.14332925071962424    0.16945015937896946    0.21925672877121527    
  0.29689146534671157    0.3742557372792979    0.3848897793283678    0.32717715717349    0.2923444484126168    
  0.37328769413973273    0.3848898032725703    0.3881297838428908    0.34255210505587796    0.268325570572222    
  0.2059234292619049    0.16845013663525515    0.15021785915826974    0.14332923345110654    0.14192632597416563    
  0.14332925113202805    0.15021784196842408    0.16845015392576235    0.20592343514269174    0.2683255653132599    
  0.3425521140907869    0.38812975052038173    0.3848897996213048    0.37328769413973273    0.3826284913563382    
  0.374255698392028    0.34255211528549745    0.28864302096697975    0.23319084525344946    0.19394397977416744    
  0.17421658000967968    0.16845013334794895    0.16945015443798708    0.17081924834664114    0.16945014996648639    
  0.16845013822548008    0.17421658348906827    0.19394398420276518    0.2331908775705718    0.28864301009136967    
  0.34255210329789615    0.37425572182789846    0.3826284913563382    0.3075601277123074    0.29689146447310805    
  0.26832556684535064    0.23319086120624122    0.20521924127484378    0.1920168030783921    0.19394398839502325    
  0.20592343417256223    0.21925673268642923    0.225042343174056    0.219256742234365    0.20592345081383348    
  0.19394396592201973    0.19201679275145145    0.20521923864574446    0.23319087237046537    0.2683255628238097    
  0.29689148334464616    0.3075601277123074    0.22504235633092298    0.21925674668192166    0.20592342514070608    
  0.19394400364324452    0.19201679324812038    0.20521923249473117    0.23319086442893716    0.2683255616756545    
  0.296891474293488    0.3075601383071752    0.2968914704195314    0.26832557716540606    0.2331908690191636    
  0.20521923736868758    0.1920168079933112    0.193943980957197    0.2059234147698013    0.2192567470665379    
  0.22504235633092298    0.17081924057234926    0.16945015902615912    0.16845012639143245    0.17421658157369913    
  0.19394395997597083    0.23319086874359357    0.28864302890896726    0.3425520842558162    0.37425573501289605    
  0.38262848190074555    0.3742557055738434    0.3425520986118512    0.28864302860366414    0.23319085797405548    
  0.19394396743012343    0.17421658111194624    0.1684501494979236    0.16945015730580876    0.17081924057234926    
  0.14192634090482648    0.14332923893781135    0.15021786596944317    0.16845013351105756    0.20592342894407714    
  0.268325573417692    0.3425521194841233    0.38812978768274464    0.38488979418044894    0.37328769398941747    
  0.3848897927459993    0.38812979022728156    0.3425521013241893    0.26832559369644216    0.20592342286946688    
  0.1684501259551762    0.1502178347532875    0.14332923758785626    0.14192634090482648    0.12910679730303382    
  0.1319974666387538    0.14332922118920652    0.169450178296545    0.2192567211534597    0.2968914912249364    
  0.3742557128972875    0.3848897863950612    0.3271771767591187    0.29234440920595206    0.32717718904103177    
  0.3848897931887164    0.3742557238769725    0.29689147891176426    0.21925673946632132    0.16945017757140612    
  0.14332924347666948    0.13199747557858205    0.12910679730303382    0.12572871227716748    0.12910680030751367    
  0.14192633856186    0.17081925374070606    0.22504233554015146    0.3075601361196553    0.38262850850245683    
  0.37328768585440536    0.29234445315014607    0.24984230804791474    0.2923444343789936    0.37328769745838586    
  0.38262850549709576    0.3075601437165568    0.22504235146381935    0.17081922608332192    0.14192632719414078    
  0.1291067884377085    0.12572871227716748    0.129106799116816    0.13199746648285382    0.1433292340178563    
  0.1694501589945051    0.2192567540665224    0.29689145584205157    0.37425571286597764    0.384889811757095    
  0.32717716910159406    0.2923444495283015    0.3271771816782213    0.38488980599766764    0.37425571375926703    
  0.2968914555292137    0.2192567303473821    0.16945018327924494    0.1433292339301495    0.1319974725427367    
  0.129106799116816    0.14192632930630394    0.14332923582394735    0.15021784689717077    0.16845014981039047    
  0.2059234153361427    0.2683255685039781    0.34255211153138426    0.388129749770346    0.3848898004831308    
  0.37328768687346364    0.38488982584936215    0.38812976214606804    0.34255210381566603    0.2683255978777669    
  0.20592342596780835    0.1684501328930077    0.15021785119343897    0.14332924517406645    0.14192632930630394    
  0.17081924500181492    0.16945016908021832    0.1684501420010105    0.1742165792579411    0.1939439600435319    
  0.23319085909041376    0.2886430345327688    0.3425520938252563    0.37425573860338057    0.3826284633776357    
  0.3742556980034042    0.3425521042108739    0.28864302187646423    0.23319086225115743    0.19394397283595755    
  0.17421658072558868    0.16845013406877213    0.16945016507665528    0.17081924500181492    0.22504234320429256    
  0.2192567203853539    0.20592343406435684    0.193943985053879    0.19201680672877144    0.2052192357253761    
  0.23319086785076207    0.2683255808443545    0.2968914755691973    0.30756013979809194    0.29689147125006543    
  0.268325594887939    0.2331908729615727    0.2052192249999015    0.1920168026316526    0.19394398824033826    
  0.20592340406213522    0.21925676784265577    0.22504234320429256    0.3075601346296019    0.2968914743983132    
  0.2683255770498362    0.23319087734704158    0.20521921765944096    0.19201680206336724    0.19394397831335872    
  0.20592343145749836    0.21925674595878675    0.22504234824820432    0.21925674613872426    0.20592344012655497    
  0.1939439851711649    0.19201680186321332    0.20521923625413277    0.23319085562044767    0.26832559099589076    
  0.2968914630058959    0.3075601346296019    0.3826284971756889    0.3742557304145882    0.3425521139868586    
  0.2886430357751633    0.23319084602342618    0.19394398508568866    0.1742165850495056    0.1684501248075462    
  0.16945017334419482    0.17081923937473534    0.16945015035845623    0.16845012807605989    0.17421657903440638    
  0.1939439733129593    0.23319085918840105    0.2886430297035053    0.34255209560267624    0.37425571502961635    
  0.3826284971756889    0.3732876917784904    0.38488980147623264    0.38812975543814177    0.34255211674297964    
  0.26832557955616865    0.2059234369372262    0.16845013331355085    0.15021786152435987    0.14332923712689719    
  0.1419263407039169    0.14332923234565326    0.15021785673574028    0.16845014144833098    0.20592341450375712    
  0.26832557235985793    0.3425520740529711    0.388129738744552    0.3848898133380321    0.3732876917784904    
  0.2923444443080773    0.32717717020647263    0.38488977674716934    0.3742557380807321    0.29689146199052885    
  0.21925674530569267    0.1694501663208344    0.14332923176438114    0.1319974740853843    0.1291067989452533    
  0.13199747091543404    0.143329249693282    0.16945017090307615    0.2192567387308956    0.29689147838781876    
  0.37425573502998644    0.3848897952159046    0.3271771746054738    0.2923444443080773    0.24984232917545707    
  0.2923444457599955    0.37328769846053317    0.38262847927937615    0.30756010952591445    0.2250423431077638    
  0.17081924859770906    0.14192632624352014    0.12910680680623954    0.1257286976798218    0.1291067921518496    
  0.14192632691426707    0.17081923885339814    0.2250423382366315    0.3075601300348472    0.3826284800909246    
  0.37328768349434066    0.2923444440080897    0.24984232917545707    0.3808811509486965    0.38798295872854377    
  0.3826285143191522    0.33548896971161357    0.26866167817415804    0.21512833225277178    0.18422426076621298    
  0.17081923504538646    0.16728418970873762    0.16710881724488727    0.1672841813314206    0.17081923471067328    
  0.18422425725180347    0.21512834566842232    0.2686616829189594    0.33548895156380387    0.38262848653866116    
  0.3879829408136526    0.3808811509486965    0.38798292447438215    0.38963386951880424    0.3742557040804904    
  0.3231653170200548    0.25868191052749606    0.2088073142481952    0.18085209332470642    0.16945015471685862    
  0.16706995899258292    0.16728419282747034    0.1670699615003288    0.1694501642275212    0.1808520617515497    
  0.20880731103089503    0.2586819172419668    0.323165319523761    0.3742557013895363    0.38963388901609103    
  0.38798292447438215    0.38262851547381915    0.3742557040717687    0.342552103302949    0.2886430533109209    
  0.23319085927217492    0.19394396309757306    0.17421658373918847    0.16845012711609744    0.1694501651824262    
  0.17081922714930325    0.16945016295889706    0.1684501167333748    0.1742165930325307    0.1939439742975979    
  0.2331908693574113    0.2886430310306103    0.3425520680923263    0.3742557379367294    0.38262851547381915    
  0.3354889556888283    0.3231653055658289    0.2886430335625656    0.24330307471241497    0.20358665759162994    
  0.17940438833440692    0.17134701925621224    0.17421656703628036    0.1808520930211722    0.184224247801787    
  0.1808520725453976    0.17421656815096973    0.1713470299486739    0.17940439043928416    0.2035866587945341    
  0.24330307393557163    0.28864301439387774    0.32316533134397746    0.3354889556888283    0.2686617005840078    
  0.2586819243614808    0.23319083515615094    0.20358666641862194    0.18169493366419345    0.17365550877258606    
  0.17940440832149226    0.19394397553221748    0.20880731646222886    0.21512836466061688    0.20880732031438812    
  0.1939439769240786    0.17940439580481418    0.17365551336382762    0.18169491455935216    0.2035866809377299    
  0.23319084759782388    0.25868192222016784    0.2686617005840078    0.21512834828847505    0.2088073095507572    
  0.19394398824609002    0.1794044161181078    0.17365551274510754    0.18169491852381944    0.20358666556964647    
  0.23319085284113575    0.2586819195856263    0.2686616816261745    0.2586819032680388    0.23319086201224137    
  0.20358666310192866    0.18169493961515923    0.17365552150848126    0.17940438773493422    0.19394396387742555    
  0.20880731576605474    0.21512834828847505    0.1842242452359624    0.1808520835859443    0.1742165633577971    
  0.17134702666322754    0.17940437889676356    0.2035866642180046    0.2433030860404936    0.2886430058090073    
  0.32316532111137514    0.3354889401997359    0.3231653113662416    0.2886430020500333    0.24330308143427487    
  0.20358666586098256    0.17940438881796658    0.17134702601947252    0.17421656922763246    0.18085208991970791    
  0.1842242452359624    0.1708192420163927    0.169450175918384    0.1684501383599999    0.17421659902347808    
  0.19394397584025508    0.23319085337008252    0.2886430489671493    0.3425521202512578    0.3742557244774351    
  0.3826284917060807    0.3742557109391419    0.3425521135537874    0.28864301786445823    0.2331908498389622    
  0.19394396666206395    0.17421658275114008    0.16845013206521472    0.16945015586888335    0.1708192420163927    
  0.1672841933212106    0.16706994569189093    0.16945014871308595    0.1808520886413588    0.208807306599213    
  0.2586819082754653    0.32316530920256314    0.374255711203046    0.3896339112524724    0.38798294215943885    
  0.38963391089126914    0.37425569852918944    0.3231653141481839    0.2586819344885517    0.2088073128797723    
  0.18085207326832153    0.16945014506316744    0.16706995484896198    0.1672841933212106    0.1671088356911578    
  0.16728419063345587    0.17081924735545184    0.18422424646295527    0.21512833513524215    0.2686616722674716    
  0.33548896314032867    0.3826284833716685    0.3879829424771912    0.38088114113362714    0.38798289870748004    