#     DFTpy    
  CRYSTAL 
    
  PRIMVEC    
  5.639310344827585    0.0    0.0    
  0.0    5.639310344827585    0.0    
  0.0    0.0    3.1068965517241374    
  PRIMCOORD    
  4    1    
  Si    0.0    0.0    0.0    
  Si    2.8196551724137926    2.8196551724137926    1.5534482758620687    
  Si    0.0    2.8196551724137926    0.7767241379310343    
  Si    2.8196551724137926    0.0    2.330172413793103    
  BEGIN_BLOCK_DATAGRID_3D    
  3d_datagrid_density    
  BEGIN_DATAGRID_3D#0    
  25    25    15    
  0.0    0.0    0.0    
  5.639310344827585    0.0    0.0    
  0.0    5.639310344827585    0.0    
  0.0    0.0    3.1068965517241374    
  0.06845663497315653    0.12024908327719122    0.2895228164059568    0.4084582332369104    0.33703042238056424    
  0.22940137932554547    0.1730462592588308    0.16632073841108724    0.2003648469576733    0.26638762807065225    
  0.33817317073407466    0.3817606565653149    0.3929479341141657    0.38176058922506445    0.338173205338554    
  0.26638763996996856    0.20036486141182736    0.16632075432824284    0.17304626990555824    0.22940138830030343    
  0.33703046302647605    0.4084582041228999    0.2895228334928377    0.12024906684058521    0.06845663497315653    
  0.12024907636111218    0.1784346536676627    0.3319655589809305    0.40381087197228505    0.31749155546665575    
  0.2153464894586467    0.16327114348758312    0.15712361885879134    0.18873799965174262    0.25043034214616977    
  0.3198581882559764    0.3663210739188396    0.3802118416640468    0.3663211062909828    0.319858254701248    
  0.250430230977641    0.18873799003833533    0.1571236607552674    0.16327115078676913    0.2153464573067432    
  0.31749155894035797    0.40381090989912233    0.3319654664442754    0.17843466758952592    0.12024907636111218    
  0.2895227768254143    0.3319654387964301    0.3968254060500199    0.3671611729311058    0.26484647980794634    
  0.17975681267466695    0.13830747927195555    0.1334268629168717    0.15876490739196    0.20875736529097888    
  0.2686594056960551    0.3152075965769726    0.3318755785858907    0.3152075762293071    0.2686594651919057    
  0.20875733845816188    0.15876480125466078    0.13342689089656082    0.13830750558540347    0.17975677599851173    
  0.2648464979691    0.36716115276305455    0.3968253838178713    0.3319654633973152    0.2895227768254143    
  0.40845825555797965    0.4038108189026919    0.36716123813542356    0.28595328638556794    0.1980158111003853    
  0.13721235404194948    0.10812404051771497    0.10458496421510644    0.12225134037472069    0.1571194290884508    
  0.20043547320249136    0.23674289476758553    0.2507115916863529    0.23674285516055787    0.20043551088392028    
  0.15711940491070314    0.12225134636498101    0.10458497457782069    0.10812405353919642    0.13721235224546408    
  0.19801585496884297    0.2859533115702909    0.36716119217767146    0.4038108962318841    0.40845825555797965    
  0.3370304034413479    0.3174915226647748    0.26484651044570895    0.19801585841383065    0.13944295114098737    
  0.10071291506276965    0.08185748325246517    0.07933865174660927    0.09033949507392035    0.11188237250435167    
  0.13870661410242938    0.1615529987099928    0.17048590059989363    0.16155297093247334    0.13870662298806413    
  0.1118823609118432    0.09033947914729953    0.07933864987119636    0.08185748797310759    0.10071290004251254    
  0.13944296494425557    0.19801587024087186    0.2648464181537594    0.317491539281658    0.3370304034413479    
  0.2294013453290331    0.21534643314130403    0.1797568232752659    0.13721234651230993    0.10071288535741954    
  0.07618811312116029    0.0638026762137615    0.06174918262781978    0.06820652741031138    0.08108875277427416    
  0.0969178312549595    0.11025645794606466    0.11549984456254415    0.11025643938412502    0.09691780696359881    
  0.08108877180337325    0.06820653680321778    0.061749203393648956    0.06380267642417782    0.07618809081775846    
  0.1007128945219484    0.1372123362968422    0.17975680742627628    0.2153464631810347    0.2294013453290331    
  0.1730462272485153    0.16327114378885646    0.13830751267291236    0.10812403883373842    0.0818575008404116    
  0.06380267812399026    0.054348153397214764    0.052275799620157624    0.05619639816276875    0.0645861698113356    
  0.07481569780785643    0.08333024570501385    0.0867076102592999    0.083330234478626    0.07481570449498476    
  0.0645861766159703    0.05619639467124238    0.05227580604175667    0.05434815313251082    0.06380268841668835    
  0.08185749535004978    0.1081240673708201    0.13830749075256601    0.16327114479305588    0.1730462272485153    
  0.1663207329733671    0.1571236721439699    0.13342688515285892    0.10458496748865634    0.07933866774041776    
  0.06174918333771668    0.052275801307364436    0.04972528861358766    0.05259313750323303    0.05938123482453886    
  0.06777713472946065    0.07479564979644987    0.07759031837767211    0.07479565409465956    0.06777716106725444    
  0.05938120262231611    0.052593130417951856    0.04972528064850803    0.05227580330978929    0.061749179093791476    
  0.07933867688464236    0.10458496626561493    0.1334268937503908    0.1571236602378714    0.1663207329733671    
  0.2003648265908168    0.18873796827972406    0.1587648565257524    0.12225131707414125    0.09033949288235274    
  0.06820653120169191    0.05619639398911968    0.052593111381253776    0.05538000837292022    0.06267891443811174    
  0.07199283981419442    0.0798554219733647    0.08294177980032368    0.07985540465127426    0.07199285450632649    
  0.06267893040031465    0.05538000598994522    0.05259313370134907    0.05619640350469679    0.06820652504610601    
  0.0903394929132502    0.1222513484210255    0.15876482319694346    0.1887379962752891    0.2003648265908168    
  0.266387642001575    0.2504302145336133    0.20875733628881155    0.15711943411135204    0.11188236773478585    
  0.08108875750970958    0.06458616405012886    0.05938121802727564    0.0626789137371357    0.07199101680727558    
  0.08419104337049921    0.09468092727546006    0.09880498564653632    0.09468090373599736    0.0841910631371823    
  0.07199098681350817    0.06267890230134683    0.05938122636684171    0.06458617401780803    0.0810887484780233    
  0.1118823880815658    0.15711942481332744    0.20875731477103382    0.25043028049479393    0.266387642001575    
  0.3381731810721912    0.31985808941651894    0.2686594531398462    0.2004354925206415    0.13870660403174054    
  0.09691780806547169    0.07481569599561368    0.06777713876810228    0.07199287533998566    0.08419103922840353    
  0.10035310627826736    0.11452850384929847    0.12019897540423488    0.11452845783581388    0.10035312511802695    
  0.08419100877060907    0.07199283511490621    0.0677771560181357    0.07481568946325952    0.09691780334976699    
  0.13870660936714677    0.20043547942437234    0.26865943581100443    0.3198581761294509    0.3381731810721912    
  0.3817606089466927    0.36632103136522054    0.3152076218388227    0.23674288003031063    0.1615529938666076    
  0.11025644079681615    0.08333023122553544    0.07479563507471026    0.07985544948891796    0.09468093789067927    
  0.11452847038847203    0.13206362529461668    0.13909413884433977    0.13206359248759109    0.11452848858826177    
  0.09468094456107393    0.07985542418445156    0.0747956628297878    0.08333023062775376    0.11025642755477051    
  0.1615529873939752    0.23674288732342424    0.315207632359841    0.3663210974456879    0.3817606089466927    
  0.39294795914859243    0.38021190041375913    0.3318756386369905    0.25071158698490204    0.17048591410300604    
  0.11549986867745937    0.08670761870524427    0.07759030620631328    0.08294181628886402    0.09880496095600803    
  0.12019895689523319    0.13909419876684445    0.14664353526514176    0.13909414545301016    0.1201990020694789    
  0.09880496801325299    0.08294180736098328    0.07759032125661086    0.08670762697555663    0.11549983012267853    
  0.1704859081341345    0.25071160941157494    0.3318755434403066    0.3802119209324143    0.39294795914859243    
  0.3817606149051808    0.3663210701998863    0.31520766034424696    0.23674290397321554    0.16155298441801938    
  0.11025644431956207    0.08333022896500286    0.07479563534863566    0.07985544426311643    0.09468094090931123    
  0.11452846347482774    0.1320636531808334    0.1390941404189163    0.13206363674458793    0.11452853010085637    
  0.09468087819749607    0.07985542392645155    0.07479565701490672    0.08333023063760106    0.11025643160925283    
  0.16155300464548566    0.23674296004194828    0.3152075991410706    0.36632098146793085    0.3817606149051808    
  0.33817313506298846    0.3198581865645759    0.2686594652913757    0.20043545665248053    0.13870662707000297    
  0.09691781187601535    0.0748156954350161    0.06777713821263905    0.07199288500928985    0.08419104183772147    
  0.10035310025367922    0.11452848388974922    0.12019896988458413    0.11452847715838066    0.10035310554158297    
  0.08419103604140706    0.07199282782955636    0.0677771474000227    0.07481570504867649    0.09691778532569179    
  0.13870662503859452    0.20043548747429718    0.26865947700402    0.31985818959446316    0.33817313506298846    
  0.26638767396242014    0.25043020830915624    0.20875736607180848    0.15711940438580682    0.11188234146125835    
  0.08108875035791381    0.0645861780508762    0.05938121980506527    0.0626789042177123    0.07199102660417052    
  0.08419104858137053    0.09468093590413003    0.09880496200107715    0.09468087921549674    0.08419105934467068    
  0.07199100686697632    0.06267890367930853    0.0593812250732147    0.06458617363040764    0.08108875582623652    
  0.11188238758414001    0.15711940646437175    0.2087573560373444    0.25043027345611724    0.26638767396242014    
  0.2003648533628349    0.1887379195866117    0.15876488948396805    0.12225134414813896    0.0903394890557338    
  0.06820653768979222    0.05619641102761105    0.052593117932621634    0.055380011556365294    0.06267892503789654    
  0.07199283228118847    0.07985540549468355    0.0829417633524238    0.07985541976134701    0.07199284520343624    
  0.06267890112211634    0.05538001126192359    0.052593128158787625    0.05619639803956938    0.06820651771191953    
  0.09033948404080501    0.12225132802614262    0.15876478697572924    0.18873796552465377    0.2003648533628349    
  0.16632070793373666    0.15712364391896055    0.13342689961829132    0.10458499074927287    0.0793386671700622    
  0.061749188082516025    0.0522757916626825    0.049725275700610735    0.052593128951562866    0.059381232496313725    
  0.06777716817688656    0.07479563207752181    0.07759029780483392    0.07479564685528954    0.0677771484771921    
  0.05938124749582829    0.052593127262210077    0.049725288513983466    0.05227578534061036    0.0617491821071352    
  0.07933866164718396    0.10458496902438809    0.13342687355134775    0.15712366300004058    0.16632070793373666    
  0.17304622969064892    0.1632711646285011    0.13830750865590707    0.1081240289816527    0.08185749225534847    
  0.06380267146106176    0.054348162120294266    0.05227579436078464    0.05619640342309902    0.06458616192171239    
  0.07481569361291364    0.0833302426225945    0.08670761899045039    0.08333023749274437    0.07481571081747133    
  0.06458617875290364    0.05619640213731436    0.05227579777298548    0.054348151518982805    0.063802679521016    
  0.08185751095337    0.10812406279443011    0.1383074999856186    0.1632711439393074    0.17304622969064892    
  0.2294013777388448    0.21534646326364054    0.17975682301982013    0.13721233418394355    0.10071290196691048    
  0.07618810609293238    0.06380266572651418    0.06174918722180417    0.06820654560257904    0.08108876442159174    
  0.09691780147258648    0.1102564390368506    0.11549981918238897    0.11025646723815409    0.09691783568833891    
  0.08108874907711512    0.0682065272289393    0.06174917961921042    0.06380267601905366    0.076188101483834    
  0.10071291230118956    0.13721234986358666    0.17975680086550505    0.2153464451809354    0.2294013777388448    
  0.337030424867046    0.3174915031023038    0.2648465131862168    0.19801584549511925    0.13944297567107972    
  0.10071291109001014    0.0818574905813318    0.07933865341919284    0.09033949855859794    0.11188237383208531    
  0.1387066110675735    0.16155298459114323    0.17048587031540097    0.16155299642520254    0.13870661102664075    
  0.11188239931343893    0.09033948088129604    0.07933865505144219    0.08185748203117386    0.1007128953096717    
  0.1394429639347622    0.19801583612226042    0.26484646291279307    0.317491552110359    0.337030424867046    
  0.40845820848834835    0.40381082749806985    0.3671612504621598    0.28595322348420876    0.19801584790684074    
  0.1372123643516279    0.10812405059682298    0.10458498171038771    0.12225132965658374    0.15711941037325572    
  0.2004354691735814    0.23674293701138047    0.2507116498649412    0.2367428545947526    0.200435486808307    
  0.15711941819694406    0.12225131406485477    0.10458497792043762    0.10812404270429828    0.13721235907343993    
  0.19801587840324703    0.2859532806044563    0.3671612181934295    0.4038109244280536    0.40845820848834835    
  0.28952281676902947    0.33196540298351696    0.39682543435213713    0.36716122904500836    0.26484647013994567    
  0.17975681007986893    0.13830751423907175    0.13342687700522649    0.15876485262285214    0.2087573812752881    
  0.26865941503111784    0.3152076816157725    0.3318755493874399    0.31520758492981027    0.2686594877748414    
  0.2087573000304428    0.1587648161396277    0.13342688338407127    0.1383074872137971    0.17975681602500698    
  0.26484648806279404    0.3671612002380822    0.3968253524840638    0.33196549136785775    0.28952281676902947    
  0.1202490612450705    0.17843464034137235    0.3319655467759144    0.40381087789744513    0.3174915690030485    
  0.2153464582674371    0.16327112890302287    0.15712367176485725    0.18873798856919385    0.25043031185111075    
  0.31985819454841286    0.3663210461627971    0.3802119225405679    0.36632105276589966    0.3198582426545909    
  0.2504302738805964    0.18873798520781912    0.15712367793241663    0.16327115573558076    0.21534642800205384    
  0.3174915180772844    0.40381090243765905    0.33196548171325885    0.17843469359246267    0.1202490612450705    
  0.06845663497315653    0.12024908327719122    0.2895228164059568    0.4084582332369104    0.33703042238056424    
  0.22940137932554547    0.1730462592588308    0.16632073841108724    0.2003648469576733    0.26638762807065225    
  0.33817317073407466    0.3817606565653149    0.3929479341141657    0.38176058922506445    0.338173205338554    
  0.26638763996996856    0.20036486141182736    0.16632075432824284    0.17304626990555824    0.22940138830030343    
  0.33703046302647605    0.4084582041228999    0.2895228334928377    0.12024906684058521    0.06845663497315653    
  0.11402622660942055    0.17170173142453143    0.32648050464077144    0.40032240274705877    0.31161967368798515    
  0.2045681323701412    0.1461674385574538    0.13017104566541401    0.14509691512525597    0.18388046471398117    
  0.234701869952979    0.2775672488196341    0.29398320477712986    0.27756724937512944    0.23470186408735583    
  0.1838804668020824    0.14509691152946602    0.13017109827792953    0.14616744497731748    0.20456809472380008    
  0.3116197115677445    0.40032240447934403    0.3264804537974333    0.17170174127604876    0.11402622660942055    
  0.17200253712499836    0.22994065311525141    0.35953201304286597    0.3918642273880667    0.2936970647448024    
  0.1926381498018618    0.13850370116479452    0.12366810798581072    0.13756616836350252    0.17351624010095365    
  0.22067189156818598    0.2609375436205413    0.2765822625631207    0.26093751626373535    0.22067198227528118    
  0.173516160962604    0.13756621928939833    0.12366811896893468    0.13850370817256527    0.19263812074555348    
  0.2936970470578502    0.39186429781005144    0.35953194344524136    0.22994070371873085    0.17200253712499836    
  0.32927543681093585    0.3619327192756483    0.39998635747988515    0.350245447270531    0.24567224409932953    
  0.16225334476878095    0.11892052169560287    0.10695627534445769    0.11817651035360871    0.1469415591858224    
  0.18471265451539637    0.21749744888895828    0.2304632552337907    0.2174974404914299    0.18471266032351058    
  0.1469415504351845    0.11817649554439111    0.10695631585672083    0.11892052590079172    0.16225331160374135    
  0.24567227085542273    0.350245439469794    0.3999863469814955    0.36193276624219584    0.32927543681093585    
  0.41013121158541777    0.40064692132949814    0.3557494908555173    0.27180635333627345    0.185596482642856    
  0.1259011153962116    0.0951453048559602    0.08649205922398455    0.09443440698177293    0.1146157113670838    
  0.14101305248284096    0.16392051831654647    0.17295727856374177    0.16392046360765392    0.14101308887616143    
  0.11461566710567195    0.09443440425232169    0.08649206862800624    0.09514532270951233    0.1259011054668366    
  0.18559650532971134    0.27180633504059026    0.3557494255521541    0.4006469876487672    0.41013121158541777    
  0.3306122376433556    0.31080600993802365    0.2580686582496625    0.19180278129763856    0.13386401790928257    
  0.09492277832695753    0.07445527257734562    0.06848028158534003    0.07354464556147586    0.08649455437855315    
  0.10326313535783486    0.11767111641539821    0.12332264936959907    0.11767107876109173    0.1032631553459405    
  0.08649453920228337    0.07354462102304171    0.06848029494123824    0.07445527248556094    0.09492276489401147    
  0.13386403400290103    0.19180279132220052    0.2580685795515785    0.3108060238118901    0.3306122376433556    
  0.23444749469449674    0.21984945285314078    0.18294555278250568    0.13880093862345333    0.10070768116778638    
  0.0746692388805976    0.06060067567930853    0.05622558458834488    0.05928216355546858    0.06759971979096295    
  0.07826645531360989    0.08730969604331416    0.0908704472132356    0.08730966074989395    0.07826642419573601    
  0.06759972536292214    0.059282145005101726    0.05622559622490318    0.06060067988973899    0.07466921955999731    
  0.10070769236486979    0.13880092619359802    0.18294553678156178    0.21984948548359393    0.23444749469449674    
  0.1916525483325099    0.18033395008754746    0.1516041775725913    0.11701264038527906    0.08683954012599704    
  0.06587207284849918    0.054336150019616884    0.05047327330583085    0.05243226732165371    0.05853126648527112    
  0.06637359736092707    0.07296909398024234    0.07558704355235442    0.07296907895151136    0.0663736220993649    
  0.05853127740200864    0.05243226148070853    0.050473292075638276    0.05433615005852124    0.0658720748429936    
  0.08683954031800507    0.11701267567992854    0.15160415936768531    0.18033391796286738    0.1916525483325099    
  0.20278083933798025    0.19068863883283033    0.15981347192343287    0.12260087015890762    0.09024627929177802    
  0.06772698807553558    0.05520202148862776    0.050789745609410214    0.0524107833778263    0.05822036152581182    
  0.06584786784870904    0.07232291636056828    0.07489203394142026    0.07232293158611412    0.06584787168927196    
  0.05822033724098241    0.0524107773566504    0.0507897421269292    0.05520203084793367    0.06772697614678404    
  0.09024629438197258    0.12260086513711302    0.15981346990218848    0.19068862157870817    0.20278083933798025    
  0.2634784872825215    0.24731577189139037    0.2053839287097433    0.15417369011390405    0.10976132718497501    
  0.07929077662681762    0.06248173164701494    0.05644019434926844    0.058251952248241055    0.06541917940068732    
  0.07509139964752291    0.08341174480796622    0.08667617447971046    0.08341172910472955    0.07509144304134688    
  0.06541919173248753    0.0582519537177126    0.056440204421066724    0.062481731090923594    0.07929076803514987    
  0.10976131996362604    0.15417373497161638    0.2053838670275371    0.24731577248067216    0.2634784872825215    
  0.35270549349068886    0.3340401310857206    0.28058226128720143    0.20848697369723046    0.14326290013067017    
  0.09886576372157291    0.07488153599952489    0.06625197634195598    0.06861457130998487    0.07849777659587244    
  0.09207081967341293    0.1039474942681439    0.10863770042715631    0.1039475023591446    0.09207083915493999    
  0.07849777633738057    0.06861457238359497    0.0662519764584173    0.07488154060580146    0.09886576173505597    
  0.14326292835223248    0.20848697946250178    0.28058224349384925    0.3340402371911885    0.35270549349068886    
  0.40246752811195247    0.3949808299915362    0.35392803698467235    0.27134956770855057    0.18384051382249356    
  0.12226608827423464    0.08937986554863792    0.07768050414492521    0.08086129104223216    0.09427044513068804    
  0.11283385385247974    0.12936988110836684    0.13602204330062448    0.12936986626536143    0.11283390470055103    
  0.09427040223835442    0.08086127438214823    0.07768050369001361    0.08937987291993103    0.12226606598628136    
  0.18384050572203728    0.2713495567623089    0.35392800550593767    0.3949809465349217    0.40246752811195247    
  0.3768594749422171    0.39152440184314435    0.39001740077230523    0.31880943189839756    0.2177172223647021    
  0.14187278657358066    0.10134246824319708    0.08707148749440541    0.09093065360076745    0.10740353358416825    
  0.13044928880405904    0.15115599221500026    0.15954179840030935    0.1511559765643498    0.13044929240457395    
  0.10740353626967597    0.0909306366335623    0.08707149803208844    0.10134247370881491    0.1418727884014339    
  0.21771720263786645    0.3188094745801442    0.3900173908225272    0.39152443656387387    0.3768594749422171    
  0.35048656141808154    0.37553023684605674    0.3959550463651173    0.33528411877571446    0.23075509078645415    
  0.14955687734394787    0.1060644340489839    0.09078769616315911    0.09485709587928579    0.11251334608713487    
  0.13738874542678517    0.1597741660211522    0.1688207952063282    0.15977411105138728    0.1373888008470542    
  0.112513339784537    0.09485710006996474    0.09078771943995079    0.10606444053621149    0.14955685490392334    
  0.23075508392476454    0.33528412357169096    0.39595490298009    0.37553022279607234    0.35048656141808154    
  0.3768594546717386    0.3915244120416428    0.39001747497722555    0.3188094459679332    0.21771720545663506    
  0.14187280243911782    0.10134248210806798    0.08707147979222486    0.09093065765264387    0.10740354723793535    
  0.13044927271765516    0.15115599962621773    0.15954180929385292    0.15115600996514145    0.1304493397788951    
  0.10740347882665467    0.09093061375255153    0.08707149897922538    0.10134248144382867    0.1418727938988583    
  0.21771725498731395    0.31880952222735204    0.39001742137618817    0.3915243418124609    0.3768594546717386    
  0.40246741246100887    0.3949809499054136    0.35392808726452224    0.27134950166114874    0.18384050508089203    
  0.12226606903162782    0.08937986398305094    0.07768051834347331    0.08086128800381095    0.09427044720230225    
  0.11283388120182508    0.1293698709734525    0.13602205953087612    0.12936985912012786    0.11283392469809053    
  0.09427043587287906    0.08086126080664341    0.07768051871570586    0.08937987025569336    0.1222660488756622    
  0.18384053134635905    0.2713495329643725    0.3539280756215174    0.3949809924791929    0.40246741246100887    
  0.35270550586579585    0.334040130583709    0.28058231389230565    0.20848693998874518    0.14326290498063243    
  0.09886575916616906    0.07488155254247551    0.0662519807684746    0.06861456101736384    0.07849779696152935    
  0.09207082250601978    0.1039474960820686    0.10863769469841411    0.10394745421754019    0.09207081671916569    
  0.078497790121416    0.06861456304899392    0.06625198626750384    0.07488154952352344    0.09886574605935884    
  0.14326292639909458    0.20848696577552453    0.28058227725603463    0.3340402004086101    0.35270550586579585    
  0.2634785258290854    0.24731569994218586    0.20538394708256036    0.15417371768431387    0.10976131155723073    
  0.07929079072820311    0.0624817384065059    0.0564401901315885    0.05825194996045092    0.06541917384711288    
  0.07509140593451963    0.08341174801279433    0.08667617606316702    0.08341174399681246    0.07509143721893713    
  0.06541916731892447    0.05825195972856537    0.05644019962999408    0.062481723078735556    0.07929075476217261    
  0.10976132871614264    0.15417372338652485    0.20538387088826943    0.24731577456441703    0.2634785258290854    
  0.20278077579695852    0.19068860770997148    0.1598134737833813    0.1226008875747304    0.09024629683820133    
  0.06772698818203356    0.055202020062746465    0.05078973367271043    0.05241078453282909    0.058220360717440724    
  0.06584788072453565    0.07232292003003996    0.07489200133537985    0.07232290163180004    0.06584786722048881    
  0.05822037666609226    0.05241077842033651    0.05078975041729335    0.05520200811469814    0.06772698399422238    
  0.09024628095529887    0.1226008748362046    0.15981346188802306    0.1906886570925928    0.20278077579695852    
  0.19165255078561708    0.18033398221673758    0.15160418917083845    0.1170126400368433    0.08683953066315364    
  0.06587205773963475    0.05433615508664459    0.050473272331379535    0.05243226867043598    0.05853126400407119    
  0.06637359233798923    0.07296908603123195    0.07558705467574221    0.07296908778454524    0.06637362613658124    
  0.05853127795556219    0.052432262700273534    0.050473282733006594    0.05433614791020256    0.0658720695724259    
  0.08683953817883991    0.11701266647130301    0.1516041686863669    0.18033393682580537    0.19165255078561708    
  0.23444752464439295    0.21984944464027073    0.18294554525771617    0.13880093168315674    0.10070768774722619    
  0.07466923176527251    0.060600667029993914    0.05622559310936695    0.059282168565666656    0.06759971767454574    
  0.07826642249127737    0.08730967230495798    0.09087045087816309    0.08730968119708686    0.07826645573933337    
  0.06759970169690062    0.059282152998062075    0.05622558742027186    0.060600685325459494    0.0746692251483164    
  0.10070771234497411    0.13880094946154037    0.18294551671396003    0.21984943381288521    0.23444752464439295    
  0.3306122344506997    0.31080606970089597    0.25806862857649143    0.19180277521241368    0.13386404012540778    
  0.09492277561108564    0.07445527206271832    0.06848029147881288    0.0735446414479637    0.08649455158616948    
  0.10326315947649284    0.11767108384118014    0.12332264669256704    0.11767108656391462    0.10326313688566895    
  0.08649456122456739    0.07354462573026935    0.06848029797304524    0.07445527239006981    0.0949227706785465    
  0.13386402934581862    0.19180277682002625    0.25806860709331503    0.3108060541975373    0.3306122344506997    
  0.4101311092534491    0.4006469693109169    0.35574943671717246    0.27180631195130706    0.18559650648307838    
  0.12590112457188868    0.09514530932957238    0.08649206986829272    0.09443439825707313    0.1146156808288152    
  0.14101304110034438    0.16392055431624256    0.17295729179809619    0.16392046085797662    0.14101306428899224    
  0.11461568688843225    0.09443438782769353    0.08649207113645158    0.09514530188991548    0.12590110851292063    
  0.18559653234539172    0.27180635308127127    0.3557494256433402    0.4006470456253279    0.4101311092534491    
  0.3292754928230848    0.36193267631643006    0.39998635117524817    0.35024549159212603    0.24567227718356463    
  0.16225332241715387    0.11892054076947584    0.10695625689993205    0.11817654243492422    0.14694155144349083    
  0.18471261923791185    0.21749749924027295    0.23046326058721003    0.21749744689406283    0.18471266110047463    
  0.14694152285118584    0.11817646502077322    0.10695628090721129    0.11892051995632429    0.16225331966031503    
  0.24567225925951716    0.3502454764218896    0.3999862947197627    0.361932729100061    0.3292754928230848    
  0.17200252241548325    0.22994065773758224    0.35953200993473733    0.39186426814695535    0.2936970963536744    
  0.19263814593316428    0.138503705440538    0.12366810846946646    0.137566187465196    0.17351622442819598    
  0.22067192511483819    0.26093749411876216    0.276582336420152    0.2609375336779373    0.22067198390022444    
  0.17351623456345258    0.13756619019290156    0.12366811457127694    0.13850370123071135    0.19263813889528617    
  0.29369708286226287    0.39186425548113707    0.3595320115109525    0.22994070689777005    0.17200252241548325    
  0.11402622660942055    0.17170173142453143    0.32648050464077144    0.40032240274705877    0.31161967368798515    
  0.2045681323701412    0.1461674385574538    0.13017104566541401    0.14509691512525597    0.18388046471398117    
  0.234701869952979    0.2775672488196341    0.29398320477712986    0.27756724937512944    0.23470186408735583    
  0.1838804668020824    0.14509691152946602    0.13017109827792953    0.14616744497731748    0.20456809472380008    
  0.3116197115677445    0.40032240447934403    0.3264804537974333    0.17170174127604876    0.11402622660942055    
  0.26611450114146945    0.3126426441780306    0.38987807800336816    0.3676816817148359    0.26125543724081374    