#     DFTpy    
  CRYSTAL 
    
  PRIMVEC    
  1.286830521760809    -2.2288558444200888    0.0    
  1.286830521760809    2.2288558444200888    0.0    
  0.0    0.0    4.350880674482759    
  PRIMCOORD    
  2    1    
  Si    1.286830521760809    0.7429519481400294    1.0877201686206897    
  Si    1.2868305217608091    -0.7429519481400294    3.2631605058620687    
  BEGIN_BLOCK_DATAGRID_3D    
  3d_datagrid_density    
  BEGIN_DATAGRID_3D#0    
  11    11    19    
  0.0    0.0    0.0    
  1.286830521760809    -2.2288558444200888    0.0    
  1.286830521760809    2.2288558444200888    0.0    
  0.0    0.0    4.350880674482759    
  0.16288613367779126    0.1754049541450982    0.21078493538850007    0.2607345150521147    0.3068621409569873    
  0.325845760972207    0.30686221002933206    0.2607345042063125    0.21078489954152638    0.1754049310969204    
  0.16288613367779126    0.17540494194060138    0.17541375914352597    0.19934315227210084    0.242295747228114    
  0.29137821801607083    0.32480588588281073    0.3248159818421792    0.29138032277516096    0.2422962217523022    
  0.19934116053572618    0.17540494194060138    0.21078490235170358    0.1993431540912775    0.2107754532380937    
  0.24229288209503433    0.28518778198126415    0.3228444718142906    0.33760833315274985    0.32283911161321327    
  0.2851876765005978    0.24229619153262158    0.21078490235170358    0.26073450498743966    0.24229577809178376    
  0.24229290900821973    0.2607455819540859    0.291382376844839    0.32283646027461527    0.34168843038026686    
  0.3416851995564793    0.3228390558345384    0.2913802232298356    0.26073450498743966    0.30686215913949283    
  0.29137820824632155    0.28518776056051937    0.2913823341836101    0.30684812406696027    0.3248139140539026    
  0.3376033534815762    0.34168847544214415    0.3376082949928599    0.3248160000944679    0.30686215913949283    
  0.325845819946792    0.32480585172079546    0.3228444350475321    0.3228364608594876    0.32481383224370836    
  0.3258530598546455    0.32481387353682767    0.3228364907304378    0.3228444125997399    0.32480578721225767    
  0.325845819946792    0.30686216183431786    0.32481599907751096    0.3376083562790335    0.3416883987627429    
  0.33760336807082136    0.32481395503567906    0.3068481076725536    0.29138243962047167    0.2851877496959698    
  0.29137819005226256    0.30686216183431786    0.2607344799614683    0.291380286448397    0.3228390851302901    
  0.34168510682462705    0.34168841121980476    0.3228364401704515    0.29138243113077084    0.2607456201120487    
  0.2422929054468911    0.2422957305718693    0.2607344799614683    0.2107848944900733    0.24229622696810701    
  0.2851877227196461    0.3228390215710412    0.33760832065210283    0.32284444244118443    0.28518776163950943    
  0.24229295016240995    0.21077541954310156    0.19934310956092474    0.2107848944900733    0.17540494916412447    
  0.19934114330121808    0.24229623582235021    0.291380254232761    0.32481595234371674    0.32480590028664924    
  0.2913781925704907    0.24229582880407838    0.19934312336804452    0.17541374209395058    0.17540494916412447    
  0.16288613367779126    0.1754049541450982    0.21078493538850007    0.2607345150521147    0.3068621409569873    
  0.325845760972207    0.30686221002933206    0.2607345042063125    0.21078489954152638    0.1754049310969204    
  0.16288613367779126    0.17679764984569243    0.1897689203939871    0.2266826599208206    0.27841109689885757    
  0.325072823501261    0.3439254409478962    0.3250596053297085    0.278408179517197    0.22668479069268746    
  0.189768209654052    0.17679764984569243    0.18976819116429997    0.18977369947710107    0.209706587056372    
  0.2442383898272725    0.2829541682641638    0.30874849837559754    0.3087581231503069    0.28296371879029775    
  0.24423686333117475    0.20970187767230947    0.18976819116429997    0.22668480439131616    0.21986868403983653    
  0.22667449547350257    0.24423203436507204    0.2672870459128309    0.2870229753514293    0.29436385298396806    
  0.2870186771032905    0.2672821457749456    0.2442368290171764    0.22668480439131616    0.2784081284619609    
  0.27496326206922245    0.2749730113748155    0.278418314803859    0.2829622619090093    0.2870239533738382    
  0.28870951268986716    0.28870901630081836    0.287018615126698    0.282963629742798    0.2784081284619609    
  0.3250595774387309    0.33548924754377923    0.3383513822451986    0.335484340802708    0.3250609034907291    
  0.30875119365878106    0.2943601416414353    0.28870950893492514    0.2943638287626334    0.30875815760489334    
  0.3250595774387309    0.34392547554654157    0.3742835565988549    0.38725171953092175    0.3872338130022842    
  0.3742820059629973    0.34393423321557354    0.3087512050497445    0.28702397334766566    0.287022899282214    
  0.30874839460519526    0.34392547554654157    0.32507287553310654    0.37428927941362394    0.4041615263786642    
  0.4112848334553453    0.40417169866560065    0.3742820866209427    0.3250609213995966    0.28296228928998535    
  0.2672870270167516    0.28295409038903135    0.32507287553310654    0.2784110540149971    0.33548585706199063    
  0.3872464965758273    0.4112867718422861    0.4112847897538657    0.3872338361411418    0.3354844363118148    
  0.2784183103673853    0.24423204597093778    0.24423840527560356    0.2784110540149971    0.2266826282512286    
  0.2749721223369785    0.3383546210405687    0.3872464385192285    0.40416148685365216    0.3872517461870635    
  0.33835136560112994    0.27497301960514803    0.22667449255453595    0.20970653904653852    0.2266826282512286    
  0.1897689014695546    0.21986476801438493    0.2749721077197996    0.33548579755153307    0.3742892687743111    
  0.37428354010139303    0.33548926588142364    0.2749632899018297    0.21986867825404896    0.18977368155372312    
  0.1897689014695546    0.17679764984569243    0.1897689203939871    0.2266826599208206    0.27841109689885757    
  0.325072823501261    0.3439254409478962    0.3250596053297085    0.278408179517197    0.22668479069268746    
  0.189768209654052    0.17679764984569243    0.21501992963846522    0.2295683612540058    0.27048073070493484    
  0.3246095452053451    0.36834636871502313    0.3842912281466965    0.36827659777841154    0.3246167978686443    
  0.27051115109202156    0.2295620957640816    0.21501992963846522    0.2295620840257807    0.22956186025679132    
  0.24697033333755197    0.27584248379630516    0.3063265301309814    0.3255568196914735    0.32556976390697995    
  0.30637892099097647    0.27583425760843183    0.24693605286439696    0.2295620840257807    0.27051118484142395    
  0.2680032844622924    0.2704695739727436    0.27582104772197424    0.28188668229678626    0.28638403169818866    
  0.28772120286081804    0.2863870445053333    0.2818311204812292    0.2758341963210174    0.27051118484142395    
  0.3246168331581032    0.3339128390778168    0.33397082738983364    0.3246319445778985    0.3063289064921883    
  0.28639762575218225    0.27369178306747655    0.27368670920722843    0.2863870018806957    0.30637881986831617    
  0.3246168331581032    0.3682766109023718    0.39144303176530915    0.3957779871520778    0.3914432266134661    
  0.3683352351410048    0.32555773635882745    0.28771339301214627    0.2736917987843708    0.2877211757412426    
  0.3255698095112933    0.3682766109023718    0.38429128063843687    0.41503793887676194    0.40718344665196615    
  0.4071498557795314    0.41494771261999647    0.38433433172529213    0.3255577164005595    0.2863976445159025    
  0.28638401209936526    0.32555676656412413    0.38429128063843687    0.368346425612127    0.4150003002302817    
  0.3980228323323177    0.374259025146612    0.3981097183888364    0.4149477997045834    0.36833524761136976    
  0.30632896662369374    0.2818866695372908    0.30632650434654296    0.368346425612127    0.3246095168241359    
  0.391443009490811    0.4071757073354269    0.3742978677619265    0.37425899397323403    0.4071498408519309    
  0.39144333829758793    0.32463194086693276    0.2758210861331386    0.2758424487970344    0.3246095168241359    
  0.27048066533017173    0.33396775719986854    0.39578125905720757    0.40717564800953343    0.39802278247180256    
  0.40718345343593976    0.3957779796451321    0.33397083581303655    0.2704695950857658    0.2469703284338259    
  0.27048066533017173    0.22956836207461684    0.26798243749766276    0.3339677370540628    0.3914429479303621    
  0.4150002995813865    0.4150379825770699    0.39144302114574914    0.33391285528358394    0.26800326227048765    
  0.22956182780003742    0.22956836207461684    0.21501992963846522    0.2295683612540058    0.27048073070493484    
  0.3246095452053451    0.36834636871502313    0.3842912281466965    0.36827659777841154    0.3246167978686443    
  0.27051115109202156    0.2295620957640816    0.21501992963846522    0.2645319423434807    0.2813784956535731    
  0.3263855229043828    0.3779069948105517    0.406958985038948    0.4125705458283202    0.4066842912140359    
  0.37794746466338597    0.32654251226521236    0.2813474468158763    0.2645319423434807    0.28134746360788654    
  0.2813288331292395    0.2973468239420556    0.32199642164354897    0.34458247055477664    0.35678844844532437    
  0.35681718200423823    0.34479631246809195    0.3219676625465973    0.29718704505558013    0.28134746360788654    
  0.3265425131146392    0.32740000874627506    0.32636250575869047    0.3219382360943094    0.3138770166983057    
  0.305699791369152    0.30232034222138454    0.30572251186145627    0.31365931574826705    0.3219676046814612    
  0.3265425131146392    0.3779474735653708    0.3916320212644853    0.3918679865129472    0.37796836933682776    
  0.3445790923791601    0.30575605738714073    0.28155541399933176    0.2815259599264841    0.30572250453739064    
  0.3447962358163339    0.3779474735653708    0.4066842690942101    0.4111571064010045    0.4001642629942435    
  0.4111686647061298    0.4069377232175692    0.356771989393478    0.3022902523374993    0.2815554380023783    
  0.30232029665228866    0.35681722944425726    0.4066842690942101    0.41257064413188504    0.38490720203364653    
  0.3119549432606788    0.31188235173559953    0.3845695118969569    0.41274930644830915    0.35677197645116265    
  0.3057561127612708    0.3056997361791678    0.3567883520570965    0.41257064413188504    0.40695901971067433    
  0.3847432415353196    0.258508374680727    0.19511594354127026    0.2587855759115195    0.3845696304835114    
  0.4069377412824696    0.34457917817607797    0.3138770326974625    0.34458248644347184    0.40695901971067433    
  0.37790696992945194    0.4111315303094536    0.3119451611564235    0.19526328047199934    0.19511596950082763    
  0.3118823343629695    0.4111687857048287    0.37796839235460605    0.3219382634102944    0.3219963768330532    
  0.37790696992945194    0.3263854613807078    0.39187937499922915    0.40011445781935717    0.31194510850622087    
  0.2585083855644416    0.3119549240673354    0.40016428170384477    0.39186804065128605    0.3263624440224026    
  0.2973467261480998    0.3263854613807078    0.281378485767729    0.32729759298753647    0.3918794087687738    
  0.4111314813603268    0.3847431678054229    0.384907222335703    0.41115709073315254    0.3916321035258304    
  0.3273999802595339    0.2813288166654261    0.281378485767729    0.2645319423434807    0.2813784956535731    
  0.3263855229043828    0.3779069948105517    0.406958985038948    0.4125705458283202    0.4066842912140359    
  0.37794746466338597    0.32654251226521236    0.2813474468158763    0.2645319423434807    0.30087069726950383    
  0.3191390371480306    0.3658765592028345    0.41142438917923857    0.4218974082034009    0.4154476908370322    
  0.4214065394962691    0.4114938867600268    0.366198722864344    0.3190728007855345    0.30087069726950383    
  0.31907280240417935    0.31903018235385583    0.3341594918128161    0.3562671647271933    0.3732000309171249    
  0.3793833831258922    0.37941944345768347    0.3735989998478006    0.35621888304492044    0.33383862900190775    
  0.31907280240417935    0.3661987597768869    0.3687194900826792    0.3658418859859223    0.35617294809516165    
  0.33993816213425043    0.32391088289967124    0.31750030171976856    0.3239637092931803    0.3395397995103711    
  0.35621884382160934    0.3661987597768869    0.4114938014416519    0.4218870026694068    0.4223273752816208    
  0.4115235667412685    0.3731965259453321    0.3240227247346879    0.29284286408800153    0.2927699398408774    
  0.32396367274186366    0.37359891017147584    0.4114938014416519    0.42140653055540783    0.39545185946605454    
  0.36683094332657    0.3954786633855702    0.42185269470514397    0.379347192762099    0.3174291670451757    
  0.2928428741202323    0.3175002734376824    0.3794194871045122    0.42140653055540783    0.41544770541940923    
  0.32469312676806633    0.21144057525099952    0.21132567222007861    0.32417572413681334    0.41576708967265247    
  0.3793472005934957    0.32402273021875083    0.32391079999512346    0.37938326451285803    0.41544770541940923    
  0.4218974554472454    0.3244331196326639    0.14478685379981954    0.08298875906546953    0.14514048364180024    
  0.32417580995245837    0.42185270927523577    0.3731965992921403    0.33993818013105237    0.3731999566109673    
  0.4218974554472454    0.41142434338402306    0.39538044120960325    0.2114427825823158    0.08314469654029202    
  0.08298874504854761    0.21132568585595385    0.39547868393408936    0.41152354427545496    0.35617295508599617    
  0.3562671771336008    0.41142434338402306    0.3658765231505232    0.4223805617324731    0.3666858686069838    
  0.2114427655825828    0.14478683631926703    0.21144057752251216    0.36683090586859146    0.4223273857854895    
  0.36584189779279097    0.33415943450424107    0.3658765231505232    0.3191390072332819    0.3684992775662783    
  0.4223805535588613    0.3953803549962473    0.32443308928332526    0.3246931273865753    0.3954519200531095    
  0.4218870814646696    0.3687194906886459    0.3190301279213175    0.3191390072332819    0.30087069726950383    
  0.3191390371480306    0.3658765592028345    0.41142438917923857    0.4218974082034009    0.4154476908370322    
  0.4214065394962691    0.4114938867600268    0.366198722864344    0.3190728007855345    0.30087069726950383    
  0.3008705213148043    0.31913916558086425    0.36587638101456404    0.4114245573127936    0.42189728126648235    
  0.41544787948895456    0.4214063475727304    0.4114940131805773    0.3661985696213402    0.31907291458816894    
  0.3008705213148043    0.3190729160745366    0.3190300097992341    0.33415959875307627    0.3562670195350838    
  0.37320015515720545    0.3793832056815611    0.3794195763882503    0.37359885197135995    0.3562190240592512    
  0.3338384778499455    0.3190729160745366    0.36619861063793696    0.368719704078398    0.3658417317984782    
  0.3561730595789481    0.33993801877977614    0.32391098669468066    0.3175001595619483    0.32396387732592313    
  0.3395396246460932    0.3562189989331296    0.36619861063793696    0.4114940024447998    0.4218868670123885    
  0.4223275413499973    0.411523400839448    0.37319668110571524    0.32402257454425054    0.2928429932837239    
  0.2927697628659724    0.32396382303904503    0.37359875279496135    0.4114940024447998    0.42140636849766866    
  0.39545205438753817    0.3668307419522927    0.3954788062063546    0.42185253544189716    0.37934738728408657    
  0.3174289968485584    0.2928429949639556    0.3175001267510089    0.37941963192602485    0.42140636849766866    
  0.4154479008843825    0.32469299429085907    0.21144068476314964    0.21132552658624776    0.32417588745096754    
  0.41576693635001444    0.37934738646962307    0.3240226114180891    0.32391097654470175    0.37938317149489076    
  0.4154479008843825    0.4218973418808322    0.3244332511023517    0.14478674848808484    0.08298883917394063    
  0.1451403861054026    0.32417594930897936    0.4218525506577389    0.3731967706034922    0.3399380169962301    
  0.37320014960427517    0.4218973418808322    0.4114245226968303    0.39538032683870844    0.21144292832077785    
  0.08314462225600076    0.0829888277694967    0.211325528571834    0.39547885633794305    0.41152336819720114    
  0.3561730801298149    0.35626699755619384    0.4114245226968303    0.3658763457250864    0.4223807124912834    
  0.36668574069775556    0.21144288132772968    0.14478674258570443    0.2114407018725593    0.36683072285331336    
  0.42232751712508426    0.3658417428528295    0.3341595910404627    0.3658763457250864    0.3191391736994041    
  0.3684990986321184    0.42238070834378394    0.3953802242811054    0.32443322990315454    0.32469300502540827    
  0.39545203142255164    0.42188689032654175    0.3687196635063991    0.31902998787698283    0.3191391736994041    
  0.3008705213148043    0.31913916558086425    0.36587638101456404    0.4114245573127936    0.42189728126648235    
  0.41544787948895456    0.4214063475727304    0.4114940131805773    0.3661985696213402    0.31907291458816894    
  0.3008705213148043    0.2645320933061827    0.2813783453260698    0.32638565940661907    0.377906827031837    
  0.40695914779392944    0.41257039524016087    0.40668445074697185    0.37794730474693977    0.3265426676337389    
  0.2813473072015774    0.2645320933061827    0.2813473148783418    0.2813289761604981    0.29734668000734693    
  0.321996570658599    0.3445823289714296    0.3567885997668469    0.35681705094522553    0.3447964594342046    
  0.32196751378486116    0.29718719287538825    0.2813473148783418    0.32654265126901494    0.32739984379249665    
  0.3263626684570415    0.3219380889688008    0.31387717894257033    0.305699644340253    0.30232047946793855    
  0.3057223846910022    0.3136594600317999    0.32196747551955013    0.32654265126901494    0.3779472939575317    
  0.39163217763978414    0.391867827058646    0.377968517523497    0.3445789083879501    0.30575621552514554    
  0.2815552594735465    0.28152609902300213    0.3057223506514261    0.3447963895660114    0.3779472939575317    
  0.4066844238738888    0.4111569458549645    0.4001644371548485    0.4111685332672067    0.4069378855680904    
  0.35677184177778953    0.3022903796009269    0.2815553011359409    0.3023204598917969    0.35681704626531086    
  0.4066844238738888    0.4125704728180369    0.3849073636613021    0.31195480066949594    0.3118825013692212    
  0.38456939409855595    0.41274946325748313    0.3567718240039013    0.3057562494803194    0.30569960260781537    
  0.3567885026827793    0.4125704728180369    0.40695917737354886    0.3847430718197118    0.258508531879513    
  0.19511584323649098    0.2587857219535531    0.3845695004185698    0.40693791220984776    0.34457901875229474    
  0.31387715438300656    0.34458232096848745    0.40695917737354886    0.3779067884249572    0.4111317150528593    
  0.3119450253485382    0.19526341727269436    0.1951158452320657    0.31188247476852127    0.4111686176175066    
  0.3779685737125927    0.32193810039443777    0.32199651536391805    0.3779067884249572    0.32638563403412524    
  0.3918792112031329    0.40011463159901295    0.31194497476068506    0.25850851528491187    0.3119547793629139    
  0.4001644305700614    0.39186784634212773    0.3263625736547028    0.2973466059002239    0.32638563403412524    
  0.2813783570088298    0.32729773112158345    0.391879238675496    0.41113165810651264    0.3847429949267744    
  0.3849073647648328    0.41115692142090426    0.39163225089008985    0.3273998075067514    0.28132897203991436    
  0.2813783570088298    0.2645320933061827    0.2813783453260698    0.32638565940661907    0.377906827031837    
  0.40695914779392944    0.41257039524016087    0.40668445074697185    0.37794730474693977    0.3265426676337389    
  0.2813473072015774    0.2645320933061827    0.2150198288095812    0.22956850362158918    0.2704805726988405    
  0.32460970587120735    0.3683461727656881    0.38429134086086325    0.3682764677444163    0.324616995073757    
  0.27051099330091744    0.2295622498078188    0.2150198288095812    0.22956222797494513    0.22956174083674377    
  0.2469704962114428    0.27584232793926977    0.30632670701211495    0.3255566794477551    0.32556994246339904    
  0.3063787702337844    0.27583440736050013    0.24693590062882959    0.22956222797494513    0.2705110341852943    
  0.26800339800774425    0.2704694590381727    0.2758212110479512    0.2818865514976754    0.2863842010523825    
  0.2877210562253396    0.28638720197223927    0.2818310034145983    0.2758343917582097    0.2705110341852943    
  0.3246169515752454    0.3339126714009684    0.3339709761622965    0.3246318050174793    0.3063290397228603    
  0.28639746516241393    0.2736919362293796    0.2736865952578101    0.2863871744620296    0.30637868843038985    
  0.3246169515752454    0.3682764334782981    0.3914431822665053    0.39577784967569396    0.391443421103721    
  0.36833508828605827    0.3255578519257503    0.28771325033188644    0.27369192468890485    0.28772103790501113    
  0.32556998301175744    0.3682764334782981    0.38429137426976795    0.4150377869375545    0.40718362823332993    
  0.40714969673736645    0.41494786478002704    0.38433415638381346    0.32555785546099325    0.2863974947669598    
  0.2863841205037743    0.32555656763026775    0.38429137426976795    0.36834624155948376    0.41500047287008857    
  0.39802263506992736    0.37425915771840274    0.3981095491352249    0.4149479628954115    0.36833508899561296    
  0.30632907202192217    0.2818865269645496    0.30632663851275177    0.36834624155948376    0.3246096510300643    
  0.39144283949623554    0.40717585344267304    0.37429769326545453    0.3742591576738581    0.40714974110868035    
  0.3914434988151085    0.32463181741114056    0.2758212039324695    0.2758423312301658    0.3246096510300643    
  0.2704805471572108    0.33396790762234296    0.39578108610053164    0.40717584299168835    0.3980226435640918    
  0.4071836450531949    0.3957778260768831    0.33397097335405196    0.27046944916721766    0.24697043557926757    
  0.2704805471572108    0.22956847918639783    0.26798229491872394    0.33396790136881693    0.39144276988703675    
  0.41500042283578    0.4150378134669209    0.3914432225040681    0.3339126730895211    0.2680033847479769    
  0.22956170903133183    0.22956847918639783    0.2150198288095812    0.22956850362158918    0.2704805726988405    
  0.32460970587120735    0.3683461727656881    0.38429134086086325    0.3682764677444163    0.324616995073757    
  0.27051099330091744    0.2295622498078188    0.2150198288095812    0.17679773704817325    0.18976878630291572    
  0.2266827736258918    0.27841095187236153    0.3250730207539146    0.34392531080681804    0.32505974690926515    
  0.27840800280888334    0.22668489917735776    0.18976806185694936    0.17679773704817325    0.18976805864932528    
  0.18977382296951956    0.20970643251620827    0.24423852090545256    0.28295399185233255    0.30874863823670556    
  0.3087579724020408    0.28296386447068606    0.24423673838113136    0.2097019973275358    0.18976805864932528    
  0.22668493738564824    0.2198685875369378    0.2266746100565234    0.24423190586452023    0.2672871855611981    
  0.28702278707403117    0.2943639937747197    0.28701851113605786    0.26728226228444146    0.2442366968194878    
  0.22668493738564824    0.27840800777942815    0.2749634069717998    0.27497286964292245    0.2784184587484403    
  0.28296211627416945    0.28702408761669457    0.288709362023503    0.28870915093398414    0.28701847095330574    
  0.28296376592796385    0.27840800777942815    0.3250597408147384    0.3354891133109544    0.33835150327704006    
  0.335484215781666    0.32506106480116587    0.3087510582271269    0.2943602772428879    0.28870935394347746    
  0.2943639814218401    0.30875801574354    0.3250597408147384    0.34392533277711357    0.37428370652329745    
  0.38725157249812925    0.38723396746591415    0.3742818305396998    0.3439344208444502    0.3087510688659558    
  0.2870241299241061    0.2870227752570465    0.3087485849293864    0.34392533277711357    0.32507304608327314    
  0.3742891425087937    0.4041617016252902    0.4112846622755936    0.4041718323334312    0.3742819042963064    
  0.32506107449121635    0.2829621748951248    0.2672871543795026    0.2829539743638896    0.32507304608327314    
  0.27841092692765507    0.33548604794614767    0.3872463248264467    0.4112869430410208    0.4112846331291493    
  0.3872339472555141    0.33548428716481743    0.27841842921589366    0.24423190059740588    0.2442384961813839    
  0.27841092692765507    0.22668275279546216    0.2749719643469003    0.3383548138756071    0.3872462646998723    
  0.4041616703666352    0.3872516065483496    0.3383514738194798    0.27497287930562475    0.22667462905996996    
  0.20970641561863226    0.22668275279546216    0.189768789941444    0.21986487335155233    0.2749719640177244    
  0.3354859499727062    0.3742890938274437    0.3742837290418776    0.3354891139550982    0.2749634174066455    
  0.21986858460787728    0.1897737808299564    0.189768789941444    0.17679773704817325    0.18976878630291572    
  0.2266827736258918    0.27841095187236153    0.3250730207539146    0.34392531080681804    0.32505974690926515    
  0.27840800280888334    0.22668489917735776    0.18976806185694936    0.17679773704817325    0.1628860231817724    
  0.17540506413885767    0.21078481659501386    0.26073464609890623    0.30686198806847603    0.32584590013413633    
  0.30686205865696337    0.26073464644811173    0.2107847811179693    0.17540503641442934    0.1628860231817724    
  0.1754050518263448    0.17541364786375227    0.19934327321579862    0.2422956200756728    0.2913783539187474    
  0.324805734044199    0.324816120712586    0.29138017861561016    0.24229635921816792    0.19934104240857503    
  0.1754050518263448    0.21078478493857047    0.19934326879341616    0.2107753343852431    0.2422930100911044    
  0.28518764066002006    0.32284462006274306    0.3376081688663693    0.32283925408537917    0.2851875387322934    
  0.24229632393106945    0.21078478493857047    0.2607346456019824    0.2422956590028613    0.24229304329416754    
  0.2607454448749578    0.2913825123178216    0.3228363096606364    0.34168857954896364    0.34168504105647696    
  0.32283920522513093    0.2913800839833692    0.2607346456019824    0.30686201702813143    0.291378350544798    
  0.2851876219507923    0.29138247643116244    0.30684797449634754    0.3248140597415305    0.33760320000264293    
  0.34168862601253935    0.3376081429971774    0.32481614349522664    0.30686201702813143    0.32584597158759754    
  0.3248057025007702    0.32284458629613927    0.3228363128625139    0.32481398148418494    0.3258529068398824    
  0.3248140182847332    0.32283634280883017    0.3228445611024635    0.32480563482101005    0.32584597158759754    
  0.30686201507372884    0.3248161484162187    0.3376081946811784    0.34168854343610877    0.3376032093306892    
  0.32481410903539504    0.30684796494767375    0.29138258271875184    0.2851876117056159    0.2913783257595306    
  0.30686201507372884    0.2607346164449939    0.29138014330429385    0.3228392434142947    0.3416849533919688    
  0.341688563123643    0.32283628863313824    0.2913825730470125    0.2607454803509727    0.24229303055168877    
  0.2422956013156915    0.2607346164449939    0.21078477378653793    0.24229635349259954    0.2851875721248665    
  0.32283916948126745    0.3376081678715777    0.3228445950651883    0.2851876276971635    0.24229308080120923    
  0.2107752977395312    0.19934322887526307    0.21078477378653793    0.1754050578347766    0.19934102168034068    
  0.24229636757789696    0.2913801098076569    0.32481609852681703    0.32480574773110177    0.2913783369719185    
  0.24229570528553654    0.19934324140958518    0.17541362772839136    0.1754050578347766    0.1628860231817724    
  0.17540506413885767    0.21078481659501386    0.26073464609890623    0.30686198806847603    0.32584590013413633    
  0.30686205865696337    0.26073464644811173    0.2107847811179693    0.17540503641442934    0.1628860231817724    
  0.17679776203184105    0.189768106375604    0.22668496139336275    0.27840804290824217    0.3250596513587513    
  0.3439252900428246    0.32507307271413843    0.2784109563123191    0.22668273910135694    0.18976879257364004    
  0.17679776203184105    0.18976877701873926    0.18977381634791354    0.21986859990273844    0.27496336183054604    
  0.33548914591841134    0.374283733086777    0.37428909828847506    0.33548605773163087    0.2749719627754171    
  0.2198649049095364    0.18976877701873926    0.22668275414083416    0.20970643175255185    0.22667461828729613    
  0.27497281367819626    0.3383514968614076    0.3872516108931116    0.4041616359338013    0.38724635069598196    
  0.3383547685726855    0.27497191569334384    0.22668275414083416    0.27841091034615445    0.24423855065239475    
  0.24423195027439237    0.2784184460667391    0.3354842575585916    0.38723399493880234    0.41128472417222917    
  0.41128704036559494    0.38724628132876815    0.3354859457818576    0.27841091034615445    0.32507305271946735    
  0.2829539777410411    0.2672872014559917    0.28296206432181487    0.32506104534618846    0.37428186425649973    
  0.4041718828120361    0.4112847263532491    0.40416161779338156    0.3742891394556262    0.32507305271946735    
  0.3439253233338053    0.3087486242705529    0.2870227910291663    0.2870240715539175    0.3087510258527497    