#     DFTpy    
  CRYSTAL 
    
  PRIMVEC    
  4.942689655172414    0.0    0.0    
  0.0    4.942689655172414    0.0    
  0.0    0.0    2.7231034482758623    
  PRIMCOORD    
  4    1    
  Si    0.0    0.0    0.0    
  Si    2.471344827586207    2.471344827586207    1.3615517241379311    
  Si    0.0    2.471344827586207    0.6807758620689656    
  Si    2.471344827586207    0.0    2.0423275862068966    
  BEGIN_BLOCK_DATAGRID_3D    
  3d_datagrid_density    
  BEGIN_DATAGRID_3D#0    
  23    23    13    
  0.0    0.0    0.0    
  4.942689655172414    0.0    0.0    
  0.0    4.942689655172414    0.0    
  0.0    0.0    2.7231034482758623    
  0.05424938111323444    0.09475920204539254    0.2418781093946929    0.4008537696568955    0.4118566791354875    
  0.3532985455507669    0.32139178146667396    0.33241828787606725    0.3682511206334423    0.39308618714803284    
  0.38721798371764377    0.3774354846678294    0.38721791489928764    0.3930862456514094    0.3682510801497039    
  0.33241830541523965    0.321391806585268    0.35329857039885104    0.4118566810235063    0.40085374539906504    
  0.2418781306433835    0.09475921051626936    0.05424938111323444    0.09475923680168982    0.14181207813673893    
  0.2835664552293774    0.4042102685191453    0.39168103105000873    0.3315589674764719    0.3012063935310199    
  0.31192537297528766    0.34803122056992497    0.37863683693964745    0.38329533567103496    0.37895114714773587    
  0.38329537762331356    0.37863683427324796    0.3480311870037071    0.3119253838732394    0.3012063825724304    
  0.3315589920757825    0.39168103119429476    0.4042102712635748    0.2835665034884629    0.1418120972315124    
  0.09475923680168982    0.24187811574217785    0.28356650414085566    0.36760649929056854    0.39109451122967653    
  0.3367943906273897    0.2771486784174337    0.2506981510388357    0.2599958439451348    0.29439470259681305    
  0.33300859829067664    0.35599886264584596    0.36195717246375625    0.355998846844344    0.3330085818590975    
  0.29439469696171683    0.25999583714088076    0.25069817550835155    0.27714864244841686    0.3367943998095983    
  0.3910944798542051    0.3676065302249877    0.2835665053341053    0.24187811574217785    0.4008538425490723    
  0.4042102804113243    0.3910944919629396    0.3365591066684562    0.2654636078017814    0.2137876030936327    
  0.19260032148952694    0.19956355274389384    0.22805814038344183    0.2653279732087133    0.2950669658471188    
  0.3060848380443169    0.29506695011728845    0.26532801881301316    0.22805810737279458    0.19956355389832556    
  0.192600344740772    0.21378756101924917    0.2654636008753095    0.33655913048109287    0.3910945218310376    
  0.40421024265836913    0.4008538425490723    0.4118566991166439    0.3916809964472016    0.33679435435325816    
  0.26546364507528836    0.2020493045246853    0.16144073257499522    0.1452928335318056    0.15014042157710644    
  0.1714031773254619    0.20090179557180518    0.22650836045856637    0.23669500522490627    0.22650839558936797    
  0.20090179748080533    0.1714031520455727    0.1501404438494209    0.14529283823946376    0.16144069153743767    
  0.2020493361760106    0.265463610194949    0.33679437852950905    0.3916810309399044    0.4118566991166439    
  0.3532985714555026    0.33155904081614107    0.27714868288900985    0.21378760979810982    0.16144071522264913    
  0.12871961296495643    0.11562258229360127    0.11902412648604224    0.135093080080726    0.1578420204713017    
  0.17805668525964768    0.18620804787916012    0.17805670278612598    0.15784203213410422    0.13509304902850455    
  0.11902411610553847    0.11562256447235163    0.12871959508097125    0.16144073948315754    0.21378760037394598    
  0.2771487008736315    0.33155903727507813    0.3532985714555026    0.3213918129558576    0.301206433243282    
  0.2506981732286961    0.19260034506578194    0.14529284115728158    0.11562257404850444    0.10341732005055074    
  0.10592925664338855    0.11966419899603822    0.13944126228518144    0.15716194703799075    0.16430458727661743    
  0.1571619516603666    0.13944126952535466    0.11966418086119862    0.10592925177998844    0.10341732337533802    
  0.1156225585250418    0.14529284003311094    0.19260033025461085    0.25069817886447354    0.30120639847742736    
  0.3213918129558576    0.3324182557827818    0.31192531522325057    0.25999581699277147    0.1995635388787456    
  0.15014042807906242    0.11902411106584551    0.1059292402081624    0.1081284301939765    0.12217116119840618    
  0.14267271262176312    0.16108551581641842    0.16850909057671842    0.16108554402884745    0.1426726980702698    
  0.12217114069598925    0.10812844229448962    0.10592925342858069    0.1190241030939482    0.1501404547082903    
  0.19956352425897636    0.2599958472230676    0.31192535392301773    0.3324182557827818    0.36825113110798147    
  0.3480312234498084    0.2943947059693922    0.22805812818569643    0.17140317482310674    0.1350930671051366    
  0.11966419002263787    0.122171165293908    0.13873158882893868    0.1628921463265146    0.1846384916167254    
  0.19347148807949602    0.18463847522181293    0.16289215875361948    0.1387315711955374    0.12217117020316624    
  0.11966418790649325    0.1350930569778043    0.17140317168122152    0.2280581056210701    0.29439470565711595    
  0.348031206511665    0.36825113110798147    0.39308619279901197    0.37863688903048154    0.3330085503899249    
  0.26532796133589553    0.20090177826127845    0.15784203744474803    0.13944125075093664    0.14267269466880275    
  0.16289211070325094    0.1923663697452794    0.21908509899484407    0.2300343234898386    0.21908508639904486    
  0.19236637768594533    0.16289212419345175    0.14267268296028354    0.1394412760151837    0.15784200789989256    
  0.20090178730301353    0.2653280094637575    0.3330085732232897    0.3786368561174164    0.39308619279901197    
  0.3872179252700347    0.3832953167540409    0.35599881922447785    0.2950669658360508    0.22650837158136278    
  0.17805666409812587    0.1571619377421074    0.16108553683191823    0.18463851606337917    0.2190850665002623    
  0.25036271599346915    0.2631283606141714    0.25036266189818257    0.21908508492457282    0.1846384844656965    
  0.16108552551956332    0.15716192295724718    0.17805667650192725    0.22650837859558295    0.2950669304261674    
  0.35599886410840437    0.38329535281020033    0.3872179252700347    0.377435500032017    0.3789511211459425    
  0.3619571898808053    0.3060848448916812    0.2366950188357357    0.18620801477749285    0.16430458208020793    
  0.16850911784743144    0.1934714594824403    0.23003429018822782    0.26312843553108206    0.2765532483356982    
  0.26312839053925025    0.23003433783710311    0.19347143955372234    0.16850912612483648    0.16430457945847562    
  0.18620802568182443    0.23669502342308896    0.3060848315908856    0.3619572274101898    0.37895110171948104    
  0.377435500032017    0.38721792040260417    0.38329534105228547    0.3559988395006544    0.2950669630905804    
  0.22650835576862186    0.17805665471740453    0.15716194393769548    0.16108553604225068    0.18463848091092613    
  0.21908510623158503    0.2503626854524415    0.2631283714442075    0.2503627006196079    0.21908508863165732    
  0.18463845439884252    0.16108553087607963    0.1571619348837998    0.17805668311384848    0.2265083762490816    
  0.29506693080108104    0.3559989133628158    0.3832953658759127    0.38721792040260417    0.3930862529191419    
  0.37863685212306836    0.3330085487838694    0.2653279813482506    0.20090178068064207    0.15784202526361094    
  0.13944126051979763    0.14267267104358577    0.16289213230044097    0.19236636529745765    0.21908511213915702    
  0.2300342902906699    0.21908510674327633    0.1923663669716818    0.16289212914259937    0.14267266148274818    
  0.13944126990127792    0.15784202124915775    0.20090179071738118    0.26532796367981515    0.3330085819917306    
  0.3786368685483538    0.3930862529191419    0.3682510829440498    0.34803123962772337    0.29439471018538194    
  0.22805813280532397    0.17140316514981355    0.1350930861761582    0.11966418388702373    0.12217117352872268    
  0.13873157591894086    0.16289213273460743    0.18463850185832317    0.19347147197962086    0.184638489401565    
  0.16289215203518229    0.1387315647833162    0.12217117386190614    0.11966419653331899    0.13509304563209815    
  0.171403180930737    0.22805813915178405    0.29439471836912257    0.3480312133024397    0.3682510829440498    
  0.3324183035877606    0.3119253983925248    0.2599958154604007    0.19956355539803752    0.1501404205916891    
  0.11902411391479542    0.10592922489373927    0.10812842667888123    0.12217114531017066    0.14267271494684686    
  0.16108552080705413    0.16850908292425498    0.16108554215590964    0.14267270796780063    0.12217114915175659    
  0.10812844256361845    0.10592925435962988    0.11902409452141167    0.15014042938321379    0.19956353818232433    
  0.2599958311907108    0.3119253696389328    0.3324183035877606    0.3213917561596462    0.30120641729645187    
  0.2506981679505585    0.19260034728307496    0.14529283433379325    0.115622578535261    0.10341731033326888    
  0.1059292542519412    0.11966419846477862    0.13944127402177292    0.1571619254101372    0.16430459045714424    
  0.15716197749430705    0.13944126614831204    0.11966418121656977    0.10592924050814709    0.10341732288365552    
  0.1156225494854323    0.14529285203059125    0.19260031410388345    0.2506981936152477    0.3012064057336663    
  0.3213917561596462    0.35329860715982064    0.33155901358062184    0.27714867193663917    0.21378762027366854    
  0.16144071982594396    0.12871960458308    0.11562258806135209    0.11902414249520832    0.13509306443193375    
  0.15784201472351717    0.17805668660242213    0.18620803742603337    0.1780567112736404    0.157842022939716    
  0.13509305133985686    0.11902412245700747    0.1156225765650011    0.12871958070687642    0.1614407392030496    
  0.21378759380579584    0.2771486995862179    0.3315589970980724    0.35329860715982064    0.41185669195076263    
  0.39168101463133076    0.3367943939432906    0.26546362116460465    0.20204930364786072    0.1614407176319619    
  0.14529282063971377    0.1501404044295841    0.17140316766404162    0.20090178537845169    0.2265083547783201    
  0.23669498644235323    0.22650837954640113    0.20090179376400635    0.17140316537856032    0.1501404475298895    
  0.1452928367161606    0.1614407077855798    0.2020493233693967    0.2654635841602647    0.3367943777602885    
  0.3916810482928292    0.41185669195076263    0.40085382527115804    0.40421026360904666    0.39109451961072683    
  0.3365591322614742    0.26546360708718114    0.21378762373859103    0.19260032889432735    0.19956354044367242    
  0.228058142686279    0.2653279926685447    0.2950669746074881    0.30608482796257874    0.2950669317867722    
  0.2653280069377243    0.22805809940129962    0.1995635538119775    0.19260031290608076    0.2137876041852219    
  0.2654636084492843    0.3365590757442945    0.39109449725368356    0.4042102653828356    0.40085382527115804    
  0.24187813094283814    0.28356653496858547    0.36760652325000465    0.3910944858314853    0.33679437686491287    
  0.2771486805154728    0.2506981517108562    0.25999586814231385    0.2943946780224245    0.3330086090870912    
  0.35599887296517774    0.3619572206007599    0.35599885232344086    0.3330086213257962    0.29439468852338124    
  0.25999583078957345    0.2506981844969844    0.277148660840592    0.336794388732871    0.39109447363159394    
  0.3676065180808629    0.2835665113069635    0.24187813094283814    0.09475921879845915    0.14181209439668335    
  0.28356644757352684    0.40421028207537507    0.39168103850910546    0.33155896908687493    0.3012063969888942    
  0.31192538900926536    0.34803123619545545    0.3786368266020967    0.3832953467048523    0.3789511269582523    
  0.38329537173097594    0.37863683542470844    0.34803118416380024    0.31192536318784553    0.3012063967045109    
  0.33155898356824465    0.3916810472388146    0.40421021382029515    0.2835665164849137    0.14181208306175752    
  0.09475921879845915    0.05424938111323444    0.09475920204539254    0.2418781093946929    0.4008537696568955    
  0.4118566791354875    0.3532985455507669    0.32139178146667396    0.33241828787606725    0.3682511206334423    
  0.39308618714803284    0.38721798371764377    0.3774354846678294    0.38721791489928764    0.3930862456514094    
  0.3682510801497039    0.33241830541523965    0.321391806585268    0.35329857039885104    0.4118566810235063    
  0.40085374539906504    0.2418781306433835    0.09475921051626936    0.05424938111323444    0.0946527027635631    
  0.14045081984268637    0.27618135329488763    0.38605048091641747    0.3641114346743252    0.2968220781601202    
  0.2579229011171152    0.25723664882120567    0.2855635339306324    0.32606287695730973    0.35744064172720647    
  0.3681633681743975    0.3574406275740613    0.32606290758091666    0.28556353715083    0.2572366573667693    
  0.25792291183185073    0.2968221215361924    0.3641114404529302    0.3860504905023134    0.276181374149308    
  0.14045082525935199    0.0946527027635631    0.14278404297823372    0.19047886736944242    0.31198222023318656    
  0.3867202838627415    0.3476539458335883    0.2802286204548221    0.24312936959451284    0.24239679021352387    
  0.2692196414609184    0.30824476754099833    0.3397228631888097    0.35103049799047814    0.3397229023134319    
  0.3082447825044746    0.26921962060167354    0.24239678930474232    0.24312933155622188    0.2802286478872195    
  0.34765395301871976    0.38672026512825997    0.31198227867794076    0.19047889134371698    0.14278404297823372    
  0.29044299075715746    0.32325784455076545    0.37845401564796405    0.3709164318645277    0.3028546120630395    
  0.23847579274988756    0.2061035707012287    0.2051863515067496    0.22806673654383572    0.26248803750338795    
  0.2921082484778879    0.3035448670357291    0.29210823679637504    0.2624880112382267    0.22806672448796292    
  0.2051863473685848    0.20610360542250702    0.2384757431075456    0.30285464172123044    0.370916400750903    
  0.37845405735974413    0.3232578375223995    0.29044299075715746    0.4246258124563262    0.42005420140341354    
  0.38973275025846943    0.321881910743409    0.24484729223102403    0.18961232470131006    0.16351519304560558    
  0.16240954105801217    0.18014652958326446    0.20758036103667493    0.2320650537046221    0.24186426031349312    
  0.23206502891735364    0.20758041108353814    0.18014650960973747    0.16240954347785275    0.16351519698279843    
  0.18961229616652506    0.24484732488657973    0.32188192856065273    0.3897327818179876    0.420054178218332    
  0.4246258124563262    0.42789403702532225    0.40415962995943455    0.34135166515747895    0.2627982982102879    
  0.19441616746028628    0.149796433805359    0.1292469453242149    0.12810438741701477    0.14132798639036834    
  0.16212343753720485    0.18097573444126225    0.1886126115926601    0.1809757293329722    0.16212346354743634    
  0.14132796519109805    0.12810441488684754    0.12924696055582846    0.14979642240040045    0.1944161915542159    
  0.2627982482587921    0.34135171354674004    0.4041596537635942    0.42789403702532225    0.38259850328182    
  0.3577452684351075    0.29571448416988694    0.22400436994941186    0.1648276143739628    0.12684834960713473    
  0.10933193799022116    0.10812000204626276    0.1187261481959161    0.13553130625265858    0.15085727727231416    
  0.1570796446533967    0.15085728749233682    0.13553131897716927    0.1187261274266378    0.10812000947190371    
  0.10933193204634081    0.12684831379215428    0.1648276322517289    0.2240043628012411    0.29571451125005327    
  0.35774525322207906    0.38259850328182    0.37010222936807974    0.3458945167270935    0.28539335610494593    
  0.2157497276011743    0.15864695575106483    0.12199565809004777    0.10492300912328006    0.10348463394171936    
  0.11337706985018232    0.1292583466131606    0.14376318943930522    0.14963995526706056    0.14376319113004704    
  0.129258359996543    0.11337707124975438    0.10348462010753173    0.10492300135218235    0.12199566070817953    
  0.1586469550672786    0.2157496891319971    0.2853933748828966    0.34589447364266834    0.37010222936807974    
  0.39891552574206035    0.37467484224336783    0.3121846565200257    0.23740934832634064    0.1746397418013509    
  0.1340742022029443    0.11504176343564096    0.11328509162336946    0.12431479690786106    0.1422008480860695    
  0.1585324842050661    0.16513401564073923    0.1585325060873817    0.1422008410083679    0.12431479434607126    
  0.11328511993081104    0.11504177610789741    0.13407419475468496    0.1746397730485902    0.2374093150620316    
  0.31218469975921403    0.37467486832868896    0.39891552574206035    0.42455329469052305    0.4082350925277526    
  0.35696997189742896    0.2812881107236549    0.20930098847133724    0.1604609873596435    0.13721409069684198    
  0.13519671796565885    0.14915723804031933    0.1717144585960055    0.1923130720190435    0.20065815193057485    
  0.19231303716472517    0.17171448488667848    0.14915718615521315    0.13519673928812836    0.1372140704797883    
  0.1604609725929667    0.20930097731547592    0.28128811746501914    0.3569699875319022    0.4082350876869833    
  0.42455329469052305    0.3775555035456053    0.3852192777350786    0.37967655584888665    0.3272024398978316    
  0.25220146434269286    0.19438035815165045    0.16603375933784856    0.16389723143688542    0.18168889678876432    
  0.21031500655370708    0.23654628954898638    0.24718946085019214    0.23654630769615437    0.21031501755716922    
  0.18168891707626952    0.16389721258431458    0.16603378984070408    0.19438035011255725    0.2522014735173328    
  0.32720241439318243    0.3796765734826912    0.38521926142252166    0.3775555035456053    0.28191551787786523    
  0.3129953227029905    0.36418240639466976    0.354439196514235    0.2870915070915675    0.22367898003302172    
  0.1913034398554526    0.18916886669827915    0.21031953280468432    0.24429525200527674    0.27526380558387836    
  0.28767707250454805    0.2752637891387264    0.24429527842235818    0.21031952524605235    0.1891688537650074    
  0.19130344230723295    0.22367902777909152    0.2870915030055069    0.3544391113586716    0.3641824789182521    
  0.31299534127489936    0.28191551787786523    0.23748130766255107    0.2757728030224762    0.349581107886016    
  0.36174175424918836    0.30039195185771195    0.23535204936381943    0.20143174804471106    0.19932482615193325    
  0.22189724655911044    0.25809804365041294    0.29085019897717895    0.30383226697845606    0.290850171194187    
  0.2580981029109362    0.2218971894988257    0.19932483835226175    0.20143173563711014    0.23535207537392458    
  0.30039194674999187    0.36174175874748965    0.3495811284608321    0.27577279653988473    0.23748130766255107    
  0.2819155044658138    0.31299530717715335    0.364182448906227    0.3544391737532045    0.28709150797588995    
  0.22367898471249248    0.19130344389850465    0.18916884697180783    0.21031954441482847    0.24429527204510423    
  0.2752637730296897    0.2876771151242351    0.2752638042913587    0.24429531362184445    0.21031951125837547    
  0.1891688583546845    0.1913034071784042    0.2236790162262412    0.2870914994165046    0.35443912386782483    
  0.3641824970101419    0.31299531314063045    0.2819155044658138    0.37755549533999516    0.38521927950599916    
  0.3796765470950532    0.32720240779213133    0.2522014728241441    0.19438035671211484    0.16603376921246926    
  0.16389719690195995    0.18168891598763634    0.21031498071547042    0.236546286703025    0.24718943250627545    
  0.23654629962588025    0.21031500420012797    0.18168891448422725    0.16389720016292245    0.16603379269682744    
  0.19438034232432286    0.25220147640112495    0.3272024146074159    0.3796765894245608    0.3852192962402823    
  0.37755549533999516    0.424553250596804    0.4082350982001425    0.35696997569628197    0.2812881268242433    
  0.20930098473796566    0.16046099316748158    0.13721406523031382    0.1351967242847023    0.14915721404494672    
  0.17171445871878083    0.19231308616902412    0.20065814073497357    0.19231305554875958    0.1717144620034304    
  0.14915717265237408    0.13519673185969883    0.13721407559976426    0.16046096545950153    0.2093009858176139    
  0.28128813186244395    0.35696997986247053    0.4082350947653355    0.424553250596804    0.39891555044087124    
  0.3746748579748121    0.3121846555904775    0.23740934055847918    0.17463973324769874    0.13407421753996712    
  0.11504175418192243    0.11328509257618471    0.12431481372976518    0.1422008446606185    0.15853248357797367    
  0.16513400231954    0.15853250511976938    0.1422008541148712    0.12431480352159095    0.11328511883282799    
  0.11504177135553033    0.13407419843289106    0.1746397549620189    0.23740933708113857    0.3121846767253893    
  0.37467488414099537    0.39891555044087124    0.3701021860096549    0.3458945071212171    0.2853933974732328    
  0.21574972607131274    0.15864692080505885    0.1219956745374679    0.10492299675229066    0.1034846231107195    
  0.11337707663157201    0.1292583780982151    0.1437631562844376    0.1496399672349621    0.14376319839571067    
  0.1292583691758493    0.11337705144123067    0.10348461265959857    0.10492299488146549    0.12199566202059807    
  0.1586469585218783    0.21574970864026077    0.28539340158593074    0.34589448687621793    0.3701021860096549    
  0.38259853170011787    0.357745239243295    0.29571447682549185    0.22400438266717676    0.16482763594223387    
  0.12684834328748876    0.1093319368569745    0.10812000884233279    0.1187261286327458    0.13553130767530486    
  0.15085729452295701    0.15707965055870945    0.15085732547625982    0.1355312975798616    0.11872612870087265    
  0.10812001882267921    0.10933194412386821    0.12684830155585303    0.16482766751914213    0.22400434573673952    
  0.2957144890205328    0.3577452255381385    0.38259853170011787    0.4278940434726415    0.40415962517046117    
  0.34135169337547183    0.2627982496846988    0.1944161877910869    0.149796437945249    0.12924695001050923    
  0.12810438889035652    0.14132798492927348    0.16212345868574424    0.1809757033248806    0.18861260734317128    
  0.1809757361213208    0.1621234507646621    0.14132797196990018    0.12810441970313394    0.1292469567340134    
  0.14979640746049644    0.19441617230402408    0.2627982532587546    0.34135170630080003    0.4041596668187285    
  0.4278940434726415    0.42462576338675656    0.42005418927683374    0.3897327540624368    0.32188192209790184    
  0.2448472984038023    0.1896123275301178    0.16351519641114715    0.16240953483063436    0.18014651578734517    
  0.20758039955890464    0.2320650427407191    0.2418642423056132    0.2320650307164272    0.2075804150263118    
  0.18014649658856224    0.16240953058397908    0.16351518547970795    0.18961231406310383    0.24484731367198867    
  0.32188192185853143    0.3897328053494647    0.42005416714320454    0.42462576338675656    0.2904429943192376    
  0.32325782888726107    0.378454044603495    0.37091638947952604    0.30285463976194676    0.23847580392533216    
  0.20610357113274813    0.20518636467221316    0.22806670789042202    0.2624880444732508    0.29210824874723423    
  0.30354487631084015    0.2921082557777387    0.26248803504300716    0.22806673366706293    0.20518635229604745    
  0.2061035913760412    0.2384757960393544    0.30285461967114474    0.37091641168506245    0.37845406250730584    
  0.32325782140302767    0.2904429943192376    0.14278404857224228    0.19047889071698715    0.3119821795221612    
  0.3867202890579174    0.3476539684133354    0.2802286196928103    0.24312936938419644    0.24239678634935002    
  0.26921965076180243    0.30824476971646    0.33972285172395783    0.3510304775150005    0.33972287631774695    
  0.3082447729852811    0.2692196666304248    0.2423967691811607    0.24312936845360913    0.2802286188197226    
  0.34765397116627955    0.3867202289004099    0.31198226096478604    0.19047887680116468    0.14278404857224228    
  0.0946527027635631    0.14045081984268637    0.27618135329488763    0.38605048091641747    0.3641114346743252    
  0.2968220781601202    0.2579229011171152    0.25723664882120567    0.2855635339306324    0.32606287695730973    
  0.35744064172720647    0.3681633681743975    0.3574406275740613    0.32606290758091666    0.28556353715083    
  0.2572366573667693    0.25792291183185073    0.2968221215361924    0.3641114404529302    0.3860504905023134    
  0.276181374149308    0.14045082525935199    0.0946527027635631    0.23748134626771203    0.275772799159001    
  0.3495810944484634    0.3617417404592148    0.3003919512552153    0.23535205929963687    0.2014317451842523    
  0.19932482293566844    0.2218972193510742    0.2580980307490954    0.29085017073245545    0.30383226406369745    
  0.2908501831506711    0.2580980802637984    0.22189722504918585    0.1993248367825774    0.2014317427655372    
  0.23535208229011034    0.3003919411592843    0.3617417461522691    0.3495811123657067    0.27577279154657414    
  0.23748134626771203    0.28191551516628355    0.31299530006620585    0.36418241827656644    0.3544391628662447    
  0.2870915075924616    0.22367898420660626    0.19130345706165322    0.18916886055890078    0.21031952041801616    
  0.24429528449965152    0.2752638011035245    0.2876771111777589    0.2752638246926924    0.24429529894080698    
  0.2103194970252576    0.18916885369584382    0.19130341259082537    0.22367900712865285    0.28709150000384104    
  0.3544391702665028    0.364182482195686    0.31299535597373146    0.28191551516628355    0.3775554947092623    
  0.385219294870042    0.37967655477770457    0.32720244294993023    0.2522014726965628    0.1943803775894031    
  0.16603374751391414    0.16389723606142745    0.18168893076011253    0.2103150075082058    0.23654629012924705    
  0.2471894530815314    0.23654626485125396    0.21031498595728856    0.18168892020518135    0.1638972192394034    
  0.16603379367800242    0.19438031853757862    0.25220148579855867    0.3272024025574233    0.3796765663478702    
  0.3852192809234411    0.3775554947092623    0.4245533058355121    0.4082351095970852    0.3569699499783854    
  0.2812880914161762    0.20930098725889112    0.16046100372204086    0.13721405992066243    0.13519673369377272    
  0.14915720544802344    0.1717144309476135    0.19231307642549872    0.20065814774198948    0.1923130513812598    
  0.17171445562741805    0.14915720009583272    0.13519674231009643    0.13721407601531085    0.16046095848651218    
  0.2093009821287451    0.2812881242339809    0.35696999894455794    0.4082350606446404    0.4245533058355121    
  0.3989155636552352    0.37467486840300307    0.3121846543208067    0.2374093780098811    0.17463973767711566    
  0.13407419997499614    0.11504176586702207    0.11328509860010688    0.12431480487684513    0.14220084481229905    
  0.15853249870915195    0.1651340111222571    0.158532509222293    0.14220085081766254    0.12431478766648342    
  0.11328512526756845    0.11504178641598614    0.1340741925765185    0.17463975723799766    0.2374093438787191    
  0.31218468245150266    0.37467487690390244    0.3989155636552352    0.3701022130364851    0.34589450584173675    
  0.2853933998124081    0.21574971773977036    0.1586469339085211    0.12199568776193308    0.10492299935604026    
  0.10348461606456612    0.11337707546045205    0.1292583555597022    0.14376318297422044    0.1496399573834934    
  0.14376318602019175    0.12925836864509696    0.11337706261888712    0.10348460851900763    0.10492299235588573    
  0.12199565797116167    0.15864696316216342    0.21574969090392698    0.2853934004226    0.34589451253880404    
  0.3701022130364851    0.3825985071206906    0.3577452648881057    0.2957144733756719    0.22400438252222732    
  0.16482762967764128    0.12684832272996946    0.10933194389272723    0.1081200059062021    0.11872616028152153    
  0.13553131141538063    0.15085728515932084    0.15707961566213893    0.15085730297267894    0.13553132236070856    
  0.11872613939593542    0.10812000407363626    0.1093319372528458    0.1268483160462652    0.16482764047156062    
  0.22400434338279854    0.2957144829530082    0.3577452155789418    0.3825985071206906    0.4278940330596117    
  0.40415963550632017    0.3413516882152936    0.26279827434172837    0.19441617128141114    0.14979643263913878    
  0.12924693906631965    0.12810438053220607    0.1413279723485844    0.16212346023163743    0.1809757021295052    
  0.18861264310108913    0.18097573197256475    0.162123437917693    0.14132797697912747    0.12810441034221126    
  0.12924695649435924    0.1497964288383777    0.19441618134821162    0.26279826798519157    0.3413517170359092    
  0.4041596348878148    0.4278940330596117    0.4246258238752025    0.4200541918349187    0.3897327583319572    
  0.32188189895779756    0.24484732498561732    0.18961231382888658    0.163515215424527    0.16240951902538803    
  0.18014653468271363    0.20758040031216277    0.23206504769801317    0.24186425433281308    0.2320649915745749    
  0.20758042528112483    0.18014649978303907    0.16240952281278562    0.1635151925427813    0.1896123099904732    
  0.24484731181073405    0.32188189044869636    0.38973280494043583    0.42005418236939485    0.4246258238752025    