#     DFTpy    
  CRYSTAL 
    
  PRIMVEC    
  3.903734767831226    -2.1447879999999997e-10    4.0652908965517236e-10    
  -2.1447879999999997e-10    3.903734767604391    1.958853724137931e-10    
  7.428806551724137e-10    3.5801531034482757e-10    7.15171775151252    
  PRIMCOORD    
  4    1    
  Si    1.9518673838412388    1.95186738487637    2.197681739311073    
  Si    7.238027870565009e-10    -6.698698320513726e-10    1.3781771340411255    
  Si    1.1101433486693987e-10    5.05911691556499e-10    5.773540613414884    
  Si    1.9518673844264527    1.951867383393531    4.9540360168603685    
  BEGIN_BLOCK_DATAGRID_3D    
  3d_datagrid_density    
  BEGIN_DATAGRID_3D#0    
  17    17    31    
  0.0    0.0    0.0    
  3.903734767831226    -2.1447879999999997e-10    4.0652908965517236e-10    
  -2.1447879999999997e-10    3.903734767604391    1.958853724137931e-10    
  7.428806551724137e-10    3.5801531034482757e-10    7.15171775151252    
  0.2542482821119944    0.23566296784570448    0.18928784906483093    0.13591617629167446    0.09181120417245173    
  0.062036586407867356    0.04464043669641557    0.03592058659123148    0.03328816464442766    0.035920643010108645    
  0.04464042360885346    0.06203653654329619    0.09181116306568655    0.13591623824363644    0.18928780392889522    
  0.2356628847546865    0.2542482821119944    0.2356629192172255    0.21869831433906317    0.17645608370913501    
  0.1277825775766314    0.08729314927930469    0.0597528524701278    0.04358560990472504    0.03543695748997369    
  0.03296200767731775    0.03543699914044227    0.043585620458160716    0.05975286156148006    0.08729316380145732    
  0.12778261516654507    0.17645604566318682    0.2186983270487802    0.2356629192172255    0.18928778812635222    
  0.17645600040320195    0.14451497580329314    0.10732083075639778    0.07581917082818482    0.05398296146521641    
  0.04090760187841186    0.03417982969440968    0.03209287944628838    0.034179891569227724    0.04090759998879327    
  0.05398291660297016    0.07581921285360774    0.10732091326944558    0.1445149926398606    0.17645594542354073    
  0.18928778812635222    0.13591620597533643    0.12778260738510275    0.10732087251366178    0.08299339823982582    
  0.061904482706716224    0.046892823280709726    0.03762528289862714    0.03273817351974399    0.031203260738629116    
  0.03273819329387308    0.03762526088096851    0.04689281793138014    0.061904483084269844    0.08299335031775538    
  0.1073209255905692    0.12778257811148244    0.13591620597533643    0.09181116892629304    0.08729314276881911    
  0.07581915149336871    0.061904465179387635    0.049538686083480825    0.0404933092320667    0.034771900709419434    
  0.03175046914804593    0.03081838091010384    0.031750509552569375    0.03477189490196143    0.04049327945576784    
  0.0495387072872356    0.0619044797032727    0.07581918101889325    0.08729312840531987    0.09181116892629304    
  0.0620365640195427    0.05975288908991291    0.05398299705410382    0.04689285441264414    0.04049329893431353    
  0.03581565602457988    0.03292111825078581    0.031469328759278443    0.031041881754087546    0.03146937042027498    
  0.03292113597485516    0.03581564861617556    0.04049331975616445    0.0468928069139305    0.053982987489544096    
  0.0597528641885113    0.0620365640195427    0.044640383179750914    0.04358562581621015    0.04090757808398644    
  0.037625236165255184    0.03477190131099624    0.03292111109118821    0.03204451040210165    0.03177212146782512    
  0.03172745161866237    0.0317721452598803    0.03204452246608489    0.03292109023561107    0.03477190887112414    
  0.037625238077609396    0.04090762139262649    0.04358559961252215    0.044640383179750914    0.03592062557586939    
  0.0354369849191059    0.0341798580042675    0.032738198776384037    0.031750522015202946    0.031469337958173214    
  0.03177213546899131    0.03224678941003701    0.03246486952737961    0.03224681285679015    0.03177214810671789    
  0.031469323954071496    0.031750522838715996    0.032738181884586395    0.03417986186691486    0.035436985707178896    
  0.03592062557586939    0.03328812161117241    0.03296202267799462    0.032092894284300656    0.03120325915500831    
  0.030818386215286712    0.031041912473504782    0.031727473191101314    0.03246484464795417    0.032774560553901176    
  0.03246488966564488    0.031727481968136836    0.031041887536690918    0.03081837592197636    0.031203308043620814    
  0.03209287434474419    0.032962027317408146    0.03328812161117241    0.03592061372718979    0.03543699696762237    
  0.03417986517964208    0.03273819470292083    0.03175052465930001    0.031469327586736366    0.03177213839006686    
  0.03224679166190898    0.03246487578767194    0.03224681489615249    0.03177214257448937    0.031469307458629206    
  0.031750513963501314    0.03273816881366505    0.03417986715711683    0.035436993868712054    0.03592061372718979    
  0.04464039043304624    0.04358560412642874    0.040907592729610254    0.037625234292234015    0.034771884303136116    
  0.03292110270686765    0.03204452079579101    0.03177209521150932    0.031727453447922695    0.031772179954044945    
  0.03204452788502853    0.032921114621208565    0.03477191260818922    0.03762524812795116    0.04090759407831246    
  0.04358559392679582    0.04464039043304624    0.062036577486064406    0.05975284216016153    0.05398297332540552    
  0.04689284324335272    0.040493315779834095    0.035815646590910535    0.03292116039534333    0.03146929500783539    
  0.03104188801144646    0.0314693414333642    0.032921114476408095    0.035815638336683456    0.04049330183282628    
  0.04689281835428654    0.053982948574042476    0.059752858917037154    0.062036577486064406    0.09181109648170016    
  0.08729315184368285    0.07581917969832305    0.061904470871461836    0.04953871360165997    0.0404933178881813    
  0.03477190046325817    0.031750495325353775    0.030818391165916562    0.031750518549452926    0.03477189831095293    
  0.040493257963018926    0.04953869591597097    0.061904491750996535    0.07581919004395479    0.08729314386158357    
  0.09181109648170016    0.13591625039172067    0.12778261295369017    0.1073209215872756    0.08299337592970658    
  0.06190447377292886    0.046892830285358705    0.03762527501985619    0.03273817657814165    0.031203261015069646    
  0.032738180697603377    0.03762525222465286    0.04689283135303263    0.06190447989116471    0.0829933311811133    
  0.10732087816059342    0.12778261116565875    0.13591625039172067    0.18928775280504936    0.17645600709309053    
  0.14451498741455035    0.10732086461821966    0.07581917686427302    0.053982953049554444    0.04090757953596415    
  0.03417981933977091    0.03209287970241796    0.034179865076761046    0.04090759906182752    0.0539829263592668    
  0.07581918702962201    0.10732088305454926    0.14451504695210887    0.1764560308869593    0.18928775280504936    
  0.23566294331662369    0.2186983767261004    0.17645606195754338    0.1277826620544437    0.08729314880070747    
  0.05975283641794992    0.04358561900490342    0.03543695168830637    0.03296202186516799    0.035436990576223605    
  0.043585622820343575    0.059752831294032915    0.08729316866767892    0.12778261836715832    0.1764560172687467    
  0.21869834720082312    0.23566294331662369    0.2542482821119944    0.23566296784570448    0.18928784906483093    
  0.13591617629167446    0.09181120417245173    0.062036586407867356    0.04464043669641557    0.03592058659123148    
  0.03328816464442766    0.035920643010108645    0.04464042360885346    0.06203653654329619    0.09181116306568655    
  0.13591623824363644    0.18928780392889522    0.2356628847546865    0.2542482821119944    0.29150527458753406    
  0.2698232865798465    0.2156530455321748    0.15321406445311084    0.10173610940273235    0.06723868421641288    
  0.04727329052852244    0.037411605577418586    0.03448452923869459    0.03741165627240412    0.04727327886111458    
  0.06723860199881244    0.10173607003636884    0.15321418145207735    0.2156530305661256    0.26982322151625804    
  0.29150527458753406    0.26982322780413664    0.25007583765738506    0.2007677717920441    0.1438127912295422    
  0.09658079373673148    0.0646993013495365    0.04614447581213037    0.03692760832262713    0.03417977239595645    
  0.036927639581433906    0.04614449060790735    0.0646992888004708    0.09658076022428595    0.14381280174296643    
  0.20076779592581329    0.2500758244884097    0.26982322780413664    0.21565298423662313    0.2007677268780265    
  0.16351431045914522    0.12007832710429273    0.08347405205580315    0.058278790128042324    0.043321346005563345    
  0.035747481071784576    0.03345398537972178    0.03574754769900844    0.04332133810371467    0.05827873431055247    
  0.08347410085660116    0.12007836631790383    0.16351427139947078    0.20076777000156107    0.21565298423662313    
  0.1532141483959337    0.14381284460660274    0.1200783592520564    0.09190090468197294    0.06760988382514073    
  0.050440249946159914    0.039959716949352186    0.034518585242242474    0.032839643177008146    0.03451861726080722    
  0.03995970816902744    0.050440208553270055    0.06760988968053067    0.09190085532473462    0.12007838226983128    
  0.14381278855416132    0.1532141483959337    0.10173604105383727    0.09658081734047734    0.08347404718488265    
  0.06760987351623476    0.05358593444055589    0.043445390286259516    0.037139764097442754    0.03384261205280254    
  0.032825169690985395    0.03384267046434553    0.037139767822536994    0.04344534822528714    0.05358594288985766    
  0.06760990724321922    0.08347408178061243    0.09658076050672082    0.10173604105383727    0.06723866240600372    
  0.06469933744354786    0.0582788036118119    0.05044026019379823    0.043445381624423594    0.03844833636798632    
  0.03545129713068746    0.03397619635396083    0.03354959784843544    0.033976209332839034    0.03545130863611751    
  0.03844835826730375    0.04344540026961941    0.05044020835895512    0.0582788155238039    0.06469931951411198    
  0.06723866240600372    0.04727324397486948    0.04614447603817144    0.04332133013860321    0.039959693580906175    
  0.037139757249758806    0.03545127931881719    0.03479850285477157    0.034726256048745574    0.03477325924028067    
  0.03472627629820666    0.0347985089118477    0.035451287149161945    0.03713979436339364    0.03995966625732687    
  0.04332134272046683    0.04614446083703401    0.04727324397486948    0.03741163209468313    0.03692764073928479    
  0.03574751921810318    0.03451862913986681    0.03384266823998803    0.033976191348691655    0.03472629895706272    
  0.03556458805022144    0.03592485913967207    0.035564635817891425    0.034726276676511625    0.03397616709751293    
  0.03384268947247689    0.03451860713626961    0.03574752633609821    0.036927626005374616    0.03741163209468313    
  0.03448448855133737    0.0341797879968145    0.03345401816996296    0.032839619501519854    0.03282518232360177    
  0.03354961512237306    0.034773293500472355    0.035924822942039754    0.03639945954123911    0.035924878616338106    
  0.034773256699243714    0.03354956983247536    0.03282517574773779    0.032839651838574506    0.033454000656623024    
  0.034179791494793194    0.03448448855133737    0.03741162653338693    0.036927638094802456    0.03574751832944077    
  0.0345186071188124    0.033842671597557744    0.03397617520166899    0.03472629071990354    0.03556463603283801    
  0.0359248696830098    0.03556464970446572    0.03472628877570975    0.03397617282025056    0.03384267032230464    
  0.03451859078367555    0.03574754145602941    0.0369276215899861    0.03741162653338693    0.047273260573678075    
  0.04614449758646859    0.04332132065111154    0.039959698024448154    0.0371397857709091    0.03545128984784859    
  0.03479851779461875    0.034726251919842605    0.03477322408861623    0.03472631697027206    0.034798520943250796    
  0.03545132063712768    0.037139774220383406    0.03995968490349079    0.043321300346266946    0.046144507646622625    
  0.047273260573678075    0.06723866994742371    0.0646993029285097    0.05827878764888556    0.05044025145981633    
  0.04344539132262128    0.03844834274303475    0.03545133800530821    0.03397618618142455    0.03354958985837568    
  0.0339762121550516    0.03545129063940054    0.03844831885719498    0.04344537341631622    0.05044023968498381    
  0.058278788892635165    0.06469929994563525    0.06723866994742371    0.10173599639779272    0.09658081666004875    
  0.0834740399178699    0.06760986090488547    0.053585934168811196    0.0434454006783968    0.03713977701710842    
  0.03384262436854493    0.032825178709949665    0.03384269725357958    0.0371397812454875    0.04344536227029705    
  0.05358592771702532    0.0676099046343491    0.0834740430047716    0.09658078202250853    0.10173599639779272    
  0.1532141495215204    0.14381281147916794    0.1200784127293135    0.0919009138674132    0.06760987009837062    
  0.05044023751128466    0.0399597140111181    0.0345185892671473    0.032839614208487335    0.03451861948114216    
  0.03995968589335465    0.05044022222669298    0.06760989776776744    0.09190085268448557    0.12007840429638583    
  0.1438128271293927    0.1532141495215204    0.21565294149388098    0.20076772037978713    0.16351432748321    
  0.12007833561101165    0.08347405714203113    0.05827876456881862    0.043321328541120696    0.03574747353561115    
  0.03345399202965435    0.035747526129434534    0.043321330080010885    0.05827875406637366    0.08347410418335574    
  0.12007836044819005    0.1635143404606735    0.20076770509436434    0.21565294149388098    0.26982333492855776    
  0.25007583573227476    0.20076776746965094    0.1438128451176908    0.09658081208687579    0.06469928524557084    
  0.04614452171717611    0.03692761907543625    0.034179795323937154    0.036927618027117824    0.0461444901307653    
  0.06469928879630156    0.096580830065909    0.1438128389487931    0.20076774263952268    0.2500757666802287    
  0.26982333492855776    0.29150527458753406    0.2698232865798465    0.2156530455321748    0.15321406445311084    
  0.10173610940273235    0.06723868421641288    0.04727329052852244    0.037411605577418586    0.03448452923869459    
  0.03741165627240412    0.04727327886111458    0.06723860199881244    0.10173607003636884    0.15321418145207735    
  0.2156530305661256    0.26982322151625804    0.29150527458753406    0.38704340204986876    0.36198900134276013    
  0.2933972288431311    0.20662152192693858    0.1321816801598088    0.08278759903425653    0.055052959436354666    
  0.04177222628952364    0.03792667202290007    0.04177226903767506    0.05505297189187849    0.08278752513691359    
  0.13218165509435587    0.20662162294562864    0.2933972027348037    0.36198889207834184    0.38704340204986876    
  0.3619888424629335    0.33798226592099223    0.2734668302140806    0.1933148346196982    0.12501559732992784    
  0.07954354639403993    0.05379798103733352    0.04138798241288462    0.03778201619182735    0.04138804596452942    
  0.05379797927145222    0.07954354137309287    0.12501559259573086    0.19331478805953603    0.27346677693789045    
  0.3379823068738528    0.3619888424629335    0.29339710818971865    0.2734667146703858    0.22173530959331172    
  0.15948352685334283    0.10686137710252283    0.07131002501685663    0.05071536300012044    0.04058928330627431    
  0.03761945971021273    0.040589356836776856    0.0507153533737747    0.07130999119496602    0.10686142805395411    
  0.15948360218285915    0.2217353752059793    0.2734667166462462    0.29339710818971865    0.2066215484513484    
  0.1933148353450344    0.1594836036867578    0.11936591005718991    0.08513828102372578    0.06140057565180269    
  0.04725408044644609    0.040127070162763956    0.03799480215459995    0.040127091526235    0.04725407231861299    
  0.061400515942509795    0.08513829009100579    0.11936583321785739    0.15948359394896316    0.19331483608257946    
  0.2066215484513484    0.13218163285454415    0.12501558696475853    0.10686140767079293    0.08513826651258241    
  0.06620839781421656    0.05282044298735901    0.044772053322759284    0.04068088802257665    0.03944292079361692    
  0.040680949957271055    0.04477205654977833    0.052820374955877936    0.06620840062515061    0.08513828124451138    
  0.10686138636753004    0.12501557622397588    0.13218163285454415    0.08278756615617083    0.07954362112684728    
  0.07131006750081649    0.06140057491216265    0.05282039442827052    0.047030208082150825    0.04388840330985803    
  0.042531295070902544    0.04217494720825556    0.04253128393123885    0.04388840722148124    0.04703020384459694    
  0.05282045309694711    0.061400511404086526    0.07131006453260696    0.0795435653800386    0.08278756615617083    
  0.055052915028246434    0.05379795786090786    0.05071538479020206    0.04725403720591194    0.04477205052719508    
  0.04388839321113966    0.04430288155185218    0.04519052124482541    0.045641579287495175    0.045190546688669474    
  0.04430283467981727    0.0438883756451982    0.044772069548477206    0.04725402574667973    0.05071538324049454    
  0.053797961767573885    0.055052915028246434    0.0417722477712953    0.04138802181717922    0.04058932856831735    
  0.04012709624546437    0.04068094120921679    0.04253128198771055    0.04519057137208647    0.047591824595024416    
  0.04857407468464312    0.04759189362954306    0.045190547426612715    0.042531243082958525    0.04068094925381257    
  0.04012709040303601    0.04058934210913819    0.04138798715636231    0.0417722477712953    0.03792665891866842    
  0.03778202215228401    0.03761948091563471    0.03799477870327933    0.0394429176315558    0.04217498940238405    
  0.04564159845638084    0.048574051736630916    0.04973145561715523    0.04857408411618863    0.045641593860314536    
  0.04217491912022827    0.039442915476065724    0.03799480269429817    0.03761947880825045    0.0377820202045076    
  0.03792665891866842    0.04177223809870721    0.04138801203098368    0.04058935403026864    0.040127090564858824    
  0.04068095351378005    0.042531277564125766    0.0451905525744402    0.04759184202380048    0.04857409974484766    
  0.0475919373673416    0.04519055572874142    0.04253128865874049    0.04068093809042352    0.040127078987688386    
  0.04058936932967599    0.041388010270703365    0.04177223809870721    0.05505293131526649    0.05379799131660635    
  0.0507153633204062    0.04725401619342112    0.04477205756736413    0.043888383882992536    0.04430286879301343    
  0.04519050700585445    0.0456415459083718    0.04519058669149383    0.04430285402681208    0.0438884013203706    
  0.04477207540329384    0.04725405458138269    0.05071534109774667    0.05379798778958826    0.05505293131526649    
  0.08278757171813071    0.07954358408374089    0.07131003818461229    0.06140057290807376    0.05282042170376824    
  0.047030196960738034    0.043888440102658494    0.04253126486832097    0.04217495618443284    0.042531312617255825    
  0.04388840103228118    0.047030173230917995    0.052820410344733476    0.0614005629925731    0.07131002686964404    
  0.07954357279401875    0.08278757171813071    0.132181596068234    0.1250156444614117    0.10686139791716497    
  0.08513828357205591    0.06620837332536024    0.05282043121415312    0.04477206088023499    0.040680873540450725    
  0.03944293426035005    0.04068096683765793    0.04477205245006225    0.05282037998809498    0.06620840993904023    
  0.08513829682821987    0.10686139977551933    0.1250155741580596    0.132181596068234    0.20662164157742371    
  0.19331485233335455    0.15948366069960512    0.11936586446916297    0.08513827382433475    0.06140053768493344    
  0.047254068014017284    0.04012709022866205    0.03799477545889661    0.040127106120396654    0.04725405674374358    
  0.06140055869486329    0.08513827188803115    0.11936583146289689    0.1594835914025373    0.19331483018114048    
  0.20662164157742371    0.2933970069566361    0.27346675612135485    0.2217353680308071    0.15948358400140303    
  0.1068613961984886    0.07131002250544693    0.05071536069296106    0.04058928048779916    0.03761946023031995    
  0.04058935336582292    0.050715364273310685    0.07130998650848859    0.10686142996304149    0.1594836017475733    
  0.22173539535960735    0.2734667284640463    0.2933970069566361    0.3619889392593194    0.33798220635330356    
  0.2734668301465755    0.19331485550716604    0.12501560409363904    0.07954354273589291    0.05379800099633733    
  0.041387985029122026    0.03778201912885302    0.04138800181908937    0.05379799057362393    0.07954354038961382    
  0.1250156116449439    0.19331488029699456    0.27346674103104845    0.3379821746309328    0.3619889392593194    
  0.38704340204986876    0.36198900134276013    0.2933972288431311    0.20662152192693858    0.1321816801598088    
  0.08278759903425653    0.055052959436354666    0.04177222628952364    0.03792667202290007    0.04177226903767506    
  0.05505297189187849    0.08278752513691359    0.13218165509435587    0.20662162294562864    0.2933972027348037    
  0.36198889207834184    0.38704340204986876    0.42177536191732296    0.4219950267728421    0.38563233251036955    
  0.2881862956773056    0.18149372846880768    0.10769415302596942    0.06733033466408084    0.04864068285235216    
  0.04332078175076959    0.04864074789944715    0.06733036835106149    0.1076940583950851    0.18149364913771446    
  0.28818645453299474    0.38563240315323255    0.4219949862698435    0.42177536191732296    0.421994956966874    
  0.4148586751377216    0.3674850660186805    0.27049269715917135    0.17131401194600934    0.10348977174973219    
  0.06610092615069457    0.04860034312214716    0.04360355642698439    0.04860038823314118    0.06610094259050735    
  0.1034897372737578    0.1713139906381933    0.27049265738722333    0.36748509643382005    0.4148587310291136    
  0.421994956966874    0.38563228595172566    0.36748502696666824    0.3087201244672195    0.22336187544775016    
  0.14544313948644605    0.09280466412464497    0.06310610184663908    0.04886956596536439    0.04476386226600733    
  0.04886961869051038    0.06310607926092905    0.09280462480040495    0.1454431874102368    0.22336189448728247    
  0.30872009695182895    0.3674850486167346    0.38563228595172566    0.28818639124288464    0.27049271795288593    
  0.2233619895970968    0.16505051292247522    0.11468639486296743    0.0802623519500539    0.06025453489050342    
  0.050424197911826084    0.04756074392773655    0.05042421456785886    0.06025451680573656    0.08026230341814551    
  0.1146864083577468    0.16505047275971466    0.22336194610863824    0.2704927414045182    0.28818639124288464    
  0.1814935823929338    0.17131402594800219    0.14544313634320105    0.11468640844176513    0.08826349301936998    
  0.07000066626553189    0.059409420100008166    0.054294686011215655    0.052815331153870354    0.05429473408668255    
  0.05940940471543862    0.0700005826720655    0.08826350892019634    0.11468641376371666    0.14544312802716827    
  0.1713140090945015    0.1814935823929338    0.10769412644605904    0.10348981979819298    0.09280472461183256    
  0.08026236109019051    0.0700006057447987    0.06377856744562986    0.06121807715600968    0.060721517767315145    
  0.06075799290665332    0.06072149115068378    0.06121809463350357    0.06377858452473163    0.07000065289581574    
  0.08026230658347465    0.09280470694563593    0.10348977559929767    0.10769412644605904    0.06733031213748503    
  0.06610092514676777    0.06310608749631039    0.06025447876322522    0.059409417400628425    0.0612180769599419    
  0.06487026478957543    0.06852270179900866    0.07006580372423775    0.06852274660632812    0.06487022089305275    
  0.06121806582470294    0.059409425956911684    0.06025445850067835    0.06310609523999672    0.06610090710182646    
  0.06733031213748503    0.048640710532484484    0.048600356117104615    0.04886959239552133    0.050424219278677934    
  0.054294708008320355    0.060721527046982644    0.0685228015866005    0.07515976880798793    0.07780967155614421    
  0.0751598144677703    0.06852277179089614    0.060721494161648765    0.054294737921803365    0.05042421402629634    
  0.04886960685404813    0.04860033524769847    0.048640710532484484    0.043320762609905535    0.043603561780855525    
  0.04476388648412986    0.04756072293782662    0.05281534469810838    0.060758021655790646    0.0700658212758618    
  0.07780963274089978    0.08084312143704611    0.07780971301596526    0.07006579723728322    0.060757977405041824    
  0.05281533529598215    0.0475607740418589    0.044763871887731656    0.043603560065458374    0.043320762609905535    
  0.04864072798076456    0.048600351164206655    0.04886962565468145    0.05042419903504294    0.054294727092229024    
  0.06072146708540712    0.0685228001628189    0.07515976901144723    0.07780970593061652    0.07515988447450439    
  0.06852278336279674    0.06072149432502649    0.05429470523175309    0.050424193768789434    0.048869620602872754    
  0.04860034349647064    0.04864072798076456    0.06733033111933229    0.06610094096632381    0.06310606686505621    
  0.060254466544800545    0.05940943672587999    0.06121805729910732    0.06487025729222212    0.0685227244715148    
  0.07006578647490187    0.06852279350103994    0.06487021752470777    0.06121805690913975    0.05940944089548129    
  0.06025447663808646    0.06310604885461761    0.0661009590109337    0.06733033111933229    0.10769413510849775    
  0.10348978847559975    0.0928046779824315    0.08026236251180505    0.07000061827035096    0.06377853648611727    
  0.06121813460864061    0.060721464556930956    0.06075798994281739    0.0607215219795999    0.06121809329984025    
  0.06377854113685945    0.07000063110963456    0.08026233385383669    0.09280467210776952    0.10348977401073586    
  0.10769413510849775    0.1814935516070757    0.17131406141367161    0.14544312298112252    0.11468640424532192    
  0.08826345485347721    0.07000062422748327    0.05940943238392132    0.05429465063848444    0.05281537367159482    
  0.05429474859320977    0.059409424609004835    0.07000058648702334    0.08826350080042489    0.11468642386335474    
  0.14544314962582958    0.171314010158411    0.1814935516070757    0.2881864477338471    0.27049268699303697    
  0.22336203537016458    0.16505049959953755    0.1146863957892551    0.08026231636934696    0.060254499343066883    
  0.050424205918669834    0.04756072324626569    0.050424218918799064    0.060254477566665944    0.08026232842197713    
  0.11468642070348531    0.16505048368793124    0.2233619073171498    0.2704926906868478    0.2881864477338471    
  0.3856322677585944    0.36748497961129895    0.3087201793224441    0.22336194381452007    0.14544311221796163    
  0.0928046682381265    0.06310608569084478    0.048869549987642605    0.044763865494152316    0.04886961030218545    
  0.06310609332902564    0.09280463093878595    0.1454431847230971    0.2233619705774322    0.3087202071538119    
  0.3674850649543725    0.3856322677585944    0.421995080056727    0.41485862075082786    0.36748509905491317    
  0.2704927971368097    0.17131402131693815    0.10348975724142635    0.06610095704747929    0.04860033524980254    
  0.04360355457551075    0.04860035151872978    0.06610094141231913    0.10348972543606402    0.1713140338769238    
  0.2704927514351967    0.3674850850789106    0.4148586649871378    0.421995080056727    0.42177536191732296    
  0.4219950267728421    0.38563233251036955    0.2881862956773056    0.18149372846880768    0.10769415302596942    
  0.06733033466408084    0.04864068285235216    0.04332078175076959    0.04864074789944715    0.06733036835106149    
  0.1076940583950851    0.18149364913771446    0.28818645453299474    0.38563240315323255    0.4219949862698435    
  0.42177536191732296    0.2608954840245828    0.3142777491151883    0.39933163786088993    0.3629995797465155    
  0.23870360135991942    0.13767538157163728    0.08219508905649861    0.057188529176748076    0.05017828946028076    
  0.057188598928281584    0.08219507678635038    0.13767528966160836    0.23870358382254322    0.3629997612883446    
  0.39933160723965433    0.3142776849362985    0.2608954840245828    0.3142777753242565    0.3556549847378271    
  0.40575732223177663    0.34702805606663917    0.22613885121573715    0.13274311204988232    0.08132289136337768    
  0.05785743135326444    0.05123758885571118    0.05785747733960656    0.08132288103386028    0.13274309040388238    
  0.22613881607319886    0.34702799772788273    0.40575734686720133    0.35565500009221696    0.3142777753242565    
  0.3993314909197936    0.4057573449810245    0.38299881103852546    0.2958571251108414    0.1932488458437573    
  0.12031047963236101    0.07961031413909093    0.06047783198471565    0.055028992523900276    0.06047789848638034    
  0.07961030897230126    0.12031041153946218    0.19324889467503986    0.295857188943705    0.38299885745590057    
  0.4057573782575945    0.3993314909197936    0.36299970021829225    0.3470280082388296    0.29585721561565487    
  0.22174767596865214    0.15335686004197072    0.106428495362343    0.07959087845647618    0.06666638792537705    
  0.06297302705315709    0.06666642579040988    0.07959085705543197    0.10642845021782689    0.1533568634391856    
  0.22174764456794951    0.295857268505609    0.3470280552762008    0.36299970021829225    0.2387034776181635    
  0.2261388107288281    0.19324884609532786    0.15335686970404505    0.11929703058828398    0.09638622793702256    