#     DFTpy    
  CRYSTAL 
    
  PRIMVEC    
  6.136896551724138    0.0    0.0    
  0.0    6.136896551724138    0.0    
  0.0    0.0    3.38103448275862    
  PRIMCOORD    
  4    1    
  Si    0.0    0.0    0.0    
  Si    3.068448275862069    3.068448275862069    1.69051724137931    
  Si    0.0    3.068448275862069    0.845258620689655    
  Si    3.068448275862069    0.0    2.535775862068965    
  BEGIN_BLOCK_DATAGRID_3D    
  3d_datagrid_density    
  BEGIN_DATAGRID_3D#0    
  27    27    15    
  0.0    0.0    0.0    
  6.136896551724138    0.0    0.0    
  0.0    6.136896551724138    0.0    
  0.0    0.0    3.38103448275862    
  0.08145579254857985    0.14125393520809118    0.3279969065017564    0.43412919857691035    0.32546235557268877    
  0.19219055350844952    0.11993838143713569    0.09665893381840482    0.10745650181018054    0.14993689130470755    
  0.22247303515110187    0.30667702540848435    0.3684134635880944    0.3890959538303784    0.3684134571427087    
  0.3066770687150393    0.22247299239195667    0.1499369678668648    0.1074564821490124    0.0966589281029518    
  0.11993838543344391    0.19219057262089984    0.3254623921584109    0.4341291203555244    0.32799685062904355    
  0.14125391744934587    0.08145579254857985    0.1412539359530199    0.20720159384454667    0.3728117144838519    
  0.4269705052046773    0.30574192793699195    0.18026144945822772    0.11344418107651086    0.09187281273104983    
  0.1018994913472078    0.14126403087518155    0.20863919938547404    0.28818976844366273    0.34878646946446745    
  0.3699985920542976    0.34878642935924775    0.28818978308872834    0.20863913008725746    0.14126402681738445    
  0.10189947848340979    0.09187278037861603    0.11344418741668358    0.1802614202332321    0.3057419596056585    
  0.42697051024816784    0.3728116739495025    0.20720154343382244    0.1412539359530199    0.3279968810737209    
  0.3728116980971388    0.4337529768056975    0.3805871115682538    0.2514464891494618    0.14945948876419615    
  0.09673811300641942    0.0795819775759179    0.08767000059062882    0.11893160976918711    0.1723596001129717    
  0.23724581211520765    0.2900957208014853    0.309989523300395    0.2900957171350452    0.23724583063534013    
  0.17235954933440326    0.11893160816333541    0.08767001238729392    0.07958196512152609    0.09673812614931966    
  0.14945951718155515    0.25144651083281694    0.38058712660100136    0.433752994187562    0.37281163755586505    
  0.3279968810737209    0.43412914825979676    0.4269706105691986    0.38058711621708036    0.28332156722148155    
  0.1815049427889082    0.11202263529563704    0.07617922355958151    0.06426687195301593    0.06995145011603499    
  0.09143512172218203    0.1276093180024026    0.17179961802633933    0.20906717992160923    0.2236983920631282    
  0.20906717824405546    0.17179961014986597    0.1276092831490452    0.09143515795917082    0.06995147319943716    
  0.06426686606688459    0.0761792423853141    0.11202265805910122    0.1815049892415728    0.28332158367697174    
  0.38058711085259833    0.42697055142063933    0.43412914825979676    0.3254623664590769    0.3057419649255296    
  0.2514465102553264    0.18150496607083422    0.12029207073991417    0.07940890225022741    0.0576086386867642    
  0.050098586113585246    0.053582267588973165    0.06672138938030607    0.08828060747018113    0.11397333873008006    
  0.1355168618956096    0.14406132483367026    0.13551681997364196    0.11397336479959735    0.08828058012698949    
  0.06672141393641028    0.05358226317216539    0.0500985933263644    0.057608613102168096    0.07940890951368158    
  0.12029206946034249    0.18150497537723745    0.25144646065594545    0.3057419427668107    0.3254623664590769    
  0.19219054015426243    0.1802614177023952    0.14945948744997956    0.11202265310997728    0.07940889260129043    
  0.05674336364759429    0.044060574275361586    0.03947849604249105    0.04135390681350484    0.04877650345250328    
  0.06062550840120397    0.07422404337884116    0.08534322571743698    0.08970723918852178    0.0853431879225611    
  0.0742240633914729    0.060625483702133505    0.048776504931628994    0.04135390885704372    0.0394784929594448    
  0.04406057925268282    0.05674336630060117    0.07940887477106061    0.1120226490937828    0.14945949006773263    
  0.18026142389601826    0.19219054015426243    0.11993836650074273    0.11344418067482746    0.09673812401459753    
  0.0761792291832868    0.057608601324481847    0.04406059819148165    0.03607615458955758    0.03292609867560174    
  0.03375953159500053    0.03790451477665032    0.044418933207560456    0.05169843670726747    0.057497792888316766    
  0.05971187775906879    0.05749777340108685    0.051698446860358876    0.04441891512759784    0.037904517689664165    
  0.033759534817264895    0.032926087799683215    0.03607616613481397    0.044060596032726815    0.05760861806896536    
  0.07617924970303847    0.09673809905023753    0.11344419503205633    0.11993836650074273    0.09665888495101507    
  0.09187279374816922    0.07958197819113277    0.06426686252956058    0.05009857134509887    0.039478518488209165    
  0.03292609716588196    0.030010346088096374    0.030170194431611105    0.03277622274742028    0.036959175063138956    
  0.041589845333507236    0.04521469218818869    0.046563949103519735    0.04521467647431063    0.04158985469319946    
  0.036959152501226215    0.032776225159203684    0.03017018926403237    0.030010342007905113    0.032926096206230195    
  0.03947851265419073    0.050098591957630174    0.06426689502633838    0.07958196397053488    0.09187281495550217    
  0.09665888495101507    0.10745649601701134    0.10189946757978571    0.08766997374787676    0.06995146131497035    
  0.05358225209037704    0.04135392753173811    0.033759529349865564    0.030170186895434575    0.029820452020242152    
  0.03195029318412766    0.0356571633673298    0.039806429288888695    0.04305525983450477    0.04427412286945448    
  0.04305522911496333    0.03980644937703347    0.035657131411565006    0.03195029017809681    0.029820436584891225    
  0.030170175667753832    0.03375953194667736    0.04135391286167007    0.05358223979037042    0.06995145797922384    
  0.08766994137866851    0.1018994858146239    0.10745649601701134    0.14993693409750034    0.14126407862956178    
  0.11893158352552743    0.09143516134817489    0.06672140639327519    0.048776508168946756    0.037904512645381305    
  0.03277621751452128    0.031950299488802895    0.034287296503677185    0.03871690032613542    0.04382235902156372    
  0.047908393566335805    0.0494853924312269    0.04790836877666474    0.04382235447169066    0.0387169025818264    
  0.034287298046756925    0.03195029864388263    0.03277622048808569    0.03790451990995992    0.048776501507139615    
  0.06672141245652638    0.09143513655854599    0.11893158395811129    0.14126405654575783    0.14993693409750034    
  0.2224730075204445    0.2086392234696007    0.17235956016681314    0.12760927425177995    0.08828057786735106    
  0.060625488350543606    0.044418897490919866    0.03695912676292993    0.03565715792085287    0.038716885640093485    
  0.044748005357721145    0.05190557520760159    0.05775439543537444    0.060040191912523765    0.05775433729424235    
  0.05190557075043702    0.04474799346415933    0.03871690538347822    0.03565713969395922    0.036959144585113866    
  0.04441891491130665    0.060625480689104366    0.08828055467312117    0.12760925278622354    0.17235949523051236    
  0.2086391239353716    0.2224730075204445    0.30667701450361606    0.2881898332428229    0.23724589767329546    
  0.1717996684101959    0.11397337211450985    0.07422407027821282    0.0516984270158496    0.04158984548016653    
  0.0398064584395381    0.04382236560952576    0.05190560296789125    0.061706793255621555    0.06980552659671921    
  0.07297319696042572    0.06980552236858004    0.06170680216318991    0.051905587282128574    0.04382237261327635    
  0.039806455808704386    0.04158984210388786    0.0516984409962185    0.07422407670724315    0.1139733830095697    
  0.1717997084964923    0.23724576218915452    0.28818986472537145    0.30667701450361606    0.36841351316027116    
  0.3487865540884078    0.29009574256142207    0.20906719486541336    0.13551679300071104    0.0853432182654514    
  0.05749777392965886    0.0452146726682633    0.043055257660027824    0.04790836071107387    0.057754375788659176    
  0.06980552403395415    0.07987148258320308    0.0838404902852166    0.07987146098819699    0.06980555020497071    
  0.05775438972681445    0.04790837321095405    0.04305527135049054    0.045214660803944505    0.05749777627403786    
  0.08534320590491262    0.13551684010682746    0.20906722523881432    0.29009572020000546    0.34878640653212545    
  0.36841351316027116    0.38909599161940434    0.3699985848031951    0.3099894988993388    0.22369833076316437    
  0.14406131078425477    0.0897072722122415    0.05971191691718061    0.0465639581236741    0.044274143556558065    
  0.04948537696914321    0.06004022190233728    0.07297316479083168    0.08384044234686092    0.08815157876840399    
  0.08384048401419703    0.07297319690813063    0.06004017760740712    0.049485390280991    0.0442741225294836    
  0.04656395763558471    0.05971191780272258    0.08970726566825744    0.1440613348441317    0.22369835046205058    
  0.30998939746434856    0.3699984943698758    0.38909599161940434    0.3684134631055471    0.34878653125563824    
  0.29009580565707815    0.20906722724053103    0.13551681361485313    0.085343223626562    0.05749777165292093    
  0.04521467473567003    0.043055252278111335    0.047908358078284086    0.0577543605875203    0.06980550263804905    
  0.07987148697540637    0.0838405075455007    0.07987144354401797    0.06980554666826057    0.05775439721131776    
  0.04790837199050813    0.04305525937113449    0.04521464996109887    0.057497770335474416    0.08534319007497654    
  0.13551682435004941    0.20906724074061983    0.29009577125725994    0.34878646818373543    0.3684134631055471    
  0.30667705037818416    0.2881898604896116    0.2372458196557133    0.1717997019080562    0.11397336984999894    
  0.07422407566461446    0.051698430999341016    0.04158984705456142    0.03980647201427555    0.04382235720548273    
  0.05190562800836361    0.06170678516785739    0.06980555917385559    0.07297317815103294    0.06980555188107788    
  0.06170680916899292    0.05190558550389099    0.043822363856620805    0.03980645334683001    0.041589838204036396    
  0.05169842854531826    0.07422407510471368    0.11397338110902415    0.17179974510581467    0.23724577985874593    
  0.28818982642518043    0.30667705037818416    0.2224729844334523    0.20863921962436757    0.1723595507730941    
  0.12760927468428893    0.08828058249088293    0.060625485610311856    0.04441891037030585    0.036959137473432865    
  0.035657146843127874    0.038716893809431094    0.04474802160860126    0.051905572244905135    0.05775435838271644    
  0.06004017086858981    0.057754364641555915    0.05190557474342219    0.04474799162575817    0.038716886775647386    
  0.035657149876037665    0.03695914787685655    0.0444189079206682    0.0606254886740783    0.08828058275959774    
  0.1276092747139057    0.1723594965471699    0.2086391175863003    0.2224729844334523    0.1499368989253431    
  0.1412640678469519    0.1189316049940039    0.09143515423143184    0.06672141572329723    0.04877650725461576    
  0.03790451486907116    0.03277621314695119    0.0319503064731189    0.03428729562256956    0.0387169165410607    
  0.04382235976688324    0.04790837076049986    0.049485392914556406    0.04790835104668141    0.043822367490156784    
  0.03871689806068284    0.03428730063647044    0.03195030402883184    0.032776229181749175    0.037904516651431894    
  0.0487765031911964    0.06672142275026759    0.09143514238476783    0.1189315879468072    0.1412640351331318    
  0.1499368989253431    0.10745648623534247    0.10189945626832998    0.08766996399084673    0.06995145683965256    
  0.053582251017395936    0.04135392134413012    0.033759519858155604    0.030170176543019546    0.02982044761281493    
  0.03195029454891806    0.03565715510015084    0.03980642502307921    0.04305526550357521    0.044274108469364686    
  0.04305523374332226    0.03980643730727098    0.03565712987989784    0.0319503001617197    0.029820438197700867    
  0.030170177925961543    0.03375951920473022    0.04135391823326087    0.053582241642013556    0.06995146224770261    
  0.08766995637365976    0.10189948787960078    0.10745648623534247    0.09665890751571005    0.0918728166655601    
  0.07958198107742537    0.06426686431073204    0.05009857236831788    0.03947851650566421    0.03292609220051181    
  0.030010349735703247    0.03017019842780639    0.032776221314927925    0.036959167959677686    0.04158984916742828    
  0.045214690004651274    0.046563953105190826    0.04521467357572455    0.0415898628134789    0.03695914903824863    
  0.032776226450764646    0.03017019756885429    0.0300103437354565    0.03292610008359034    0.039478520005240166    
  0.05009859840421002    0.06426691104533566    0.07958196095114058    0.09187280931117982    0.09665890751571005    
  0.1199383518614587    0.11344419907751034    0.09673812863983253    0.07617922602233561    0.05760861615244399    
  0.04406059455386258    0.03607616826537268    0.03292610206651979    0.03375953770065599    0.03790450306298761    
  0.04441893184089025    0.05169843883733111    0.057497796283613505    0.05971188345558533    0.05749777065492091    
  0.05169844639537543    0.04441891959552473    0.0379045122160499    0.03375953143208024    0.032926089590809914    
  0.03607615703461007    0.04406059632711745    0.05760862439284009    0.07617925441380348    0.09673810477246682    
  0.11344419014328425    0.1199383518614587    0.1921905599219531    0.18026142471481973    0.14945949609728915    
  0.1120226382900101    0.07940890091437337    0.05674337489526099    0.04406056994077903    0.039478505317408215    
  0.04135391951219444    0.04877650943216806    0.06062551175665767    0.07422402297156376    0.08534322413256853    
  0.08970724457702182    0.08534316648532948    0.07422406748212088    0.06062548241616582    0.04877650844935798    
  0.041353899301707985    0.03947849893727313    0.04406058639387113    0.0567433511413865    0.07940888556149657    
  0.11202264459682269    0.14945946336484933    0.18026141705264787    0.1921905599219531    0.32546236801325784    
  0.3057420224760137    0.25144649336694014    0.1815049545109561    0.1202920950466969    0.07940890765230738    
  0.057608633730881556    0.05009857176315654    0.05358226902349225    0.06672140225435481    0.08828061309392064    
  0.11397335327529157    0.13551682070628276    0.14406131523295138    0.13551681421649606    0.11397336071377012    
  0.08828058580308971    0.06672140973731429    0.05358225950065634    0.05009857601497835    0.05760862777908826    
  0.07940890207488357    0.12029207262113245    0.18150492180139463    0.25144645251864045    0.3057420044686193    
  0.32546236801325784    0.43412918821458013    0.4269706172053628    0.3805871416819588    0.28332158752438213    
  0.1815049667943628    0.11202263979109355    0.07617923283367174    0.06426686276931702    0.06995145125259011    
  0.09143513181283827    0.12760929871160687    0.17179967978014005    0.2090671825371579    0.22369838011291607    
  0.2090672212894891    0.17179962475374477    0.1276092371150805    0.09143515819548709    0.06995144480552809    
  0.06426686921303715    0.07617924790447422    0.11202265761512316    0.18150496373007202    0.2833215026345525    
  0.3805871135109563    0.42697053629946985    0.43412918821458013    0.3279969207121407    0.3728116792417174    
  0.43375307643365685    0.3805871376059961    0.25144651186293654    0.14945950393212576    0.0967381053903411    
  0.07958197356479513    0.08766998700070516    0.11893161475627759    0.1723596090710073    0.23724582960837576    
  0.2900956875073239    0.30998950624645083    0.2900956918286395    0.23724588244515554    0.17235950993844243    
  0.11893161866415194    0.08767000462614234    0.07958195773076393    0.09673812827022009    0.1494595076221037    
  0.25144646455244596    0.3805871425169926    0.43375300148327517    0.37281173597740835    0.3279969207121407    
  0.14125395346879113    0.20720158357550858    0.3728116769210493    0.4269705743159032    0.3057419167862471    
  0.18026143868022024    0.11344418820645112    0.09187280004988711    0.10189946123417405    0.1412639898604563    
  0.208639149612693    0.2881897644123399    0.34878645900823324    0.3699986251473822    0.3487864450494289    
  0.2881897187320087    0.20863917752317676    0.1412640435869437    0.10189948764416429    0.09187277207124146    
  0.11344417983962345    0.180261414222273    0.30574198016749604    0.42697053427859816    0.372811620069138    
  0.2072015412559702    0.14125395346879113    0.08145579254857985    0.14125393520809118    0.3279969065017564    
  0.43412919857691035    0.32546235557268877    0.19219055350844952    0.11993838143713569    0.09665893381840482    
  0.10745650181018054    0.14993689130470755    0.22247303515110187    0.30667702540848435    0.3684134635880944    
  0.3890959538303784    0.3684134571427087    0.3066770687150393    0.22247299239195667    0.1499369678668648    
  0.1074564821490124    0.0966589281029518    0.11993838543344391    0.19219057262089984    0.3254623921584109    
  0.4341291203555244    0.32799685062904355    0.14125391744934587    0.08145579254857985    0.14482069204455322    
  0.21121210605865706    0.37655064857895065    0.4284118748874265    0.30421290281595664    0.17577932415039713    
  0.10539657237026405    0.07818470357433763    0.07769592434726846    0.09752134061633594    0.13469480830442956    
  0.18145904939090696    0.22153711520009367    0.23739553303002991    0.2215371670444954    0.1814590780243378    
  0.13469476196790695    0.09752141317589369    0.07769591270519546    0.07818469928679038    0.10539657058093185    
  0.17577933411062785    0.3042129712243206    0.4284117603021984    0.3765505819153342    0.21121207543928572    
  0.14482069204455322    0.21082724150871648    0.27502912012947955    0.4077085726133825    0.4154237015106485    
  0.2850884944717182    0.1649915557958275    0.09998859427454385    0.07475849833274999    0.07431553766336042    
  0.09272791056279096    0.12715925597709074    0.17046853808620194    0.20763872035566056    0.2223749757553556    
  0.20763865163826242    0.17046849157286303    0.12715924264893888    0.09272789777273366    0.07431553424301193    
  0.07475846997788187    0.09998860093139506    0.1649915268096832    0.2850884717114697    0.41542373423272094    
  0.40770855681086926    0.2750290711313771    0.21082724150871648    0.37470606514177185    0.4063816600950772    
  0.4341741050294892    0.3608740981435381    0.23390140410555924    0.1373911741703439    0.08603106942113613    
  0.06582092574847914    0.06550568796921005    0.0803113687214578    0.10770313808829673    0.14197119314787815    
  0.171426545449233    0.18315708811175704    0.17142652529684657    0.14197123907440892    0.10770309431976383    
  0.08031137858859388    0.06550569691040015    0.06582092212318585    0.08603108256561684    0.13739116767787962    
  0.23390141476046464    0.36087408638835555    0.4341740722405509    0.4063815991214966    0.37470606514177185    
  0.426674488913154    0.4142805771915173    0.3607237090976044    0.2651484752562823    0.16949101070759506    
  0.1039477321165871    0.06876091198654609    0.05454140173629512    0.0543332855461688    0.06478148649279092    
  0.08377346112907912    0.10709785633733857    0.12698243569993725    0.13492626622536985    0.12698239669552971    
  0.1070978302029869    0.08377345907058428    0.0647815021485461    0.054333297914744914    0.054541398831384764    
  0.06876092588382801    0.10394774123967634    0.16949102140186173    0.2651485537116199    0.36072365894260644    
  0.41428047667457013    0.426674488913154    0.30729021980487164    0.2882164789388293    0.2366080959305149    
  0.17118474863694746    0.11386369014945415    0.07486122981053141    0.05313766590825067    0.044045673926123186    
  0.043855670362856966    0.05048479345122016    0.06233581632593995    0.07646265150074262    0.0882264181561934    
  0.09289321556685523    0.08822639486298281    0.07646266696643095    0.06233580597478425    0.050484795067743365    
  0.043855662687668974    0.044045676419880074    0.05313765133600745    0.07486122398509018    0.11386369171184425    
  0.1711847676587097    0.23660808068881095    0.2882165050901414    0.30729021980487164    0.18607576026574443    
  0.1746049075620072    0.14499188372854166    0.10897041446278714    0.07736574388431851    0.05499129981495814    
  0.041911615357315704    0.036202931240215785    0.03596333084676496    0.03993369633431756    0.04694121100115154    
  0.05505383814991264    0.06161561010900297    0.06416453396313063    0.06161556359750185    0.05505385493864435    
  0.04694118116441512    0.03993370409038531    0.03596333157122396    0.03620291600403125    0.04191162077116506    
  0.05499130018177659    0.07736572973384938    0.10897040614759619    0.14499187226855476    0.17460492150753615    
  0.18607576026574443    0.1251869026956683    0.11831429788095499    0.10058410554217138    0.07875208699585183    
  0.059061344110334583    0.04459489310888616    0.03574573624933353    0.03163860102619703    0.03125950527932003    
  0.0337398437145853    0.03810792079256289    0.04307421731653109    0.04699831818859019    0.04847353028113544    
  0.04699830103644014    0.04307423155638357    0.03810790251079785    0.033739843140891415    0.031259502721234685    
  0.031638597256180616    0.03574574152550994    0.04459489270872026    0.059061365973516834    0.07875210071511209    
  0.10058408386897226    0.11831430349206627    0.1251869026956683    0.11340471218265975    0.1073924306875747    
  0.09194690912529939    0.07282618514317879    0.05536008262615932    0.04236895330242616    0.03425356654456188    
  0.03028997915574978    0.029645386406673663    0.031507902615488255    0.03493257937278256    0.03882292394403713    
  0.04187127338992913    0.04300201504667897    0.04187125751701784    0.03882293073680244    0.03493256946080202    
  0.03150790724974542    0.029645379051954187    0.030289966206760163    0.03425356339413337    0.04236895052239368    
  0.055360108841614124    0.07282622193408114    0.09194689149516631    0.10739244687992601    0.11340471218265975    
  0.1429439181070141    0.1346986266878825    0.11366019280772131    0.0878583810461576    0.06454640203662534    
  0.047476555412426104    0.03700972183910155    0.03191134221936758    0.030831697948358636    0.03269177599797951    
  0.03644538644591102    0.040792113395200225    0.04425076178076218    0.045569326232835675    0.04425072771943559    
  0.040792115050266815    0.036445349888020964    0.03269177745003313    0.030831686779562186    0.031911332836621197    
  0.037009733643394604    0.047476542296111715    0.0645463970798338    0.08785836969576984    0.11366016747233437    
  0.13469864740301668    0.1429439181070141    0.21874127358325038    0.20493466611129832    0.1692310246577351    
  0.12549817673850733    0.08696250736864686    0.05977174941890945    0.04371874317558397    0.0361056137074751    
  0.03436487980510794    0.036755797071522746    0.04190861321189711    0.04805802778851577    0.05308547685957891    
  0.05506208045633896    0.05308544037015771    0.04805804367605082    0.041908601286984426    0.036755817785181624    
  0.03436487527494332    0.03610561404766535    0.04371874854804616    0.05977175045576101    0.08696250245121519    
  0.12549815237049627    0.16923102334439605    0.20493464462543381    0.21874127358325038    0.33166420932640006    
  0.3122017066674257    0.25764328525089464    0.18607143389250477    0.12222213366426588    0.07840711997289826    
  0.05354365694217622    0.04210763416565094    0.03948808616202456    0.042861640231501213    0.050323839346297514    
  0.05948947980336946    0.0671444522028191    0.07018006516230572    0.06714443769625912    0.059489490836143286    
  0.050323841135272    0.042861655153613766    0.03948807512000721    0.04210764901752965    0.053543665263639996    
  0.07840711747496516    0.1222221260991736    0.1860714559810693    0.2576432871940084    0.31220158395119313    
  0.33166420932640006    0.4213908908130924    0.40747421171270176    0.3518875708746452    0.2573249547725387    
  0.16407216742134517    0.09979071865835228    0.06442737938406189    0.04862255523383855    0.045024474996853484    
  0.04956004304692456    0.0597557393784144    0.0725509234286826    0.08335556155957762    0.08762638074488158    
  0.08335555164218506    0.07255093706235498    0.059755679656628945    0.049560051266041044    0.045024476001977315    
  0.048622547334176196    0.06442740694937511    0.09979072216377333    0.1640721689375854    0.25732501399507685    
  0.3518874589283217    0.4074741665570838    0.4213908908130924    0.43423612589107247    0.43851265410426377    
  0.4100977647986117    0.313410731641382    0.19902799078189276    0.11743396543651131    0.07312253098992665    
  0.053698804847488145    0.049324542833077994    0.054864637166062956    0.06736366662877764    0.08317990030758765    
  0.09666332572715579    0.10202525396872089    0.09666330363955145    0.08317990474301594    0.06736367252663089    
  0.054864642085872634    0.049324554505564215    0.053698790997022    0.07312254664047911    0.11743395184109226    
  0.19902807262352798    0.31341078791585203    0.41009772844595926    0.4385125292773454    0.43423612589107247    
  0.4217973627427117    0.4359776355218892    0.42572287302440104    0.33399324815529247    0.2128002326685231    
  0.12440016113862426    0.07645748436376372    0.05558669763413169    0.05092635201028911    0.05689743836902762    
  0.0703250372734753    0.08732523554465602    0.1018987099786077    0.10773251780568853    0.1018987441715777    
  0.08732524616273447    0.07032497310332106    0.056897462117662646    0.05092635227437055    0.05558670770967069    
  0.07645748803278836    0.12440015752855985    0.21280025939579658    0.33399322521112407    0.42572275747603455    
  0.4359774404756108    0.4217973627427117    0.4342361530167153    0.43851271624619304    0.4100978772043388    
  0.3134107512908624    0.1990280168236053    0.11743397498229652    0.07312254436584167    0.0536988077822139    
  0.04932454387521494    0.05486461739830136    0.06736365277053416    0.08317986581461209    0.09666329629732358    
  0.10202524958780401    0.09666325656197365    0.08317991178036284    0.06736367801417047    0.054864638518461795    
  0.04932454761017123    0.05369878511076292    0.07312253651746556    0.11743394562229907    0.1990280449482636    
  0.31341074970450034    0.41009774663264137    0.43851255110106746    0.4342361530167153    0.4213908720291151    
  0.40747423868223054    0.35188754833849234    0.25732501494428806    0.1640721250115868    0.0997907206087155    
  0.06442739641556797    0.048622554760126994    0.04502448884466606    0.04956004286396548    0.05975573727511624    
  0.0725509360545001    0.0833555601065484    0.08762633934926367    0.08335558238313055    0.07255091038112507    
  0.05975570855649912    0.04956004815017667    0.045024478631687355    0.0486225377135898    0.06442739981254182    
  0.09979072673589104    0.1640721436834471    0.2573250111342325    0.3518874577692034    0.4074741822697464    
  0.4213908720291151    0.3316642333221898    0.3122016963074389    0.25764332800181344    0.1860714523397201    
  0.12222215743266747    0.07840710750601669    0.05354365808245903    0.04210764270789614    0.03948807937147414    
  0.04286164071472223    0.05032385317015272    0.05948951372208264    0.06714442645780713    0.07018006558377764    
  0.06714444820906221    0.059489510669762935    0.05032382996085093    0.04286164077194358    0.03948808720905739    
  0.04210764650195896    0.05354367133382017    0.07840712202071562    0.12222215389560176    0.18607143991599812    
  0.2576432573113672    0.3122015689596467    0.3316642333221898    0.21874122326050138    0.2049346332001227    
  0.1692310348210841    0.12549817378118464    0.08696250794519948    0.059771748101590756    0.04371874868681893    
  0.03610561174214449    0.034364884334645955    0.03675581026905589    0.04190861034850793    0.048058042590923306    
  0.053085448435180066    0.05506207030439614    0.053085449230067826    0.048058057818468565    0.041908609362815714    
  0.0367558110583642    0.03436488093731357    0.03610562461728015    0.04371874304104432    0.05977174030141807    
  0.08696249812026018    0.12549815354998017    0.16923102755160643    0.2049345931526824    0.21874122326050138    
  0.14294393408329112    0.1346986214393219    0.11366019689158922    0.08785837947034818    0.064546407658586    
  0.04747654582755027    0.037009719599069554    0.031911346007510374    0.030831697539506115    0.03269177819861414    
  0.03644537531671678    0.04079210045138052    0.04425076978419396    0.045569313345809395    0.04425073822385186    
  0.040792122652261606    0.036445358177818514    0.032691787657870175    0.030831688060451088    0.031911335663931534    
  0.037009723141150995    0.047476538420162896    0.06454638474417924    0.0878583922597885    0.11366018177650412    
  0.13469866063545732    0.14294393408329112    0.11340473803545384    0.10739243185067833    0.09194689627022753    