#     DFTpy    
  CRYSTAL 
    
  PRIMVEC    
  3.911813255275754    1.6365577063806208e-05    -4.103151724137931e-13    
  -1.9558924546315684    3.3877379346824337    -8.028017241379312e-12    
  -6.747131034482759e-13    -1.5631744137931033e-11    6.431628802046232    
  PRIMCOORD    
  4    1    
  Si    9.73800710519939e-06    2.2584972516403923    3.6169797235969017    
  Si    1.9559110626324967    1.1292570485913942    0.4011652750811382    
  Si    9.738008574842795e-06    2.2584972516394606    6.030463479469297    
  Si    1.9559110626388445    1.1292570486164841    2.8146491259282516    
  BEGIN_BLOCK_DATAGRID_3D    
  3d_datagrid_density    
  BEGIN_DATAGRID_3D#0    
  17    17    29    
  0.0    0.0    0.0    
  3.911813255275754    1.6365577063806208e-05    -4.103151724137931e-13    
  -1.9558924546315684    3.3877379346824337    -8.028017241379312e-12    
  -6.747131034482759e-13    -1.5631744137931033e-11    6.431628802046232    
  0.04671007956096673    0.05056585340623242    0.06378901568429975    0.0918965594884797    0.1440218620460179    
  0.2281650462881793    0.33911963622335417    0.4427180921573239    0.48598877360692827    0.4427180351956243    
  0.33911957312977864    0.22816505617536373    0.14402184803821688    0.09189654944980077    0.06378903173618995    
  0.050565835990762996    0.04671007956096673    0.05056582850700417    0.050566526402848776    0.05913693853544553    
  0.07997151058357538    0.12087226045397484    0.1915872469631279    0.2945747775860816    0.4089078840820506    
  0.48665364267690664    0.4866180423072046    0.4088414730346733    0.29465233012295416    0.19161460182784953    
  0.12083608745192186    0.07997810503337859    0.059137960694050445    0.05056582850700417    0.06378900502350784    
  0.05913695094780993    0.06378913711376134    0.07998146459399881    0.11404493542551655    0.17596689025196166    
  0.27178756471327076    0.3836294712429982    0.46814238246166057    0.4970558716186942    0.46824172215224086    
  0.38361067976054186    0.2716888525794789    0.17599581813760629    0.11406880555340375    0.07997810481232409    
  0.06378900502350784    0.09189655914654248    0.0799715075127862    0.07998144441111651    0.09188315600674843    
  0.12087416529047258    0.17597982155821917    0.2645030725697151    0.36596172256465026    0.4218077327510474    
  0.4216427712884732    0.4215775444508634    0.42181686544395064    0.36603746100517054    0.264514251007389    
  0.17599584266484095    0.12083605967217431    0.09189655914654248    0.14402182070445482    0.12087227491243249    
  0.11404493552943497    0.12087415340632011    0.1439859044356501    0.19162341178557296    0.2717334594727346    
  0.3660244713345006    0.3952606600754601    0.332781492967573    0.2904709808465997    0.3327781796827677    
  0.3952758882616008    0.3660375579782151    0.27168893434523217    0.19161459586202903    0.14402182070445482    
  0.22816501594448396    0.19158724805682    0.1759668719179316    0.1759797962411936    0.19162341510664938    
  0.22818073766503505    0.29457559245098264    0.3836367585793364    0.42185406218792326    0.3327669241695181    
  0.22874529157708243    0.2287905228032643    0.3327781261345265    0.42181687736635837    0.3836107469539459    
  0.29465231116670315    0.22816501594448396    0.33911964843538117    0.29457474067439426    0.2717875524228804    
  0.26450304375271577    0.27173336833396267    0.29457559388723414    0.33920518016350165    0.4088293580442551    
  0.46824727980308994    0.42149611979187385    0.29056759341407895    0.2287454017380428    0.29047094521369105    
  0.4215775243857408    0.46824182844538226    0.4088414987257474    0.33911964843538117    0.44271807912982714    
  0.408907881752488    0.3836293888345329    0.36596171841824754    0.36602444375692367    0.3836367652691901    
  0.4088293853148562    0.4427799052314827    0.4866534018974365    0.49715469588135835    0.4214960894626385    
  0.332766942408727    0.33278149046992783    0.42164289212948075    0.4970559142265596    0.4866180728675212    
  0.44271807912982714    0.4859887882590032    0.48665356080286076    0.4681423306550462    0.4218076447504661    
  0.3952605892428331    0.42185404926961234    0.4682472334145893    0.4866534060594202    0.48594625006874304    
  0.48665337003525805    0.46824724679367125    0.4218540117472045    0.39526057138210285    0.4218077073470213    
  0.4681424713801455    0.48665366169131247    0.4859887882590032    0.44271799584158217    0.4866180831467499    
  0.497055828535036    0.4216427728132474    0.33278154630560997    0.3327669415829501    0.42149615520687583    
  0.49715472939079425    0.48665338896963783    0.4427799126592656    0.4088293425394203    0.38363684813026433    
  0.3660244767579912    0.36596178769238663    0.3836294396305809    0.4089079790745568    0.44271799584158217    
  0.339119652085128    0.4088414674935843    0.46824173454789936    0.42157753188751246    0.2904709724414757    
  0.2287454160190226    0.2905675921800324    0.42149613456678015    0.46824726798615696    0.4088294266550856    
  0.3392051920124925    0.29457560466394783    0.27173340505482013    0.2645030334674178    0.2717876287282099    
  0.2945747288857018    0.339119652085128    0.22816502287270296    0.2946523821859336    0.3836106878521865    
  0.4218167604696869    0.33277818410279514    0.22879058967017274    0.22874536224282868    0.3327669182356189    
  0.42185408098586474    0.3836368365456627    0.2945755793149753    0.2281807105903326    0.19162340342685602    
  0.17597983814003548    0.17596685519290264    0.19158725256125536    0.22816502287270296    0.14402182919521356    
  0.19161462211745056    0.2716888927216424    0.36603748388351076    0.3952758529000695    0.3327782157391947    
  0.2904710064528087    0.332781509289734    0.3952606287929158    0.3660244224184102    0.2717333924819618    
  0.19162338551536867    0.1439859142143239    0.12087419243500899    0.11404498229055064    0.12087227028811774    
  0.14402182919521356    0.09189654203796323    0.12083607113877404    0.17599583362328652    0.2645142002819244    
  0.3660375221938812    0.42181689583352433    0.4215775624505169    0.4216427047170526    0.42180770257243155    
  0.3659617705952317    0.2645030305602028    0.17597979602289096    0.12087413898530297    0.09188317164763668    
  0.07998145171762415    0.0799715124942826    0.09189654203796323    0.06378901459965522    0.07997810289606222    
  0.1140687723626834    0.17599580590539313    0.271688840521892    0.3836106727653431    0.46824178814010625    
  0.4970558966391586    0.46814241730121375    0.38362943814348327    0.2717875513074549    0.1759668888224263    
  0.11404493750493305    0.07998147344374862    0.06378914796491263    0.059136934426727565    0.06378901459965522    
  0.05056582438696395    0.05913795369163292    0.07997809815544699    0.12083605393221515    0.19161459221468605    
  0.29465231472141457    0.4088414957430227    0.48661812383689135    0.48665359893715465    0.4089079281813903    
  0.29457473049056715    0.19158728153873783    0.12087226324735971    0.07997153616356674    0.0591369301125981    
  0.0505665344969009    0.05056582438696395    0.04671007956096673    0.05056585340623242    0.06378901568429975    
  0.0918965594884797    0.1440218620460179    0.2281650462881793    0.33911963622335417    0.4427180921573239    
  0.48598877360692827    0.4427180351956243    0.33911957312977864    0.22816505617536373    0.14402184803821688    
  0.09189654944980077    0.06378903173618995    0.050565835990762996    0.04671007956096673    0.046226312377801025    
  0.049914336474192765    0.06251366039464493    0.08913267329420735    0.13814863000006056    0.21664226367267178    
  0.3194216103208472    0.4148280461861406    0.45444103121974305    0.4148096503233957    0.3195335151573774    
  0.21663295588868528    0.13809870396852494    0.08914385401546049    0.06251529137419448    0.0499145525381758    
  0.046226312377801025    0.04991453408590823    0.04991471340242008    0.05868340512891427    0.08005276115070266    
  0.12184147800910564    0.1937945931158704    0.297473525827804    0.4092231331513863    0.48221436791154154    
  0.4821897325383504    0.4090990430493464    0.2975088520777482    0.19386583765978246    0.12181570346841343    
  0.08005593343109786    0.058683276394005904    0.04991453408590823    0.06251526958539001    0.05750211050334762    
  0.06251502778908256    0.08005471135284138    0.1171935601372986    0.18452696564477733    0.28637929171188764    
  0.3954241740700612    0.4620376625659364    0.4788268295031629    0.4621922654131112    0.395395395245471    
  0.28626650246446395    0.1845717015546407    0.11719816943563566    0.08005594851196486    0.06251526958539001    
  0.08914384908990114    0.07575580183064355    0.07577480211076963    0.0891230277562092    0.12184661900936201    
  0.18453751198749027    0.2826647758496271    0.3772359526716094    0.38852841973728486    0.343437134994372    
  0.3433469275549882    0.3885335623184161    0.377409962794806    0.28259299487784517    0.18457170536045994    
  0.12181566463111052    0.08914384908990114    0.13809869376235379    0.11129726921396116    0.10334566619439808    
  0.11129748129290076    0.1380859328766308    0.1938722543493683    0.2862693202910921    0.37738553151531484    
  0.347423225286762    0.219294458192219    0.1613748702248404    0.2192971742720651    0.3473874974147711    
  0.37741000483919784    0.2862665571666153    0.19386583051521644    0.13809869376235379    0.21663296438587953    
  0.17200476725252165    0.15303934037734437    0.1530523470338462    0.1720061860715747    0.2166536682193714    
  0.2974666536678701    0.3954188196196488    0.3885855327154757    0.21924917818666464    0.09943969637615598    
  0.09948563230772568    0.21929714979551992    0.38853353821706926    0.395395362990969    0.2975088708708023    
  0.21663296438587953    0.31953359284215443    0.25997809059924987    0.230351479122205    0.2211586448584913    
  0.23034117029344098    0.25998389594943694    0.3195582154742673    0.4091086115285248    0.46218900953200776    
  0.3432420458728215    0.16149951166843812    0.09943973189333806    0.16137486707453136    0.3433469186850619    
  0.46219225894972943    0.4090991651375839    0.31953359284215443    0.4148096271111296    0.358702082880717    
  0.3255719448578017    0.3096374549945396    0.30962155383518686    0.3255988195360652    0.3586612878044371    
  0.4148730350523619    0.48221418087192863    0.47896998409769126    0.34324205561742754    0.21924918681510358    
  0.2192944713886322    0.34343717461662304    0.47882680091992025    0.4821897548657331    0.4148096271111296    
  0.4544410805445221    0.4270373323713978    0.4071011128370981    0.3873156077605187    0.3773210918549299    
  0.38734902450148406    0.4071349550258493    0.42705710752396037    0.45438559468215783    0.4822141727585463    
  0.4621890328255697    0.38858555339481177    0.3474231674959569    0.38852844116638036    0.4620377104171209    
  0.48221437402968687    0.4544410805445221    0.41482799349010835    0.4269972796113305    0.4389905746584406    
  0.42542996379441267    0.39801325257267    0.3980200114893406    0.4253825279775448    0.4390192830388471    
  0.4270570937214031    0.41487302824526623    0.40910863772320555    0.39541886461950165    0.3773855105421793    
  0.377236049053332    0.3954241922774351    0.4092232360772726    0.41482799349010835    0.31942164479067625    
  0.358684988293065    0.407139133377505    0.4254119714126944    0.39482870976450685    0.37093058888215097    
  0.3948466891331525    0.42538252460195725    0.40713495667224103    0.35866134528708343    0.31955819351335035    
  0.2974666273322308    0.2862693068251007    0.282664720811543    0.28637933996672976    0.2974734310053092    
  0.31942164479067625    0.21664227116392856    0.26008809158638424    0.3255779068401056    0.38731088556227145    
  0.3980133541020598    0.3709252791443072    0.3709305781967452    0.39802003336999847    0.38734902365900997    
  0.3255988646921036    0.2599839185558492    0.21665368827946602    0.19387223421619348    0.1845375277670587    
  0.184526923049857    0.1937945914148262    0.21664227116392856    0.1381486003868114    0.1720013811818355    
  0.23025283243550182    0.3096358014498143    0.37736752956792446    0.3980133468841877    0.39482872256046764    
  0.39801322416987023    0.37732103762562424    0.3096214957672182    0.23034116464054846    0.1720061648417898    
  0.13808593131232885    0.12184659442008716    0.11719359659669983    0.1218414447713789    0.1381486003868114    
  0.0891326712325016    0.1112433193925965    0.15305525657851474    0.2212371025562517    0.30963578896218125    
  0.3873109021871384    0.42541196216833926    0.4254299361429338    0.38731562904120276    0.30963747882207665    
  0.22115863040960476    0.15305233668931292    0.11129750588709357    0.08912303877818953    0.08005469850063124    
  0.08005276132933559    0.0891326712325016    0.06251364439253454    0.07576699508077632    0.10339243843478427    
  0.15305525881968451    0.23025281256758304    0.32557792549383113    0.4071391863705769    0.4389906184272721    
  0.40710113298490436    0.32557198335686105    0.23035147175681067    0.15303940809781472    0.10334566999735215    
  0.07577481279676182    0.06251503422739928    0.05868341397089938    0.06251364439253454    0.04991432189047485    
  0.05750370716703481    0.07576698765030211    0.11124332089334125    0.17200137748162245    0.2600880829372091    
  0.35868497141851496    0.4269972739582917    0.4270373153116437    0.35870210501632654    0.2599780611370687    
  0.17200474865195006    0.11129726573916239    0.07575582676737709    0.05750209640032059    0.04991471332065542    
  0.04991432189047485    0.046226312377801025    0.049914336474192765    0.06251366039464493    0.08913267329420735    
  0.13814863000006056    0.21664226367267178    0.3194216103208472    0.4148280461861406    0.45444103121974305    
  0.4148096503233957    0.3195335151573774    0.21663295588868528    0.13809870396852494    0.08914385401546049    
  0.06251529137419448    0.0499145525381758    0.046226312377801025    0.04487778206594066    0.04810057739520251    
  0.05903243520868486    0.08181884166699747    0.12295414884226691    0.18741417363823748    0.27011802153121667    
  0.34554092014123666    0.37648857445015393    0.3455258695514027    0.2702485380518929    0.18740106372343066    
  0.12289543022406284    0.08183255977400244    0.05903491770050728    0.048100781053730564    0.04487778206594066    
  0.048100758463631946    0.04810057768301349    0.056243089187137246    0.07599786294342593    0.11416321897356604    
  0.17879154214395215    0.27007017791084265    0.3658533637802128    0.4265972656728161    0.42657298474207445    
  0.3657193325159897    0.27009182211564664    0.17887252443502824    0.11414236186331851    0.07599923905461217    
  0.05624268359360386    0.048100758463631946    0.05903488837005635    0.05418078306374339    0.05903473919313578    
  0.07599611988889818    0.11184390655070052    0.1763710786902592    0.27233965146875116    0.37077382089351985    
  0.42465211362542166    0.43549925038402093    0.42481168515386925    0.37074916163465926    0.2722289797187676    
  0.17641762803732944    0.11184338352931218    0.07599922562030599    0.05903488837005635    0.08183255739883885    
  0.06861205743137593    0.06863138651412828    0.08181138381811964    0.11416911177520878    0.1763803271994568    
  0.2731267154778741    0.3614424154194276    0.3600748216647025    0.3063619404972664    0.3062738581805323    
  0.3600810432179779    0.36163501828729805    0.27303409885171503    0.17641764736046422    0.114142336646532    
  0.08183255739883885    0.12289543030917113    0.09624446799692303    0.08836305221096367    0.09624495090890216    
  0.12288925872019592    0.17887701197755865    0.27221705396460977    0.361605537320717    0.3210844008811812    
  0.18730576366843218    0.1310338389530735    0.18730954602198924    0.32103496646013235    0.36163510282297323    
  0.2722290261826516    0.1788725644076928    0.12289543030917113    0.18740107828188476    0.14235458586610186    
  0.12339197660091578    0.12340273745881349    0.1423461987177492    0.1874215317083398    0.2700627072379299    
  0.3707714349213038    0.36013090781247553    0.18725481057550508    0.075335908618144    0.07537671051552135    
  0.18730953843727582    0.3600810343119034    0.37074917313804306    0.2700918412616764    0.18740107828188476    
  0.270248587839119    0.20777712368786672    0.17710542429477294    0.16772900177388908    0.17710535518371615    
  0.20778444553227585    0.27024998783016807    0.3657364860582194    0.42480123037460316    0.30617105642930403    
  0.13115369598416785    0.0753359353168305    0.1310338514522571    0.30627385638041016    0.424811781082028    
  0.3657193464845501    0.270248587839119    0.3455258204185836    0.280174636458307    0.24359928925424487    
  0.2278918943445518    0.22786357216107497    0.24362734772936867    0.2801473172474431    0.3455782467075444    
  0.42659237339744155    0.4356415922175962    0.30617101078589065    0.1872548450312772    0.1873057518725026    
  0.30636192947730917    0.4354992892335547    0.42657300639421714    0.3455258204185836    0.3764886300361777    
  0.3298355706531125    0.30242927950020027    0.288853979723614    0.28449674073740944    0.28887157400719277    
  0.3024390283601754    0.32985760469307723    0.37643711610327796    0.4265923297907552    0.4248012021051067    
  0.36013093914677924    0.321084382854862    0.3600748499302637    0.42465208567182183    0.4265972636400414    
  0.3764886300361777    0.3455408873912303    0.32980448156589953    0.32627083061066176    0.3270989898573592    
  0.32634890076265577    0.3263557927007624    0.32709164138077307    0.3262749079737256    0.32985759309021045    
  0.34557823336934307    0.36573645551722694    0.3707713911375621    0.3616055837501203    0.3614424625288387    
  0.370773838011035    0.3658534380180923    0.3455408873912303    0.27011800534267855    0.2801691531645055    
  0.3024498125314383    0.32709734179464117    0.3405340989880256    0.3431338479925582    0.34053025182828406    
  0.32709164683212144    0.30243900681133934    0.28014735927667933    0.27024996975374    0.27006274193732394    
  0.2722169995731686    0.2731267125839009    0.2723397207234207    0.27007011057465813    0.27011800534267855    
  0.18741416015358395    0.20787965203865647    0.2436112290820171    0.2888370631431418    0.3263507205468058    
  0.34311788927963066    0.3431338279411618    0.32635580937388925    0.2888715998507698    0.24362740927495669    
  0.2077844191643133    0.18742153154525976    0.17887697025530572    0.17638035489679474    0.17637104140057355    
  0.17879153198854403    0.18741416015358395    0.12295413506589606    0.14234358137347222    0.17701825255712744    
  0.22787683182098858    0.2845361666819354    0.32635067361929015    0.3405341065443334    0.32634889123575084    
  0.28449678437063847    0.2278635240306136    0.17710534774114783    0.1423461802150935    0.12288925827553834    
  0.11416911136914254    0.11184392514515253    0.11416322179614485    0.12295413506589606    0.08181883619279609    
  0.09619047117564877    0.12340218489170386    0.16781020570186583    0.22787684620739235    0.28883710700715837    
  0.3270973532905295    0.3270989518029531    0.28885399974956943    0.22789192060329674    0.16772897044198995    
  0.1234027269489225    0.09624495966222141    0.08181138857262057    0.07599612247617658    0.07599787635554243    
  0.08181883619279609    0.05903242276693657    0.06862334211573709    0.08841145451125851    0.12340218284673878    
  0.17701823773104758    0.24361122889252895    0.30244989650921456    0.3262708418502126    0.3024293166181538    
  0.24359931407828136    0.17710545000210895    0.12339202894830077    0.0883630501864182    0.06863140258186926    
  0.05903475327225207    0.056243096102919006    0.05903242276693657    0.04810056918835824    0.05418241012525653    
  0.06862333448077414    0.09619044958932187    0.14234356677619114    0.20787961315967865    0.28016913286356593    
  0.32980446811424297    0.3298355507748503    0.28017462527124554    0.2077771336784363    0.14235455125154658    
  0.0962444601744601    0.06861207208337927    0.05418077392397279    0.04810057991822318    0.04810056918835824    
  0.04487778206594066    0.04810057739520251    0.05903243520868486    0.08181884166699747    0.12295414884226691    
  0.18741417363823748    0.27011802153121667    0.34554092014123666    0.37648857445015393    0.3455258695514027    
  0.2702485380518929    0.18740106372343066    0.12289543022406284    0.08183255977400244    0.05903491770050728    
  0.048100781053730564    0.04487778206594066    0.04293360894857035    0.045532039669231694    0.05427349044750608    
  0.07215783269983077    0.10358772204382044    0.15138568335077943    0.21094837592018326    0.2640933801674876    
  0.28569183999832787    0.2640945155253249    0.21103419401979936    0.15137091966697563    0.10355350306376927    
  0.07216768605954167    0.05427513534428916    0.045532181765602225    0.04293360894857035    0.04553216299276981    
  0.045531898432434874    0.05246056337651195    0.069100770811067    0.10076481076144185    0.15331711932207595    
  0.22610129725694947    0.30192627282988876    0.3504240338568149    0.3503965746299559    0.30183588126317035    
  0.22612151939208835    0.15336958441371717    0.10075155228050485    0.06910229291868678    0.05246013894373862    
  0.04553216299276981    0.05427511362203016    0.050002087016113576    0.05427442348263084    0.06910002036919774    
  0.1001953143180998    0.15592348820316307    0.23922644985421926    0.3289243837293499    0.38619326958249195    
  0.4018705218752232    0.38630998451904813    0.328903665121605    0.23916214438756803    0.15595473654535325    
  0.10019473836467233    0.06910229060138556    0.05427511362203016    0.0721676947482882    0.06044369069812843    
  0.06045635902623623    0.07215407255831637    0.1007667276157573    0.1559299336080369    0.2440282059313854    
  0.3368537848284373    0.3679689677108375    0.34457729516575647    0.34450438950588225    0.36799281162481684    
  0.3369776745674364    0.24396856917771978    0.15595475193586364    0.10075151732468986    0.0721676947482882    
  0.10355349815707025    0.0799661463672713    0.07307155337627129    0.07996686106449293    0.10354899590220998    
  0.1533740539951213    0.23914707654175726    0.33696370004445164    0.34780600453820626    0.25893908947883915    
  0.20945020658515848    0.2589321542803302    0.34778622704140316    0.33697773438316314    0.23916217572933812    
  0.1533695661486076    0.10355349815707025    0.1513709284480089    0.11163212833521574    0.09512352945246574    
  0.09513147256989456    0.11162401543100385    0.15138628328459489    0.22610112352795278    0.32891733529471334    
  0.3680144413955223    0.2589047119580238    0.15088088251895904    0.15093729853844345    0.25893217242782307    
  0.36799277433160693    0.32890363951178647    0.2261215563307075    0.1513709284480089    0.21103423643055652    
  0.1552362557015736    0.12817819317744517    0.12009455692021609    0.1281787131443311    0.15524010824085144    
  0.21103508632279855    0.30184688822825956    0.38631366592156086    0.34440808043000615    0.20956837627160008    
  0.15088093885694612    0.20945014796715394    0.3445044476319391    0.38630997162938924    0.301835973838439    
  0.21103423643055652    0.2640944824418656    0.2020970642077595    0.16823540957980052    0.1540244418593235    
  0.15400781325487223    0.16825483279754616    0.20207896181923657    0.2641271072436923    0.35040102937755063    
  0.40198417709537465    0.34440801797716997    0.25890472091247396    0.25893906564934105    0.3445773523840274    
  0.4018704659553746    0.3503966028318162    0.2640944824418656    0.2856918451464153    0.2335749447532893    
  0.20328524696598402    0.18919849918781848    0.1852850631458907    0.18920390088918404    0.20329205244043688    
  0.2335864631675024    0.28567360688917043    0.3504010016182346    0.3863136094472139    0.3680144079445856    
  0.3478059920959942    0.367968956570112    0.3861932042936842    0.3504241190207085    0.2856918451464153    
  0.26409338272245814    0.2335625071722138    0.21748940283455154    0.2123490899984658    0.2118676103338782    
  0.2118750762325812    0.21234447529283723    0.21749569148954948    0.2335864519543669    0.26412709572863885    
  0.30184687791496745    0.3289173595014857    0.33696369186531755    0.33685392723450847    0.3289243789278783    
  0.3019262837604102    0.26409338272245814    0.21094833604868105    0.20209593246691504    0.2032972147678043    
  0.21234532937300876    0.22229869524907367    0.22640843275156153    0.2222988584130097    0.21234445909889665    
  0.20329205656698962    0.2020789962339129    0.21103507759224552    0.22610112474597543    0.23914699061459352    
  0.24402814861218802    0.23922649264478915    0.22610120103665365    0.21094833604868105    0.15138569173818597    
  0.15529822024592252    0.16824009447866714    0.18918781352065484    0.21187057620891175    0.22640443804955881    
  0.22640842803107353    0.2118750695869916    0.18920394078602396    0.16825481489673588    0.15524009157196822    
  0.15138628837242057    0.1533739783359694    0.15592994107915004    0.1559234560653872    0.15331710501277365    
  0.15138569173818597    0.10358771305561144    0.11162170348649837    0.12812541866689206    0.15401664117874875    
  0.18530200366784505    0.21187059686215767    0.22229873073742137    0.21186758892957525    0.1852850370054712    
  0.15400778988021446    0.12817870151850727    0.1116240109400787    0.10354896591542218    0.10076672280833655    
  0.10019533303586019    0.10076479572539883    0.10358771305561144    0.07215782735699283    0.07993427986357654    
  0.09512990905053638    0.12014391279833062    0.1540166465033778    0.18918782780411683    0.2123453326759081    
  0.21234904694623988    0.18919852126587672    0.15402441976972758    0.12009453509421793    0.09513145768689463    
  0.07996687781156117    0.07215406802095901    0.06910003251812846    0.06910076463567674    0.07215782735699283    
  0.05427347367818785    0.06045103707210658    0.07310049244690602    0.09512990056504246    0.1281254100701206    
  0.16824010792592972    0.20329724422228737    0.21748940098391276    0.20328524404654882    0.16823547497964567    
  0.12817819833844799    0.09512356552424159    0.07307153918730232    0.06045636863191611    0.05427442191455316    
  0.052460578247968966    0.05427347367818785    0.04553202089875619    0.05000242808375567    0.06045102834963759    
  0.079934271376511    0.11162165760785321    0.1552982011522552    0.20209591613901098    0.23356248620325068    
  0.23357493213939795    0.20209705097235242    0.15523625986034562    0.11163211166447355    0.07996612139428562    
  0.060443712207552215    0.05000206312161059    0.045531906617826585    0.04553202089875619    0.04293360894857035    
  0.045532039669231694    0.05427349044750608    0.07215783269983077    0.10358772204382044    0.15138568335077943    
  0.21094837592018326    0.2640933801674876    0.28569183999832787    0.2640945155253249    0.21103419401979936    
  0.15137091966697563    0.10355350306376927    0.07216768605954167    0.05427513534428916    0.045532181765602225    
  0.04293360894857035    0.04081949420718939    0.04279432869574154    0.04935832270704512    0.06250356895930308    
  0.08500787795862444    0.11826469934618682    0.15844855535162924    0.1935256359944144    0.20770553005530668    
  0.19353306049197683    0.15847674223107658    0.1182570246332624    0.08499910122074819    0.06250791210458584    
  0.04935929832293151    0.0427944700523431    0.04081949420718939    0.04279445800879254    0.04279413909655368    
  0.04835673817009325    0.061504107275952014    0.08605438017783397    0.1259508417999031    0.18029158888366753    
  0.23708454071788862    0.2743934031430782    0.27437967639290217    0.2370610809006681    0.18030127185553585    
  0.12596859225253598    0.08605092968274239    0.06150526466217152    0.04835658796048441    0.04279445800879254    
  0.049359284059233816    0.045829454892626784    0.049358825676681796    0.061503531762052324    0.08668314331424473    
  0.13139893422151905    0.19895362989838516    0.2775493125526064    0.33865532713079155    0.36045347291167085    
  0.33868514888981377    0.2775441653858763    0.1989408087478145    0.1314121988452609    0.08668241085603415    
  0.06150526684533582    0.049359284059233816    0.06250791910605838    0.05285113654477078    0.05285563452527527    
  0.06250292113059372    0.0860539918302263    0.13140237105828587    0.20612501777162834    0.29989926286709107    
  0.37160802721249725    0.39649515071557606    0.39647490404556957    0.3716434177753419    0.2999349225764344    
  0.20610713136593806    0.13141218645075822    0.08605089518433608    0.06250791910605838    0.0849991023292502    
  0.06567535093467372    0.06013265315927478    0.06567591063903798    0.08499748015585097    0.12597038153661919    
  0.1989303501522443    0.2999310766989569    0.3775117991586783    0.38340240037331974    0.36871890317547706    
  0.3833936045038381    0.37752041060448877    0.2999349759535164    0.1989408759842931    0.12596858158062346    
  0.0849991023292502    0.11825699919351418    0.08598876035196996    0.0728007840108841    0.07280371132258598    