#     DFTpy    
  CRYSTAL 
    
  PRIMVEC    
  4.148097277406504    1.7354101852895174e-05    -4.350993103448276e-13    
  -2.074033609609314    3.592366400535735    -8.51293103448276e-12    
  -7.154675862068966e-13    -1.657594344827586e-11    6.820116447807414    
  PRIMCOORD    
  4    1    
  Si    1.0326208876663848e-05    2.3949165487193427    3.835455008914835    
  Si    2.074053341583453    1.197467205888861    0.42539673464979755    
  Si    1.0326210435077662e-05    2.394916548718354    6.394719662792944    
  Si    2.074053341590184    1.1974672059154663    2.984661489239354    
  BEGIN_BLOCK_DATAGRID_3D    
  3d_datagrid_density    
  BEGIN_DATAGRID_3D#0    
  19    19    31    
  0.0    0.0    0.0    
  4.148097277406504    1.7354101852895174e-05    -4.350993103448276e-13    
  -2.074033609609314    3.592366400535735    -8.51293103448276e-12    
  -7.154675862068966e-13    -1.657594344827586e-11    6.820116447807414    
  0.033831667017034314    0.03588754253762465    0.04283817886064426    0.05740021956488499    0.08462914458738623    
  0.13096293267319922    0.20021160519323625    0.2845750055306262    0.35858877106902654    0.38881588685947643    
  0.3585888164154821    0.2845750441392076    0.2002116090037034    0.13096292710815574    0.08462917194976469    
  0.05740021990233347    0.0428381748544651    0.03588753293748307    0.033831667017034314    0.035887542815328674    
  0.03588797845870143    0.04040054192787186    0.0512538385498533    0.07256282539363017    0.11064297477116304    
  0.1718620528478828    0.25525068855374977    0.34237141836906343    0.3998552794463904    0.39983594144045503    
  0.3423839646829823    0.25528009430203946    0.1718379726628424    0.1106402396208176    0.07256950878468513    
  0.0512540494457125    0.040400098119608506    0.035887542815328674    0.04283817691169911    0.04040052737414192    
  0.042837041081027795    0.051253084059311164    0.0691683853753947    0.10273663929036245    0.15971664901344682    
  0.24367660499155563    0.34088704092740235    0.4181376098884185    0.4468088656387339    0.4181456084148621    
  0.3408443047893561    0.24368353011989913    0.15974544497756704    0.10273419320123003    0.06916307914609969    
  0.0512540408517561    0.04283817691169911    0.05740022863632606    0.05125384010632363    0.05125307607700409    
  0.05740254341717001    0.07256216941729311    0.10273283396303416    0.15674513210424518    0.24050108815538754    
  0.34049097944619594    0.4170183300966438    0.44732379443249826    0.4473432937749521    0.417047086943829    
  0.3405012995407984    0.2404916569341554    0.15673279080321562    0.10273419879174435    0.07256951150646376    
  0.05740022863632606    0.08462915569360281    0.07256279817450652    0.06916837791230034    0.07256218613967606    
  0.08463508618358466    0.11064010063595288    0.1597286245297834    0.24049570931578892    0.3397098924278072    
  0.4015070251793126    0.3940744190782837    0.37637186391104344    0.394017704794557    0.40151956359136176    
  0.339712239834285    0.2404916286916207    0.15974545055712494    0.11064019879115448    0.08462915569360281    
  0.13096289872205796    0.11064295318953174    0.10273663834628204    0.10273281495173087    0.11064008792893752    
  0.1309600092215728    0.17186475606754464    0.24367067958650895    0.34049831169228173    0.40153198735466067    
  0.36146534240143585    0.29119517320455823    0.2912391118789343    0.3614605772453089    0.4015196245325692    
  0.34050136691446625    0.24368357351651326    0.1718379710953482    0.13096289872205796    0.20021159108908088    
  0.17186205139700447    0.15971665281570752    0.1567451299227206    0.1597286096687541    0.1718647610038675    
  0.20019095370778223    0.2552909907962369    0.34086116563685187    0.41704899267804285    0.39401950294944726    
  0.29124039543787256    0.2401368460342147    0.2912391276850409    0.39401775926729915    0.4170471269277671    
  0.3408443615890541    0.25528003689568646    0.20021159108908088    0.2845750350714336    0.2552506725824509    
  0.24367661924916578    0.24050109930130928    0.24049565522540572    0.24367067934975697    0.2552909210725778    
  0.2845673771622625    0.34239108230080495    0.4181455217354955    0.44734039647580237    0.3763691850603973    
  0.2912403594920225    0.2911951221199758    0.3763719194365701    0.4473433042620647    0.41814565808304405    
  0.34238401050470346    0.2845750350714336    0.35858877986316257    0.3423713987687463    0.34088699644519954    
  0.3404909143199472    0.33970985479288157    0.3404982716055279    0.34086120556030475    0.34239108191958656    
  0.3586084959183254    0.3998429510661152    0.44683555437116423    0.44734044386724786    0.39401942853820304    
  0.3614654033504747    0.3940744148121284    0.44732386071871816    0.44680888625245696    0.3998360039048238    
  0.35858877986316257    0.38881598306491794    0.3998552636986076    0.418137540959991    0.4170183166406901    
  0.4015069480043782    0.4015320036125424    0.41704896626353305    0.41814549763831727    0.3998429521748115    
  0.388846711039142    0.3998429894023643    0.4181455650753996    0.4170490130326616    0.40153195238782774    
  0.4015070168271217    0.4170182749742914    0.4181375520288974    0.39985522684406555    0.38881598306491794    
  0.3585887750808415    0.39983602466216184    0.446808904079358    0.4473238646435234    0.3940743668423899    
  0.3614654217329799    0.39401950436989014    0.4473404337626551    0.4468355836333133    0.39984293989608927    
  0.35860850974238406    0.34239106494234617    0.3408611831468158    0.34049823507026933    0.3397098810437998    
  0.34049094287610915    0.3408870894485589    0.34237135445753636    0.3585887750808415    0.2845750562139055    
  0.34238396803038285    0.41814565040739304    0.4473433313291075    0.37637189291704276    0.2911952022307545    
  0.291240386700434    0.37636920238881694    0.44734044345262874    0.41814552694912704    0.3423910584778078    
  0.28456736964040397    0.2552909439193334    0.24367065363158977    0.24049565078498406    0.24050108672973405    
  0.24367660907678995    0.2552506829531748    0.2845750562139055    0.2002115648337223    0.25528007606905023    
  0.3408443898153999    0.4170470726447753    0.39401766770715624    0.29123918424162915    0.24013688705589473    
  0.29124041267345424    0.3940194712718998    0.4170489678012709    0.3408611984040695    0.25529097087667235    
  0.20019097049017595    0.17186472885866894    0.15972864665553232    0.15674512550232583    0.15971665430620322    
  0.17186201936435838    0.2002115648337223    0.1309629392808553    0.17183798437154946    0.24368354453779187    
  0.3405013436048578    0.4015195484699723    0.3614606038946904    0.2912391698270167    0.29119517252698784    
  0.36146533203884473    0.4015319873952928    0.34049827254205856    0.24367066392363046    0.17186473425664733    
  0.13096000412401634    0.11064010514205597    0.10273280475457504    0.10273663959620674    0.11064296475431562    
  0.1309629392808553    0.08462915478214979    0.11064020058783301    0.1597454713545894    0.24049164640956253    
  0.3397121763004086    0.40151956402030325    0.39401774904474207    0.3763718983374993    0.39407439991117027    
  0.40150700764881664    0.3397098413817585    0.2404956990668874    0.15972858946774876    0.11064009780543696    
  0.08463511597555282    0.07256218081574227    0.06916838163085234    0.07256279701572771    0.08462915478214979    
  0.057400228464209876    0.0725695239407581    0.10273420796533875    0.15673279201806392    0.2404916203607486    
  0.34050139230729226    0.4170470655992352    0.44734331191572724    0.4473238131826408    0.4170183022533835    
  0.3404909769174316    0.2405010797868881    0.15674514460424016    0.10273281677295068    0.07256219713117172    
  0.05740253937657293    0.0512530884674797    0.051253828915519155    0.057400228464209876    0.04283817253317514    
  0.0512540423734514    0.06916307170269378    0.10273420605977024    0.15974544966667356    0.24368352291029716    
  0.3408443145609717    0.4181456658945396    0.44680887826710913    0.41813758552699215    0.3408870221025171    
  0.2436765798204191    0.15971660585755754    0.1027366296452455    0.06916838841431996    0.05125307869445389    
  0.042837048390274336    0.0404005274380419    0.04283817253317514    0.03588753985820047    0.040400099957149174    
  0.05125405489413853    0.07256951272067437    0.11064022894822853    0.17183798792451233    0.25528005623812866    
  0.34238396211835304    0.39983598859943414    0.3998552193084579    0.34237141217610484    0.2552507188786607    
  0.17186201386022482    0.11064296245540226    0.07256282281605486    0.05125384709520097    0.04040054142714902    
  0.035887967805617434    0.03588753985820047    0.033831667017034314    0.03588754253762465    0.04283817886064426    
  0.05740021956488499    0.08462914458738623    0.13096293267319922    0.20021160519323625    0.2845750055306262    
  0.35858877106902654    0.38881588685947643    0.3585888164154821    0.2845750441392076    0.2002116090037034    
  0.13096292710815574    0.08462917194976469    0.05740021990233347    0.0428381748544651    0.03588753293748307    
  0.033831667017034314    0.03352562238577148    0.035510214492775534    0.04220327495699194    0.05614884828582807    
  0.08206069256581315    0.12590176494326602    0.19099445857596148    0.26970100767008287    0.33835531319325113    
  0.366306538924463    0.33838760601057943    0.26970848879737586    0.19096186151497077    0.12590524068733938    
  0.08207424639400912    0.056146336438565515    0.04220371052185181    0.03550962757430688    0.03352562238577148    
  0.035509648621664204    0.03551145447630935    0.04018790091311591    0.05146095644610348    0.07358028080028851    
  0.11308466654869115    0.17638279822360822    0.26188197358292636    0.34996216179505923    0.40710675226937587    
  0.4070692957329068    0.34995314496824387    0.26192881884975255    0.17637846968115753    0.11306832895943872    
  0.07358730254131533    0.051460052405245475    0.04018980447370527    0.035509648621664204    0.042203714575477266    
  0.03952923931561012    0.04220217453255854    0.051461024206442885    0.07122184647507959    0.10847366801560016    
  0.17187224162257733    0.26377163155381095    0.36504451664188564    0.43847361041665567    0.4632376922905244    
  0.4384924572307994    0.364999061988232    0.263774117160674    0.17190395209069262    0.1084676404921246    
  0.07122322118984546    0.051460038203585384    0.042203714575477266    0.056146347524154344    0.04909290651541483    
  0.04908951789251833    0.05615085366789418    0.07357989964723143    0.10847226414813028    0.17129867827371165    
  0.2667233496472155    0.368790976103537    0.42235423976148123    0.4233025957850064    0.42333323690155    
  0.42238891900507314    0.36880518412541863    0.26668564064160327    0.17131321674090494    0.10846765395952451    
  0.07358729634895465    0.056146347524154344    0.08207423318548371    0.06768401420261388    0.06362709736579594    
  0.06768377408317776    0.08207424209891238    0.11306907716210757    0.17189805363218028    0.26669743686565894    
  0.3672446531827277    0.3844766656082316    0.3122818128011026    0.2693660937625976    0.3122170035696323    
  0.38446981940095215    0.3672907661408117    0.2666856366180921    0.17190395748360165    0.11306831411469517    
  0.08207423318548371    0.12590522953191996    0.10060496838380775    0.09053062570714004    0.09052526439038823    
  0.10060983425645458    0.12590036076543132    0.17639006436501808    0.2637619751764677    0.3688077052978768    
  0.3845091886750673    0.25884472614013365    0.15263658922614554    0.15265986963769304    0.2588661357734156    
  0.38446992243482225    0.3688052484417953    0.26377415937813403    0.1763784293671553    0.12590522953191996    
  0.19096183220481705    0.1530124377235958    0.13562060836808287    0.13096572039936355    0.13562373003952935    
  0.1530132812830465    0.1909598048287893    0.26193368347354806    0.36500561826090916    0.42239157145556344    
  0.31221746916823767    0.15266083164249827    0.09847073761058653    0.1526598957072537    0.3122170054952261    
  0.4223889551721817    0.3649991084312515    0.26192880250631423    0.19096183220481705    0.26970847941655507    
  0.22384257210032957    0.20201343644584088    0.19404764246937758    0.19405465248188575    0.2020075410649155    
  0.22386164203530676    0.269702796055388    0.34997316103433285    0.43849124723202454    0.4232997557749878    
  0.2693865924395285    0.15266080806853352    0.15263656432796263    0.26936609650897053    0.4233332357377289    
  0.4384924252882827    0.3499531488101019    0.26970847941655507    0.3383875881795291    0.297745705962127    
  0.2807518239908045    0.2748812663972892    0.27374016961509334    0.2748835067919583    0.28075204445624163    
  0.29775516849559497    0.3383986890401824    0.40706527477941057    0.46329879089318615    0.42329974079519384    
  0.3122174374756859    0.25884475526665557    0.312281803931964    0.42330257414679756    0.4632376828883131    
  0.4070692915103142    0.3383875881795291    0.36630656544721224    0.34674068969832206    0.3468696277498655    
  0.35069879322399383    0.35083422250016727    0.3508516522804213    0.35069883395291973    0.3468868834076042    
  0.3467362040570001    0.3663446685429679    0.4070653502639058    0.4384912178705888    0.4223916072620592    
  0.384509073198198    0.3844766828127088    0.4223542685799972    0.4384736190856931    0.40710665115537115    
  0.36630656544721224    0.3383553019096599    0.3467385808575964    0.3728348998451491    0.39440390199520053    
  0.3950373289978528    0.39007173510196763    0.3950276853581106    0.39441061785426806    0.3728500852705918    
  0.34673623190546365    0.33839867063628154    0.3499731695156981    0.3650055922971891    0.3688076517123327    
  0.36724466084506774    0.36879098662175686    0.3650445590404012    0.3499621157657989    0.3383553019096599    
  0.269701026549369    0.2977739906467751    0.34687280575415974    0.3944079540472065    0.40612913616635354    
  0.39069438781809906    0.3907058065056029    0.406133201297788    0.39441060316232074    0.3468869122421391    
  0.29775516868210083    0.2697027716642765    0.2619336450844658    0.2637619389220914    0.2666974026861264    
  0.26672333279270805    0.2637716436758073    0.2618819387163324    0.269701026549369    0.19099447011377976    
  0.22385248130650057    0.28072053805668884    0.3507020021869859    0.39502495689997347    0.39070518034674123    
  0.3781034197434238    0.39070577325560835    0.39502776610865037    0.3506989157563313    0.2807520637735207    
  0.22386165146938233    0.19095981857805625    0.17639002921627042    0.17189809719411034    0.1712986670821804    
  0.17187223841352853    0.17638276520182525    0.19099447011377976    0.12590175253309713    0.15297778073427104    
  0.20201282803174206    0.2749061885443421    0.35084226876290486    0.3900687667184518    0.3907050973386614    
  0.39069444789289925    0.39007167666989045    0.350851628561577    0.27488350577270615    0.20200753332292945    
  0.15301328156159927    0.12590032473511645    0.11306906168835784    0.10847225934540708    0.10847364759652825    
  0.11308464274152565    0.12590175253309713    0.082060687207532    0.10060773363532388    0.13565294155570937    
  0.1940501879568988    0.2737177372890859    0.35084225719862144    0.39502501088476427    0.4061291260949321    
  0.3950373637510771    0.350834281062436    0.2737401472526035    0.1940547199836306    0.1356236988502047    
  0.10060984477943959    0.08207426773244678    0.07357989736371354    0.07122184550888298    0.07358026345014826    
  0.082060687207532    0.05614885689118307    0.06769612240664738    0.09052802870956168    0.13093784508350415    
  0.19405018559032472    0.2749062095656646    0.3507020365096515    0.39440796113779364    0.3944039368671471    
  0.3506987242738882    0.27488132224981593    0.1940476434508706    0.13096572813858198    0.09052525372082466    
  0.06768377903948575    0.05615085358991354    0.05146103014205404    0.05146094586811952    0.05614885689118307    
  0.04220327618905465    0.04909114247369372    0.06361551518977981    0.0905280325688396    0.1356529369321462    
  0.20201282031453968    0.2807204929282053    0.3468727473457353    0.3728348645635385    0.34686969430593706    
  0.2807518206609251    0.20201342327160976    0.13562058853653344    0.09053061271698382    0.0636271072987502    
  0.049089514961853174    0.04220217770966878    0.04018788042670142    0.04220327618905465    0.03551022027742416    
  0.03952904423157604    0.049091148279404494    0.06769612276331989    0.10060773688648454    0.15297780506805025    
  0.22385248121328283    0.2977739833734165    0.34673853233261387    0.3467406272141985    0.29774568286059316    
  0.22384259077564347    0.1530123953955082    0.10060497811509224    0.06768402979785257    0.04909290442912535    
  0.039529246100799    0.03551144147303404    0.03551022027742416    0.03352562238577148    0.035510214492775534    
  0.04220327495699194    0.05614884828582807    0.08206069256581315    0.12590176494326602    0.19099445857596148    
  0.26970100767008287    0.33835531319325113    0.366306538924463    0.33838760601057943    0.26970848879737586    
  0.19096186151497077    0.12590524068733938    0.08207424639400912    0.056146336438565515    0.04220371052185181    
  0.03550962757430688    0.03352562238577148    0.03271057560372482    0.03448060938951121    0.040431750723607    
  0.052685065393630395    0.07505801442127957    0.11228252298128678    0.16659985078825565    0.2311390926063624    
  0.28667949101460966    0.30913039754635124    0.28671791160119914    0.23114953702645447    0.16656495293765455    
  0.11228474504835874    0.07507530254154546    0.052681712806986615    0.040432084063459835    0.034480131771023104    
  0.03271057560372482    0.034480144839096526    0.03448142855160363    0.03890505996333527    0.049568634085812135    
  0.07033964777527126    0.10704088102495257    0.16505464623010718    0.24206168556165525    0.31988352129724734    
  0.36951519546641887    0.3694786575086872    0.31986473198981896    0.24210872498349786    0.165058547954637    
  0.10702092292648933    0.07034710191247698    0.049568392488198325    0.038906897064488896    0.034480144839096526    
  0.040432095661305796    0.037798212883529865    0.040430996451732086    0.04956928175855675    0.06908177244571552    
  0.10581302795201568    0.1679326371682022    0.256469414850364    0.35076562740469563    0.41530943341643217    
  0.43575081132202353    0.41533290327639416    0.35072916374337515    0.25646517955753734    0.16796666120752088    
  0.10580618939613351    0.06908406536201195    0.04956837869733518    0.040432095661305796    0.052681711519478674    
  0.04556045684043751    0.04555562554084338    0.05268680940391826    0.07033924669875716    0.10581212750829559    
  0.16968048472499564    0.2654405990098747    0.3625994164248351    0.40283047031207564    0.39172288088872803    
  0.39174773920738876    0.40285910661036656    0.36262021328741706    0.2653946458854732    0.1697031821795073    
  0.10580617222638004    0.0703471066547421    0.052681711519478674    0.07507529929421736    0.06033947928188618    
  0.056200031964745455    0.060339828128753714    0.07507374021556937    0.10702209734842273    0.16796213506062418    
  0.2654123270172616    0.36293199978158536    0.3625370379921676    0.27252873419177986    0.2251500539806331    
  0.2724802285353565    0.36251211343616946    0.3629975909141266    0.2653946383753827    0.16796667215432196    
  0.10702089958491263    0.07507529929421736    0.11228473589312982    0.08601440304720163    0.07555628071654939    
  0.07555224445273166    0.08601863625321085    0.1122803955209493    0.1650651867542884    0.2564525548237584    
  0.3626216435070092    0.3625609514550244    0.2177220725531851    0.1122532829818015    0.11225840241623647    
  0.21775687619134929    0.362512167872988    0.3626202506452252    0.2564651900057836    0.16505852394745496    
  0.11228473589312982    0.16656493001134245    0.12605629127236045    0.10733049599473832    0.10219797938601756    
  0.10733115316236103    0.12605758218887958    0.16656522906420212    0.24211218709292576    0.3507318915287499    
  0.40286151525577374    0.2724803237945483    0.11225872728548489    0.06463751845044291    0.1122584186195975    
  0.2724802434961311    0.4028590914841209    0.3507292185735515    0.24210870743299637    0.16656493001134245    
  0.23114956866161104    0.17905598349254728    0.15321821020726628    0.14324354047032875    0.14325110373173155    
  0.15321290348305389    0.17906722756313476    0.23114538428071718    0.3198834309230395    0.41533342637457277    
  0.39169945540500206    0.2251841817844665    0.1122587250519075    0.11225325204790453    0.22515006522630118    
  0.39174778968614554    0.41533287257722384    0.3198647584640949    0.23114956866161104    0.28671788954959465    
  0.23354844580952133    0.2072275299860384    0.19656304237261893    0.19417444652216304    0.19656357478062955    
  0.2072329256201673    0.23355141396468218    0.2867283098087923    0.3694649315628778    0.43582768585937304    
  0.39169949583770364    0.2724803460738554    0.21772208810212595    0.27252872866407546    0.39172288416065904    
  0.43575082098366347    0.36947867641154075    0.28671788954959465    0.3091303897923567    0.2694653927734853    
  0.2531092241224284    0.2498285834670578    0.2507301148620588    0.25074238021617745    0.2498222423583349    
  0.25312595775250096    0.2694614876768117    0.3091667185094962    0.36946496861732203    0.4153334412554791    
  0.4028615144612482    0.3625609464298087    0.36253705933319624    0.40283043270258206    0.41530942267932663    
  0.369515190490557    0.3091303897923567    0.28667948607694677    0.2694686764675314    0.2714461709984545    
  0.28372840968745217    0.2946913365024041    0.2986597702784765    0.29469441753728465    0.283729615901134    
  0.2714569601383544    0.2694614370921352    0.28672831311600816    0.3198833781315762    0.3507318834243937    
  0.36262155862948303    0.36293208637254515    0.36259940703156923    0.35076564068560623    0.3198834570754921    
  0.28667948607694677    0.2311391393805593    0.23357624911486105    0.2531105718103565    0.2837264851184019    
  0.31094177170935833    0.3243358713319618    0.32433444540028905    0.3109480659322736    0.2837296149371494    
  0.2531259703241322    0.23355141334271412    0.2311453774509572    0.24211211957821474    0.2564525470381499    
  0.26541228945442535    0.26544056516231973    0.25646944966185353    0.24206167845461357    0.2311391393805593    
  0.16659983642520831    0.1790615476366585    0.2072014896261959    0.24982691235030466    0.29469242216699    
  0.3243341165439914    0.33341026297241977    0.3243344198611144    0.29469444050982274    0.2498222659323221    
  0.20723293027578965    0.1790672399195362    0.16656523581155258    0.16506510415216863    0.16796214392820613    
  0.16968046875475679    0.16793263271573913    0.16505462426165318    0.16659983642520831    0.11228250795757357    
  0.12602374508418343    0.15321444602752324    0.1965875849401747    0.25073467059503435    0.2986584762609689    
  0.3243340533379937    0.32433585611962196    0.29865973671844104    0.2507423743352388    0.19656361030978411    
  0.15321288846853007    0.12605755445902936    0.11228038651512182    0.10702208547211857    0.1058121048100545    
  0.1058130117221796    0.10704085753428447    0.11228250795757357    0.07505802379753129    0.08601563778130608    
  0.10735950104027553    0.14324781708527498    0.1941495028976471    0.2507347091677314    0.29469247909964225    
  0.31094181818959843    0.29469135414098097    0.25073017445554796    0.19417439951616225    0.1432511477315644    
  0.10733115252219295    0.08601862408214442    0.07507376460237113    0.07033924412040773    0.06908177418323803    
  0.07033963580330223    0.07505802379753129    0.052685070741939566    0.06035301303575038    0.07555479849159892    
  0.10216918299943663    0.1432477884669127    0.19658759375375762    0.24982686948410435    0.2837265204379239    
  0.2837283613867483    0.24982855668230564    0.19656302399323375    0.14324352230542317    0.10219799013133438    
  0.07555223546189758    0.06033982518793606    0.05268680660381453    0.04956928630626269    0.0495686303736268    
  0.052685070741939566    0.04043174455606387    0.045557784070658636    0.05618634040092556    0.0755548120313062    
  0.1073594879661779    0.1532144316594587    0.20720143557661738    0.25311055231170027    0.2714461339320241    
  0.2531092499550858    0.20722753659996845    0.15321818105250032    0.10733045150435315    0.07555626972667306    
  0.0562000315355286    0.045555621888891513    0.040431001055936826    0.03890504655604369    0.04043174455606387    
  0.034480610155193436    0.037797682380169006    0.045557790002395224    0.06035300360266986    0.08601565119617677    
  0.12602375696950024    0.1790615437041412    0.23357623912366973    0.2694687019692547    0.2694653768823258    
  0.23354841505219728    0.1790559764737856    0.12605627574972422    0.08601439258981519    0.06033950037535858    
  0.045560457813250674    0.037798218289984836    0.0344814190069152    0.034480610155193436    0.03271057560372482    
  0.03448060938951121    0.040431750723607    0.052685065393630395    0.07505801442127957    0.11228252298128678    
  0.16659985078825565    0.2311390926063624    0.28667949101460966    0.30913039754635124    0.28671791160119914    
  0.23114953702645447    0.16656495293765455    0.11228474504835874    0.07507530254154546    0.052681712806986615    
  0.040432084063459835    0.034480131771023104    0.03271057560372482    0.03157730549524284    0.03302462180593415    
  0.03789828011569328    0.04782694076528216    0.06554994608510077    0.09427434092975251    0.135136901708967    
  0.1826210546072174    0.2228401622920489    0.23896531180108624    0.2228655568621223    0.18262567971500002    
  0.1351090299840582    0.09427923176997538    0.06556148617866972    0.04782536171032531    0.03789842584298872    
  0.033024617682482826    0.03157730549524284    0.033024627305271045    0.03302540173764431    0.036882725003049614    
  0.046117464375120286    0.06386030429706749    0.09459456770822942    0.14216098299742183    0.2042047341641475    
  0.26619774699257776    0.3055889673846119    0.3055590819918932    0.26619403909742767    0.20424396057944072    
  0.14216056233269694    0.09458278453572054    0.06386489635920481    0.046118113642814595    0.03688370498637545    
  0.033024627305271045    0.03789843478000705    0.03551356388211956    0.03789762089092414    0.0461181184132867    
  0.0635195715081945    0.09589760071736658    0.14996436288357087    0.22661783930521096    0.30940399038573685    
  0.3685300240447044    0.3883179949280142    0.36854409465480104    0.3093640883792503    0.22662601571406163    
  0.14998546996376497    0.09589519381744536    0.06352087858023539    0.04611810469484518    0.03789843478000705    
  0.04782537237795392    0.04132469890468907    0.041321736131375256    0.04782820669710254    0.06385994153245322    
  0.09589803485928756    0.15328707373865122    0.2402162879645193    0.33450840419531774    0.38757256158051545    
  0.39267878276525675    0.3927088436092882    0.38760937012670044    0.3345167050206062    0.24018688477416372    
  0.15330311298820817    0.09589517839945072    0.06386489976794615    0.04782537237795392    0.06556147417151581    
  0.05218620954891864    0.048414075683974704    0.05218609176791269    0.06556122045815921    0.09458070081539775    
  0.1499860068299363    0.24019088817560155    0.34089234464641915    0.3723501400524232    0.31831731945848546    
  0.2817906438135713    0.3182499184387122    0.3723527696266395    0.3409297763059199    0.24018683766922394    
  0.14998548162458342    0.0945827721417642    0.06556147417151581    0.09427922303921336    0.07056492674667418    
  0.061122095288250945    0.061118336807252614    0.07056833073245132    0.09427514934424167    0.1421661923185456    
  0.2266135945895397    0.33452235871892644    0.37237939990772134    0.2758330156225842    0.1787991592963134    
  0.17883266251030877    0.27584594450903976    0.37235282044279344    0.3345167269244738    0.22662603228983935    
  0.14216054686161209    0.09427922303921336    0.13510902370689776    0.09846195185772746    0.08152361427805643    
  0.07681936918061158    0.08152434338536758    0.0984627072352043    0.13510934997875074    0.20424546706962474    
  0.3093661715657419    0.38761016265843135    0.31824962379098776    0.1788322916270639    0.12518563835671415    
  0.17883268189314702    0.3182499119059384    0.3876093427295586    0.309364151735087    0.20424394451650668    
  0.13510902370689776    0.18262570008226917    0.13438003398392243    0.11022573428072477    0.10066021770053792    
  0.10066484831356864    0.11022183539150712    0.13438698354250264    0.18262225514510877    0.26620867849918345    
  0.36853947425548367    0.39268194460905476    0.2818036231741574    0.1788322912653813    0.17879911619685276    
  0.28179065719663293    0.39270882339653396    0.3685440936921801    0.2661940560713252    0.18262570008226917    
  0.22286553160559106    0.17048448783886194    0.14319708759449598    0.13118198502852976    0.12810445182616226    
  0.13118339002535584    0.14319950284858335    0.17048951588226435    0.22286759925162375    0.3055583217527792    