#     DFTpy    
  CRYSTAL 
    
  PRIMVEC    
  6.534965517241378    0.0    0.0    
  0.0    6.534965517241378    0.0    
  0.0    0.0    3.600344827586206    
  PRIMCOORD    
  4    1    
  Si    0.0    0.0    0.0    
  Si    3.267482758620689    3.267482758620689    1.800172413793103    
  Si    0.0    3.267482758620689    0.9000862068965515    
  Si    3.267482758620689    0.0    2.7002586206896546    
  BEGIN_BLOCK_DATAGRID_3D    
  3d_datagrid_density    
  BEGIN_DATAGRID_3D#0    
  29    29    17    
  0.0    0.0    0.0    
  6.534965517241378    0.0    0.0    
  0.0    6.534965517241378    0.0    
  0.0    0.0    3.600344827586206    
  0.09225864794511543    0.15684767885573672    0.3555753788107101    0.46500324939243337    0.33888605319415194    
  0.18562349069833167    0.10050549893102373    0.06646391618475708    0.06207478899109997    0.08075075051026495    
  0.12538110398628902    0.19771768420720834    0.28305122321605586    0.34970460042744883    0.3739145452246842    
  0.349704539640242    0.28305120116224225    0.19771775297779864    0.1253811597181048    0.08075071132701798    
  0.06207478261827578    0.06646392523548747    0.10050549470010293    0.18562347675857882    0.3388861095390955    
  0.4650032363553452    0.3555754266584587    0.15684770094297684    0.09225864794511543    0.1568476683319418    
  0.2276367536618433    0.40371571704872145    0.45746647638863397    0.31786260157409596    0.1736774556876807    
  0.09502855330143822    0.06345522299757993    0.05935998573719475    0.0767285700050746    0.11804223245579258    
  0.18493412700194053    0.2645455012047247    0.3281225081846877    0.35174048071981345    0.3281224055988944    
  0.2645455259680207    0.18493411147734742    0.11804223113627017    0.07672858512485743    0.05935998859745042    
  0.06345524364546894    0.09502855674039597    0.17367746344561613    0.3178626017449484    0.4574664898573556    
  0.40371561013810986    0.22763674174641912    0.1568476683319418    0.35557542515567875    0.4037156611133351    
  0.4680595855999748    0.4064568113283613    0.25965998436843146    0.14287584467560893    0.08084061279097916    
  0.055540845938300894    0.05223494914409469    0.06627662353839622    0.0992553918979209    0.15219270557183437    
  0.21588182913044054    0.2686649626658022    0.28907023256344067    0.26866497562571184    0.21588184753559722    
  0.15219270985678238    0.09925539822245187    0.06627660517920439    0.052234947124417515    0.055540859228397146    
  0.080840605509211    0.1428758549558395    0.25965994261252207    0.40645669548930485    0.46805964205934786    
  0.40371568257576723    0.35557542515567875    0.46500318899067916    0.45746640687023477    0.4064568153480725    
  0.2983851215078797    0.1841077363161242    0.10517702920102905    0.06310824258382616    0.04543312335462156    
  0.043116303434452455    0.05309828834739206    0.07601932779972052    0.11195719774140579    0.154864050916184    
  0.19097305931074618    0.20520885960703814    0.19097307495284002    0.15486402189249657    0.11195722856770826    
  0.0760193390999604    0.05309827082824232    0.04311630417222126    0.045433121825709334    0.06310825501271287    
  0.10517701378573321    0.18410775003451543    0.2983850178906641    0.40645681693142466    0.4574665363489112    
  0.46500318899067916    0.33888602564769504    0.31786247575765697    0.2596599455629951    0.1841077827255973    
  0.11720082502630516    0.07188231956269171    0.04679879291330565    0.0358207867808711    0.034379042886084545    
  0.04070818426512785    0.054805861168629955    0.0760752056192023    0.10081137638284081    0.12139439847781582    
  0.1294549969918472    0.12139436033102469    0.10081137869953805    0.07607522701626546    0.054805865065493786    
  0.040708176471376874    0.034379054735798505    0.035820790812194296    0.046798800471722225    0.07188232142421054    
  0.11720084724665653    0.18410773388487414    0.25966003591388925    0.31786254238574113    0.33888602564769504    
  0.1856234698734891    0.17367744428926749    0.1428758878686884    0.10517702423640918    0.07188232685459862    
  0.04839037144637866    0.034605641215749175    0.028261806738217116    0.027381138735272006    0.03103883633970505    
  0.03895034224899706    0.05036355070207055    0.06314538701626643    0.07349379483502107    0.07746811317646525    
  0.07349379587088778    0.06314537597661644    0.050363543098981896    0.03895035211139582    0.03103881915095724    
  0.027381122939842427    0.028261813296365193    0.03460564049094234    0.04839036806520231    0.07188231046831955    
  0.10517702782665309    0.1428758508396675    0.17367746552468016    0.1856234698734891    0.1005055086616064    
  0.09502855703550056    0.08084062031587765    0.06310826573866438    0.04679880265780642    0.03460563987057378    
  0.026958093102973545    0.023204105733177386    0.022574875095664165    0.02456513628584112    0.028800124143660826    
  0.0346613848951995    0.04095370050466654    0.04588771622138228    0.04775435653837423    0.045887727058236655    
  0.040953693924363675    0.03466138730041051    0.028800126882555628    0.024565140983823106    0.022574868524743486    
  0.023204115438284004    0.026958094094913482    0.03460564521643247    0.046798801714217804    0.0631082556515851    
  0.08084062503252434    0.0950285486165035    0.1005055086616064    0.06646391550092488    0.06345524362688408    
  0.05554085163068823    0.04543314697780399    0.03582078480794255    0.028261810830314905    0.023204107298888856    
  0.020513935116642942    0.019874292125033395    0.02090870092649049    0.023248197294884466    0.026435034382144576    
  0.029737703462383736    0.0322559281628231    0.03320695780641557    0.03225591073460284    0.02973770246284169    
  0.026435070167725457    0.023248193005281085    0.020908693110646304    0.019874288426877676    0.020513939404818885    
  0.0232041018622781    0.028261812149819394    0.03582078769006363    0.045433124157530855    0.05554086291810039    
  0.06345524648799448    0.06646391550092488    0.06207480168182603    0.05935997571006219    0.0522349551690281    
  0.043116325384206095    0.03437904946044632    0.027381135689464473    0.02257487344546481    0.019874294401662756    
  0.018956835750630563    0.019460884057332796    0.02101876852074903    0.023218938473496493    0.025476631220934208    
  0.02718127783209358    0.02782430869739927    0.027181268778058355    0.02547662654055316    0.0232189293203927    
  0.021018768177335632    0.019460883872650398    0.018956826190941845    0.019874308826725563    0.022574879951701526    
  0.027381133366616243    0.034379053067873436    0.0431163116652675    0.0522349573794826    0.05936000930153783    
  0.06207480168182603    0.08075072226256107    0.07672856319302908    0.06627662018136693    0.05309827376798938    
  0.04070819072018204    0.031038819853922792    0.024565131639589215    0.020908698120038677    0.019460880760059456    
  0.019704829579078778    0.021187882597472604    0.023389162246940026    0.025705067603432222    0.027465709978081006    
  0.028126490111514826    0.027465714439148615    0.025705069915438535    0.023389171694090063    0.02118787526898361    
  0.01970482481458914    0.019460879670361114    0.020908698544085263    0.024565142891986514    0.03103882178629686    
  0.04070817953263388    0.053098287237138705    0.06627662954117194    0.07672858836653287    0.08075072226256107    
  0.12538111424884263    0.11804218528926735    0.09925543214061931    0.07601933434432687    0.054805857170239024    
  0.03895034357033663    0.02880011004370032    0.023248185324962096    0.021018761176125268    0.021187874578921732    
  0.023077562735831742    0.025996958308125657    0.02914043558976897    0.03156732214346608    0.03246707332038184    
  0.03156733641018469    0.02914044416976866    0.025996977498200076    0.0230775634524056    0.021187867068031666    
  0.021018766367065986    0.023248187533932322    0.02880012611863767    0.03895032896535229    0.05480585666037601    
  0.07601931860952849    0.09925543049866921    0.11804222257927321    0.12538111424884263    0.1977176581273477    
  0.18493411023525833    0.15219268052851528    0.11195722543405777    0.07607520159419441    0.05036355207833447    
  0.034661393773257394    0.026435054076837643    0.02321893087542165    0.02338917320894121    0.02599696985494486    
  0.030153472548758203    0.03472188784840047    0.038303068861761935    0.03965012646888586    0.03830305326867608    
  0.034721876960711794    0.03015348169344867    0.025996962584273534    0.02338916617736945    0.02321894162626928    
  0.02643505968064873    0.0346614003671211    0.05036353554054153    0.07607522964138631    0.11195721028348689    
  0.15219267616224605    0.18493415595777835    0.1977176581273477    0.28305112546375377    0.2645454848794652    
  0.2158818627799711    0.15486406298854616    0.10081138449166581    0.06314537225587323    0.040953690231808816    
  0.02973769371204628    0.025476632353533923    0.02570507112304494    0.029140433911414666    0.034721877672207906    
  0.040965839715481484    0.04594509776603625    0.04785497036124589    0.04594509586973654    0.04096584883805322    
  0.03472189820895685    0.02914045457177733    0.025705058341518656    0.025476612949522512    0.029737699895980144    
  0.04095368527489782    0.06314539570748565    0.10081138647330316    0.15486407641421948    0.21588184644853686    
  0.2645455343643247    0.28305112546375377    0.3497046728188277    0.32812245187449535    0.2686650481825431    
  0.19097312761424762    0.12139438454746204    0.07349382349705885    0.04588772444233158    0.03225591609248795    
  0.027181274787146322    0.027465720503360297    0.03156733168788354    0.03830302751409716    0.04594513803226347    
  0.052095042028996744    0.054463589859167834    0.052095082020306355    0.04594512999978805    0.03830304861639147    
  0.03156732417881753    0.027465713291756882    0.02718126635737098    0.03225592387318093    0.04588773262435812    
  0.07349384889103865    0.12139437375565522    0.19097303302993104    0.26866501184562697    0.3281225331490379    
  0.3497046728188277    0.37391451260755326    0.3517404432285677    0.28907012578673347    0.20520885847681514    
  0.12945495684940284    0.0774681119747045    0.04775434688685592    0.03320695433828513    0.02782429845256783    
  0.028126486241175388    0.03246706482683702    0.03965008500569733    0.0478549922650362    0.05446356356931512    
  0.05700045990662694    0.05446355522114967    0.04785497124767296    0.03965010801666863    0.03246706414129112    
  0.028126458186549404    0.027824303030652545    0.03320695834817503    0.0477543481397482    0.07746811743640782    
  0.12945494944409372    0.20520880080066067    0.28907013232786577    0.35174043401515204    0.37391451260755326    
  0.34970463889064757    0.32812248106799935    0.26866502698810246    0.1909730766156059    0.12139434996962677    
  0.07349381690825871    0.04588773521606362    0.03225591678629726    0.02718127702917673    0.02746571818064503    
  0.0315673328424312    0.038303064328622696    0.045945099883239686    0.052095072045577256    0.0544635714538963    
  0.0520950839150272    0.04594512537449143    0.038303041677922124    0.031567350126873575    0.027465727744075807    
  0.027181270457639357    0.03225593214868963    0.045887733529431395    0.0734938107686835    0.12139438516610307    
  0.19097304771435536    0.26866495886793973    0.3281225111886512    0.34970463889064757    0.2830511224239082    
  0.2645454659603641    0.2158818469652796    0.1548640553944317    0.10081140141688014    0.06314537856478179    
  0.04095368677171511    0.02973770781865171    0.025476624454432724    0.025705067846354634    0.029140425710003474    
  0.03472186681455196    0.04096586323026823    0.04594510368873022    0.047854994352655666    0.04594511874474724    
  0.040965846690313196    0.03472189290430074    0.029140452073158647    0.025705059899435473    0.025476620827700303    
  0.029737699814871107    0.04095369684836851    0.06314537738349658    0.10081136943944631    0.15486403760245943    
  0.21588187775551385    0.26454545320457373    0.2830511224239082    0.19771763289481195    0.18493410169564675    
  0.15219271996189224    0.11195722837653377    0.07607521164313917    0.0503635529739442    0.03466138833022253    
  0.02643505165120466    0.023218935436016563    0.023389159341468898    0.025996961449300433    0.030153465963056684    
  0.0347218821946613    0.03830303685454202    0.03965012346565478    0.038303057138539424    0.034721872506349914    
  0.03015346086857895    0.02599696131134382    0.023389172036229176    0.023218937070743007    0.02643506103847087    
  0.0346613984486672    0.05036353719975334    0.07607521049014872    0.11195719926549239    0.15219269878165667    
  0.18493417852288435    0.19771763289481195    0.12538111598291676    0.11804216813910828    0.09925541229077027    
  0.07601934565017843    0.05480586031734667    0.038950337737055724    0.028800119300590156    0.023248184851643976    
  0.0210187641504572    0.021187877884676305    0.023077561904859812    0.02599696063970028    0.02914043818580057    
  0.03156732688675445    0.032467079512533054    0.03156732957937453    0.02914044510075681    0.02599696565198058    
  0.0230775668328119    0.02118787876942095    0.021018763399166893    0.023248181711933828    0.02880012471031987    
  0.038950330177410744    0.05480585821886012    0.07601931487364896    0.09925544897202591    0.11804222124395938    
  0.12538111598291676    0.08075073125798118    0.07672855824529506    0.0662766412007419    0.05309827161584099    
  0.040708182529435234    0.031038827263258777    0.02456513493178312    0.020908697340944055    0.019460881981591283    
  0.019704828898071583    0.021187876231949933    0.023389174084775    0.025705060729336808    0.02746571839544573    
  0.028126469150481198    0.027465709219638458    0.025705063441756094    0.023389168434694543    0.021187876237221518    
  0.01970482786268777    0.019460878640999376    0.02090870079991069    0.024565137767521086    0.031038835000575717    
  0.040708179886347715    0.053098282065859766    0.06627662644674524    0.07672859399006197    0.08075073125798118    
  0.06207478803714835    0.05936000692527135    0.052234951706757064    0.04311631788137142    0.034379054220389914    
  0.027381141808718815    0.022574876981798175    0.01987429873052094    0.018956831557654596    0.01946088989776399    
  0.021018770153508906    0.023218930951669013    0.025476643120536064    0.027181263724269517    0.02782431344571797    
  0.027181264613899126    0.025476637633285948    0.023218925058874067    0.021018765478930224    0.019460890755832135    
  0.018956823350930418    0.01987430483499513    0.022574876319388534    0.027381141593079403    0.03437903876234542    
  0.043116319214061706    0.05223495964725578    0.05936000715299465    0.06207478803714835    0.06646390895037439    
  0.0634552367394761    0.05554085764966224    0.045433140791383914    0.03582078238554754    0.02826181767638942    
  0.023204108718102762    0.02051393173063957    0.01987429518495075    0.020908695373189033    0.02324818753132081    
  0.026435046810511755    0.029737709533424177    0.032255919457448476    0.03320696462051637    0.03225592307992392    
  0.029737698033285367    0.02643506337402934    0.023248191975494614    0.02090870052169021    0.019874291045928673    
  0.020513933931303612    0.023204104139839567    0.028261814715121944    0.035820774206670826    0.04543312515503167    
  0.05554086659258426    0.06345523553221397    0.06646390895037439    0.10050550701221515    0.09502853915285384    
  0.08084063477408007    0.06310825986943269    0.04679880215742004    0.03460564711372072    0.026958093778579745    
  0.02320411196153952    0.02257487401600368    0.024565140179041867    0.028800122315978    0.03466138317732261    
  0.040953686344494485    0.045887729474199015    0.04775434708000738    0.045887725876142545    0.040953703719910264    
  0.034661396900041185    0.028800131851958406    0.024565140440793644    0.022574868274378768    0.023204114612181765    
  0.026958098484120323    0.03460563581683369    0.04679879886836029    0.06310826464681522    0.08084060974640926    
  0.09502854731531034    0.10050550701221515    0.18562346599048649    0.17367743257879636    0.1428758669440128    
  0.1051770159426654    0.07188231954016634    0.04839036474717788    0.03460563443727981    0.028261801097629366    
  0.027381132595273597    0.031038828309979838    0.038950334824713634    0.05036354570551673    0.06314539485168634    
  0.07349380723465421    0.07746813326361478    0.0734938174191405    0.06314537475547514    0.05036354391577972    
  0.03895034318550951    0.03103883000551718    0.027381127040149212    0.028261814152787935    0.03460563925329157    
  0.04839037020210092    0.07188229725117919    0.10517702539646953    0.14287585377917905    0.17367745072056778    
  0.18562346599048649    0.3388860207501504    0.3178624837426663    0.259659956647574    0.18410777110297688    
  0.11720083798425605    0.07188231803325147    0.04679879361637484    0.035820793720294154    0.03437904694425498    
  0.040708190431176204    0.05480586732825642    0.07607520293767717    0.10081137830843075    0.12139434831129808    
  0.1294549788984793    0.12139437239183293    0.1008113955884992    0.07607523622308078    0.05480586577413869    
  0.040708180236772994    0.03437904676652259    0.03582078947800135    0.04679880562455234    0.07188230721089794    
  0.11720082369423322    0.18410773262070176    0.25965999192743017    0.3178625818464781    0.3388860207501504    
  0.4650031526876643    0.45746645312449064    0.4064568176096502    0.29838508916171413    0.18410771120915548    
  0.10517702489122566    0.06310825248977388    0.04543310723262056    0.043116302590589295    0.053098286634741934    
  0.07601932848045334    0.11195720671814906    0.1548640320457911    0.19097308480141154    0.20520881717535036    
  0.19097301775679493    0.15486400624117447    0.11195723551092099    0.07601934230025356    0.05309826802408538    
  0.043116314702885024    0.04543312775994099    0.0631082634668202    0.10517702794311694    0.184107765856919    
  0.298385050518057    0.4064568059947108    0.45746652665482407    0.4650031526876643    0.3555753813653343    
  0.4037156120774961    0.4680596370125837    0.4064567578739509    0.25965996608103264    0.14287581523280007    
  0.0808406213122383    0.05554084955230914    0.05223495832728161    0.06627661007940899    0.09925539765833269    
  0.15219265773011204    0.21588180985655175    0.26866499041962544    0.28907018562198666    0.26866493129312535    
  0.21588179974426483    0.15219267821450733    0.09925541993636064    0.06627661222951611    0.05223492703098106    
  0.05554085650870066    0.08084061899797419    0.14287585370790393    0.259659944297119    0.40645675143355187    
  0.4680595188695334    0.40371569985426065    0.3555753813653343    0.15684764154932324    0.22763669192287575    
  0.4037156728349688    0.45746654751711224    0.31786255697631394    0.1736774674640303    0.09502856060773548    
  0.06345523003276107    0.059360000542123745    0.07672858892521718    0.11804220042641676    0.18493416726856812    
  0.26454556834653997    0.3281224611586306    0.35174041723755156    0.3281224450397106    0.2645455332682967    
  0.18493411490789455    0.11804222279507602    0.07672858858998127    0.05935998276743851    0.06345524144774918    
  0.0950285491375836    0.1736774784699438    0.31786255395119495    0.45746646528092527    0.4037156636980632    
  0.2276367150414824    0.15684764154932324    0.09225864794511543    0.15684767885573672    0.3555753788107101    
  0.46500324939243337    0.33888605319415194    0.18562349069833167    0.10050549893102373    0.06646391618475708    
  0.06207478899109997    0.08075075051026495    0.12538110398628902    0.19771768420720834    0.28305122321605586    
  0.34970460042744883    0.3739145452246842    0.349704539640242    0.28305120116224225    0.19771775297779864    
  0.1253811597181048    0.08075071132701798    0.06207478261827578    0.06646392523548747    0.10050549470010293    
  0.18562347675857882    0.3388861095390955    0.4650032363553452    0.3555754266584587    0.15684770094297684    
  0.09225864794511543    0.1526808567018383    0.22385091237957602    0.4034301975958484    0.4617992740677218    
  0.32186110849136323    0.17450334236587778    0.09277253561663532    0.057999126241961484    0.04882338526641357    
  0.05615377975916397    0.0784113266793084    0.1152678627882424    0.16033708935033522    0.19861289633814777    
  0.2137226032594552    0.19861290076011565    0.16033710521335268    0.11526792674074089    0.07841134830406037    
  0.056153766970917965    0.048823365771234375    0.057999147845818104    0.09277252117627727    0.17450334348760713    
  0.3218611087077926    0.46179913247918375    0.40343025182812053    0.22385090613954142    0.1526808567018383    
  0.2230108609887181    0.2926057824151156    0.438333402715137    0.44821141792714636    0.3011327500936713    
  0.16334587128306619    0.08784029109404622    0.055530546423851856    0.04695200978406435    0.05380745727287419    
  0.0745471424842221    0.10870970371005428    0.1503452282860778    0.18573247728290945    0.1997486170823657    
  0.18573246588042894    0.15034521207651758    0.10870972206077763    0.0745471166773022    0.05380746772539356    
  0.046952004034098264    0.05553056427201389    0.08784028798816589    0.16334589365793864    0.3011327865577485    
  0.4482114589068544    0.43833334842018085    0.29260585295494573    0.2230108609887181    0.399670572254399    
  0.4356544014818117    0.4686505487725142    0.3881328836931253    0.24479441975470345    0.13449352221502228    
  0.07499614204950575    0.04904584824473838    0.042057071857710265    0.04766754731413357    0.06450356141354664    
  0.0918375388446198    0.12474691030133687    0.1526036935782559    0.163654666785663    0.1526036867777269    
  0.12474692687017426    0.09183758107467316    0.0645035814300962    0.0476675304950092    0.04205707992269603    
  0.04904584690980773    0.07499614423442773    0.13449354744958442    0.24479437823905356    0.3881328118136971    
  0.46865056264773314    0.4356544876143717    0.399670572254399    0.45540826932097545    0.4430892984892619    
  0.3858095276095715    0.28030667496031014    0.17327659365224896    0.09929744365865284    0.05893487747601653    
  0.040721240971495216    0.03571810374112918    0.03979343010844026    0.05181954703367024    0.07087462242494756    
  0.09331773257048404    0.1120490610418397    0.11941950823655523    0.11204906438292174    0.09331776598297097    
  0.0708746316815312    0.05181954136424923    0.03979342684656804    0.03571811720188289    0.040721236883581785    
  0.058934887326245924    0.09929745265478897    0.17327658258430642    0.28030660590736173    0.38580948908078316    
  0.44308944147526064    0.45540826932097545    0.3173722913688407    0.2974096135782924    0.24289125419697727    
  0.17290318794237933    0.11092265107997946    0.06842186387484787    0.04420509671505942    0.03275160628038628    
  0.02952791504799863    0.03219681055254158    0.03990067143875025    0.05168453631189824    0.06516946504640823    
  0.07619822171648896    0.08046611367142859    0.0761982149867785    0.06516944921179799    0.051684546506233636    
  0.03990066986502814    0.03219681908077352    0.02952792803478011    0.032751610154454436    0.04420509411179217    
  0.06842185211044832    0.11092267627935064    0.1729031243131532    0.24289128206473973    0.2974096469355556    
  0.3173722913688407    0.17529331582740293    0.16418579753552984    0.13558913446752022    0.10046812710944308    
  0.06919797019613096    0.046807107738891456    0.03326801943183184    0.0265013233603999    0.024513254843629557    
  0.026124245607630273    0.030688730759600533    0.03740865333239149    0.04483266939962494    0.05076673930646757    
  0.05302982344455663    0.05076673706261448    0.04483264250685605    0.037408658463197984    0.030688737098346377    
  0.026124231408483134    0.02451323805084128    0.026501328505939815    0.03326802011036027    0.04680711545105983    
  0.06919794637813922    0.10046812209234152    0.1355891136394212    0.1641858374574354    0.17529331582740293    
  0.09949651420428518    0.09410117074703755    0.08019277533562122    0.06279376988359334    0.04666054595892264    
  0.03445521102484031    0.026600300471351562    0.022427311862949696    0.02111335792170936    0.022022394140885613    
  0.024669397489999436    0.02844862705139479    0.03248386395380927    0.035623629015777335    0.036817971403946194    
  0.035623613690212975    0.03248385438423471    0.028448650872713088    0.024669400931857818    0.022022401295159054    
  0.021113350168965202    0.02242731492632352    0.026600299752371555    0.03445521805743186    0.046660549562013154    
  0.06279376377591041    0.0801927859636936    0.0941011703652563    0.09949651420428518    0.0723575708953411    
  0.06892523364734598    0.06000650119511366    0.04867872705834725    0.03791860136225835    0.029450440032649797    
  0.023731312753560243    0.020523072189494024    0.019384234531751303    0.01986468097138396    0.0215304630666373    
  0.02393462061872261    0.02643874678562576    0.028350986287718396    0.02907217048417996    0.028350977533413084    
  0.02643874630172375    0.023934654678020584    0.02153046591166028    0.0198646763253007    0.019384232195086937    
  0.020523073613041717    0.02373131158140538    0.029450439398174454    0.03791860513181617    0.048678703498097026    
  0.060006498254503084    0.06892523955231719    0.0723575708953411    0.07694071706317138    0.07320746745789702    
  0.0634691907835046    0.05113410324035872    0.03948288445762312    0.030331209651839556    0.024144426028259322    
  0.020616918963910966    0.019212920194613636    0.01941715870340722    0.0207821390743592    0.02283883709885738    
  0.025009489039217597    0.026659107820956107    0.02727965385597355    0.026659105594682892    0.025009483078123437    
  0.022838838266401342    0.020782135085859292    0.01941715486025966    0.019212908929677475    0.020616930632496745    
  0.024144427547224488    0.030331205458295374    0.0394828874168829    0.05113410379525029    0.06346918722126799    
  0.07320746928407361    0.07694071706317138    0.11310714787604105    0.10675139792081588    0.09028312267056093    
  0.06979158607573682    0.05100724136164212    0.03682551813560272    0.027619815412582207    0.022505897258135298    
  0.020384114507713467    0.020419636093381693    0.021986838164567087    0.02447615143954338    0.027178054862912977    
  0.029267368338908285    0.030042874200437605    0.029267374445912906    0.027178046488911273    0.024476145503052642    
  0.02198682438173147    0.020419630758601048    0.020384110268028034    0.02250589902719387    0.027619824626533916    
  0.036825518011741616    0.051007228727959764    0.06979160776019741    0.09028313257820249    0.10675139746513031    
  0.11310714787604105    0.1910099335378566    0.1788019076207669    0.1473103973964391    0.10858946975550644    
  0.07410782725748787    0.04929307703086704    0.03402151729410377    0.02592377823884581    0.022628904158110887    
  0.022551333307403144    0.024745688408216348    0.028364763987804895    0.03239854603239332    0.03556678293577549    
  0.03674927533692054    0.03556677550490936    0.03239855341492654    0.028364768911444044    0.024745688050792903    
  0.022551327446986198    0.022628914554771475    0.025923781213611906    0.034021523962545486    0.04929306926331024    
  0.07410785015436584    0.10858944699397642    0.14731033106202443    0.17880195217969377    0.1910099335378566    
  0.30930555525932024    0.2896452471863431    0.23673221894034138    0.16915579983952164    0.1089815625426513    
  0.06717507233588782    0.04272708090796816    0.03039814729813522    0.025544734375351114    0.02538139261949245    
  0.02849636681103258    0.033805441276365776    0.039842898531807995    0.04466997515003716    0.04650947424615534    
  0.04466999086052694    0.039842878220443564    0.03380544880403799    0.02849637039831775    0.02538138171416761    
  0.025544747102862322    0.030398150951839918    0.04272709827397578    0.0671750703939856    0.10898159598124578    
  0.16915576309457103    0.23673222533916363    0.2896453178026365    0.30930555525932024    0.42162124688677266    
  0.40142246216994953    0.3366632317063086    0.24052711128303997    0.14991587057869868    0.08743006407492536    
  0.052142681876771235    0.03501819025896184    0.028477180264340735    0.02826204134774699    0.03241564460000073    
  0.039613853763913576    0.0479381731611037    0.054714180168183926    0.057344946454800885    0.0547141714017443    
  0.04793816752332581    0.03961387689423657    0.032415671891367306    0.028262039314186742    0.02847716285360255    
  0.035018197344286704    0.05214269404123247    0.08743009062965108    0.14991584576682057    0.2405270530369289    
  0.3366632033606652    0.4014224702116652    0.42162124688677266    0.47123348786444724    0.461357736394921    
  0.40695908408517256    0.2981257168937798    0.1839877272786956    0.10398286808281443    0.05960009226414436    
  0.038577298783569074    0.030695195291110887    0.030444191236110682    0.035411964551646816    0.044122498296487345    
  0.05433698043366493    0.06272683287743307    0.06600081763637719    0.06272684470773793    0.05433694404795697    