#     DFTpy    
  CRYSTAL 
    
  PRIMVEC    
  4.7669999999999995    0.0    0.0    
  0.0    4.7669999999999995    0.0    
  0.0    0.0    4.7669999999999995    
  PRIMCOORD    
  4    1    
  Si    0.0    0.0    0.0    
  Si    0.0    2.3834999999999997    2.3834999999999997    
  Si    2.3834999999999997    0.0    2.3834999999999997    
  Si    2.3834999999999997    2.3834999999999997    0.0    
  BEGIN_BLOCK_DATAGRID_3D    
  3d_datagrid_density    
  BEGIN_DATAGRID_3D#0    
  21    21    21    
  0.0    0.0    0.0    
  4.7669999999999995    0.0    0.0    
  0.0    4.7669999999999995    0.0    
  0.0    0.0    4.7669999999999995    
  0.07407937877648134    0.13107823787366116    0.311804563293356    0.41651650756315456    0.31259587315658005    
  0.18086434766861512    0.1026104227364474    0.06483328717820526    0.04798478832152627    0.04110510753810313    
  0.039222853772895444    0.04110512781776334    0.047984752757771316    0.0648333594369038    0.10261033900752214    
  0.18086454420598558    0.3125956676401248    0.41651666563788226    0.3118044914945761    0.13107827055819368    
  0.07407937877648134    0.1310782167588728    0.19457097262454692    0.35563991781551885    0.41042976518377833    
  0.2949959294656706    0.1714595061559361    0.09943646744634917    0.06459410168113454    0.04906051718616754    
  0.042795324948538827    0.04110511532752865    0.042795309254417116    0.04906056151169978    0.06459402552937993    
  0.09943659581062494    0.1714593985979557    0.2949960724427747    0.4104295425771671    0.355640004749481    
  0.19457084420542428    0.1310782167588728    0.3118046257294398    0.35563987662709734    0.41614904172521217    
  0.3684024563240459    0.24724349465873446    0.14826332236406006    0.09228727325652007    0.06519286343148357    
  0.05342908430277783    0.049060540941931394    0.047984768279619394    0.04906054311412625    0.05342903962386076    
  0.06519293648006808    0.0922871738556958    0.14826345095395912    0.24724331242584857    0.3684026529234628    
  0.4161489275442291    0.3556399552752655    0.3118046257294398    0.41651633556349715    0.4104298689461297    
  0.368402371061794    0.2798107171854038    0.1868703214545512    0.12206161977776295    0.08651794901813349    
  0.07047439857476204    0.06519283996452943    0.06459411440493386    0.06483326975260685    0.06459409573507909    
  0.06519290625601705    0.0704743178152848    0.08651808801260283    0.12206146026318583    0.1868704455298718    
  0.27981056438336593    0.36840248229547995    0.41042979325320617    0.41651633556349715    0.3125960095606775    
  0.2949957065240951    0.24724360860385056    0.18687025951717584    0.13544962382100292    0.10293062481052428    
  0.0881832682528602    0.08651795460678639    0.09228730654436207    0.09943646758014717    0.10261044957470117    
  0.09943651200124627    0.0922872232175944    0.0865180305884703    0.08818316047775872    0.10293074835868049    
  0.13544949136623002    0.18687035930315055    0.24724354282809416    0.2949957629243192    0.3125960095606775    
  0.18086412978701485    0.17145978470503873    0.14826310333895323    0.12206173916121742    0.1029305992585076    
  0.09616874602331692    0.10293062428821452    0.12206165287013769    0.14826329777835454    0.17145954594486348    
  0.18086436461743705    0.1714595168194378    0.148263351625011    0.12206154530138064    0.10293075180152907    
  0.09616863082293413    0.10293070021958634    0.12206167400648806    0.148263183394975    0.17145969463691904    
  0.18086412978701485    0.1026106985474713    0.09943624750834333    0.09228750044614581    0.086517793024989    
  0.0881834040405353    0.10293054103007775    0.13544965341201004    0.18687024739268798    0.24724356741833528    
  0.2949958070606324    0.3125958997096199    0.2949958933725713    0.2472434760473654    0.18687040878818234    
  0.1354495262519999    0.10293065798763763    0.08818328487346491    0.08651787187274361    0.09228742869107374    
  0.0994362726159591    0.1026106985474713    0.06483299949862224    0.06459437184864425    0.06519258875048697    
  0.07047462218323566    0.0865177608823018    0.12206179119075516    0.18687015299174517    0.27981081039828576    
  0.3684023072034633    0.4104299534261074    0.4165162995818196    0.4104298310968974    0.3684024271343789    
  0.27981069765574335    0.18687033066018535    0.12206167160907277    0.0865178492191948    0.07047455452640997    
  0.06519266038525759    0.06459433627831601    0.06483299949862224    0.04798504345401297    0.04906024950923509    
  0.053429348934869295    0.06519259417582059    0.0922875768276024    0.14826304886072542    0.24724372763052646    
  0.3684022221515533    0.4161492572603387    0.35563971389905147    0.31180473465169545    0.3556398052114324    
  0.4161490783089531    0.368402359739276    0.24724361973893613    0.14826317152477997    0.09228744284075492    
  0.06519266228749396    0.05342930276664144    0.04906029264468737    0.04798504345401297    0.041104844354796805    
  0.042795610670792926    0.04906022148698956    0.0645944152994031    0.09943618485618866    0.17145988355176825    
  0.2949954883318209    0.4104301190210718    0.3556396664783962    0.19457111466247756    0.131078096764475    
  0.1945710601410264    0.35563975987661667    0.4104299140781067    0.2949957356385539    0.17145968181843396    
  0.09943627327410208    0.06459434069184382    0.04906028884434793    0.04279557674673774    0.041104844354796805    
  0.039223153202273646    0.041104833256927695    0.047985086509992406    0.06483296233879346    0.10261078768629595    
  0.18086398286921204    0.3125961980386585    0.41651615144140647    0.3118048656972965    0.1310780439293618    
  0.07407949179478177    0.1310780940732417    0.31180471872645127    0.41651628058052925    0.312596071134192    
  0.18086415340285858    0.102610675643126    0.06483305993155232    0.04798503691224597    0.041104858015487994    
  0.039223153202273646    0.041104851883875304    0.04279560055085717    0.04906024656195932    0.06459439508020846    
  0.0994361997237148    0.17145985822364535    0.29499555091909585    0.4104300795900381    0.35563965696415467    
  0.1945710764013772    0.13107812462501062    0.19457103642541654    0.35563979248408156    0.4104298972438805    
  0.2949957573655728    0.1714596776220811    0.09943629403399473    0.06459431079457055    0.049060291759003366    
  0.04279557196618415    0.041104851883875304    0.047985033173203816    0.049060270037837396    0.053429335020828535    
  0.06519259260899761    0.0922875404832481    0.1482630673556068    0.24724367903737363    0.3684022551474932    
  0.41614923805897663    0.35563986571344214    0.3118046481649512    0.3556398409496243    0.4161490710058363    
  0.36840244456953636    0.24724356047176652    0.14826319883088213    0.09228741497945848    0.06519269003396261    
  0.05342928967073259    0.049060316764027764    0.047985033173203816    0.06483301597639327    0.06459434219599722    
  0.06519261344866996    0.07047457584128103    0.0865177909373397    0.12206175584421959    0.18687021535207532    
  0.27981081984113615    0.36840234574575714    0.4104298450346773    0.4165163959163047    0.41042973998169885    
  0.3684024728862769    0.27981062329299294    0.18687038073267195    0.12206162916593886    0.08651788170801418    
  0.07047450770399753    0.06519267267916462    0.06459433055693815    0.06483301597639327    0.10261064477568699    
  0.09943626841720692    0.09228746365163061    0.0865178382658606    0.08818338158571006    0.10293054950998136    
  0.13544959884718433    0.18687032309480847    0.24724351868010808    0.29499585258491096    0.31259584924909334    
  0.29499594082289043    0.24724340021930286    0.18687046130115836    0.13544951317599047    0.10293069922965561    
  0.0881832561066978    0.0865178951832015    0.09228742261819241    0.09943631679488901    0.10261064477568699    
  0.18086418515632602    0.17145970284113257    0.14826317237290096    0.12206170036411741    0.10293062497651735    
  0.09616868473992533    0.10293065995305314    0.12206162087071139    0.1482632852144746    0.17145951906769505    
  0.18086437356397841    0.17145946002325418    0.14826342521967736    0.12206149928568193    0.10293076902105092    
  0.09616861562159225    0.10293074509465641    0.12206162428667251    0.148263268615626    0.17145964774931297    
  0.18086418515632602    0.31259593931125684    0.2949958067540817    0.24724358318058764    0.1868703116400976    
  0.13544958995728867    0.10293065999333341    0.0881832356651913    0.08651796179241068    0.09228729105326436    
  0.09943651294062669    0.10261041699948956    0.09943653128160725    0.09228720848487133    0.08651806578694454    
  0.0881831253802354    0.10293079102267001    0.1354494265868912    0.18687041781122138    0.2472434728031964    
  0.29499578296743806    0.31259593931125684    0.41651637336386166    0.41042978792370943    0.3684023837940655    
  0.2798106575577337    0.1868703519187325    0.1220615790880565    0.08651797796359816    0.07047437865617764    
  0.06519286641958653    0.0645941059208341    0.06483328716762014    0.06459405792016608    0.06519292398766867    
  0.0704742953127329    0.08651812179012582    0.12206145855735549    0.18687048867970288    0.279810524163914    
  0.3684025973009813    0.41042975888580263    0.41651637336386166    0.31180456406861556    0.35563993844252767    
  0.41614904714082906    0.36840251130763935    0.24724343603147542    0.1482633611117848    0.09228725457501374    
  0.06519287622683953    0.05342908375376793    0.04906054263184128    0.04798476069802135    0.04906057186740317    
  0.0534290180280345    0.06519292921454294    0.09228718721842981    0.14826347593001662    0.24724327374276045    
  0.36840263603548085    0.4161488872102027    0.35564004042053365    0.31180456406861556    0.1310782423808649    
  0.19457088911315057    0.3556398885441438    0.4104297098417289    0.2949959589133639    0.17145949642957778    
  0.09943650156030061    0.06459412105829875    0.04906051094515649    0.04279531211958543    0.04110512210250455    
  0.04279529196659796    0.049060571711739526    0.06459401239268006    0.09943660179743216    0.1714593061768982    
  0.29499608341429984    0.41042953329954784    0.3556400389715105    0.1945708564836557    0.1310782423808649    
  0.07407937877648134    0.13107823787366116    0.311804563293356    0.41651650756315456    0.31259587315658005    
  0.18086434766861512    0.1026104227364474    0.06483328717820526    0.04798478832152627    0.04110510753810313    
  0.039222853772895444    0.04110512781776334    0.047984752757771316    0.0648333594369038    0.10261033900752214    
  0.18086454420598558    0.3125956676401248    0.41651666563788226    0.3118044914945761    0.13107827055819368    
  0.07407937877648134    0.13107822116757956    0.19457090778555827    0.35563990277466134    0.41042973200360516    
  0.2949958926589088    0.17145948667430871    0.09943646160830268    0.06459411197283628    0.0490605171338875    
  0.042795306591428474    0.0411051148199466    0.04279529861370366    0.04906057793227741    0.0645940313911152    
  0.0994366135667855    0.1714593669231673    0.29499612451272933    0.4104295924306348    0.355640022469137    
  0.19457084623527446    0.13107822116757956    0.19457089461705923    0.2566444577512505    0.38688856322324555    
  0.3990303927250234    0.27773554394050887    0.16256326925949974    0.09636322218426126    0.06426739607310937    
  0.04998656987972761    0.04430943402974562    0.04279531224668892    0.04430947086037136    0.04998651400358767    
  0.06426744851559212    0.09636313656748452    0.1625634322760117    0.2777353286912269    0.3990305062611229    
  0.3868883983226797    0.25664450615766315    0.19457089461705923    0.35563989285959674    0.3868885619283307    
  0.4159432822673264    0.3497628316218085    0.2321525331396275    0.14073435337950727    0.08937695294039737    
  0.06452530234848022    0.053848542529217044    0.04998656854236516    0.04906050815328197    0.04998653821951575    
  0.05384861293978521    0.06452522924602483    0.08937706335146295    0.14073421155405036    0.23215268229676075    
  0.3497626577316168    0.41594341334937723    0.38688856727874427    0.35563989285959674    0.4104298539957159    
  0.3990303047137398    0.3497629107056707    0.2625290738096334    0.17583848543614855    0.11619020377418567    
  0.0835851135331135    0.06904399874649689    0.0645253255308325    0.06426739161368346    0.06459410322577945    
  0.06426741306657197    0.06452526198630482    0.0690440679645381    0.08358504060929177    0.11619033112957383    
  0.17583833822948425    0.2625291958445875    0.3497627875045867    0.3990303579377089    0.4104298539957159    
  0.29499569281113247    0.27773568137629717    0.2321523692666095    0.17583857969652114    0.12829619327320216    
  0.09827211548932518    0.08478590912697052    0.08358516169320972    0.08937694586500895    0.09636327171756061    
  0.09943646040587573    0.09636323495694502    0.0893769887512203    0.08358506472817875    0.0847860196372259    
  0.09827200974011072    0.12829628602355703    0.1758384222777079    0.23215249856152737    0.2777356015260164    
  0.29499569281113247    0.17145973252946048    0.16256306940803666    0.14073448649048467    0.11619009435495053    
  0.09827222648069744    0.0919317823159071    0.09827215307203124    0.1161901998103722    0.14073439734542428    
  0.16256322992285313    0.1714595348801829    0.16256330895436286    0.14073431250659388    0.11619029605032159    
  0.09827205187960349    0.09193190491630752    0.09827210982024594    0.1161901937668462    0.14073443241703118    
  0.16256311647786728    0.17145973252946048    0.09943623844790393    0.09636349563966275    0.08937673425420709    
  0.08358531613044447    0.08478578565518288    0.0982722088388473    0.12829613763439512    0.17583854939887694    
  0.23215247198539352    0.27773554307610177    0.2949958076899691    0.27773548225702127    0.23215256708912269    
  0.17583844157873948    0.128296275534858    0.0982721102903775    0.0847858801688353    0.083585229184155    
  0.08937680542584742    0.09636346852773034    0.09943623844790393    0.06459435639697421    0.06426713169363331    
  0.0645255583490551    0.06904378430482765    0.08358532986230202    0.1161900235120244    0.17583863875960373    
  0.2625289440327613    0.3497629895534253    0.39903030819214513    0.41042985372831725    0.3990303033270839    
  0.34976285126061496    0.2625290879348399    0.17583852460473773    0.11619014436988191    0.08358520959522671    
  0.0690438704008474    0.06452549221050212    0.06426717555717379    0.06459435639697421    0.04906022840591505    
  0.04998683173738742    0.05384828422118067    0.06452558201588715    0.08937668021497601    0.14073459873114322    
  0.23215227090830973    0.3497630781365947    0.4159430768880628    0.3868887466291835    0.35563975180676455    
  0.3868887012140396    0.4159431965430126    0.3497629006594208    0.23215249362395846    0.14073446949210383    
  0.08937678961424571    0.06452550417462272    0.053848341263593835    0.0499868359481921    0.04906022840591505    
  0.04279559862914784    0.04430917053638669    0.04998682922561863    0.06426711039332748    0.09636357006738108    
  0.1625629489819468    0.27773577259019494    0.39903010449816495    0.38688878374075264    0.25664424895060917    
  0.1945710767590864    0.25664431907786356    0.3868887280699242    0.3990302322844098    0.27773566342134304    
  0.16256304799884885    0.09636344110026893    0.0642671578262941    0.049986804606369645    0.04430917237563822    
  0.04279559862914784    0.04110483756952009    0.04279560879401556    0.049060223297228575    0.06459441632311805    
  0.09943616393660813    0.17145984816016227    0.29499550584050205    0.4104301235113751    0.35563963008076804    
  0.1945710768861152    0.13107806481828826    0.19457104716641066    0.3556397699329246    0.410429872052277    
  0.2949957148907089    0.17145970683292008    0.09943626494091692    0.06459435988038566    0.04906028222519994    
  0.04279558919797795    0.04110483756952009    0.04279558610869801    0.044309167210670124    0.04998682656653055    
  0.06426710190961528    0.09636356858007127    0.16256294394429457    0.2777357886551372    0.3990300586006059    
  0.3868887811094661    0.2566442349145614    0.194571076898804    0.2566443057082033    0.38688869200297143    
  0.39903030029179076    0.2777356256186284    0.16256311366769408    0.09636341787750938    0.06426716914621597    
  0.049986791161882316    0.04430918091125057    0.04279558610869801    0.04906025276356717    0.04998682616890707    
  0.053848299189215645    0.06452554757997551    0.08937670388194327    0.14073459552376172    0.23215230482110868    
  0.34976301206332033    0.4159431768017975    0.38688879766264583    0.3556397414700581    0.38688864669703404    
  0.4159433136702393    0.34976288503729097    0.2321524991835361    0.14073443507890232    0.08937681506992316    
  0.06452547947408496    0.05384835631246031    0.04998680271126821    0.04906025276356717    0.06459434261574416    
  0.06426716592084465    0.06452552899980604    0.069043817856313    0.0835853258905411    0.1161900787145305    
  0.17583858425595378    0.26252901325607425    0.3497629356703367    0.3990303731632739    0.4104297754963659    
  0.39903038222427534    0.34976278705945146    0.2625291049877537    0.1758384740989575    0.11619017848738389    
  0.08358519666670661    0.06904389135929655    0.06452546269527916    0.06426719385351404    0.06459434261574416    
  0.09943626734740531    0.0963634524762809    0.0893767522294218    0.08358529045291724    0.0847858201969655    
  0.09827215965013447    0.12829617523552997    0.17583850076515056    0.23215251511854257    0.27773552032131876    
  0.2949958783831493    0.27773549599139924    0.23215260859624312    0.1758383997486028    0.12829631146241396    
  0.09827207111230095    0.08478589756482352    0.08358519309211103    0.089376829827428    0.09636344428272042    
  0.09943626734740531    0.17145969045994286    0.16256312518311108    0.14073448017655749    0.116190127916852    
  0.09827217582076779    0.09193179606509594    0.09827211594655458    0.1161902310779509    0.14073433843746094    
  0.16256328676991091    0.17145947489490748    0.16256334567868155    0.1407342703725685    0.11619032063530672    
  0.09827199804881898    0.09193194630931636    0.09827207024955832    0.11619024495508971    0.14073442602290856    
  0.16256313743454429    0.17145969045994286    0.2949957322084317    0.2777356246006857    0.2321524269713148    
  0.17583851183427301    0.1282962564044905    0.0982720883878325    0.08478591950039739    0.08358509938148202    
  0.08937696651865334    0.09636323124367074    0.09943649674165206    0.0963631894125886    0.08937703030021596    
  0.08358502134269273    0.0847860370109707    0.09827197673081998    0.12829632222246146    0.17583838165776963    
  0.23215252044650156    0.27773554343462226    0.2949957322084317    0.41042975221635997    0.399030319398617    
  0.34976285514289923    0.26252911681539787    0.17583844544715652    0.1161902351276713    0.08358509847727044    
  0.06904403413130719    0.06452529395717348    0.06426742783302519    0.06459407056523712    0.06426745139130675    
  0.06452523166758362    0.0690441246009578    0.08358502289654211    0.11619036678688249    0.1758382757350195    
  0.2625292637210105    0.3497627389997381    0.39903043005699423    0.41042975221635997    0.3556398941784242    
  0.3868885592121519    0.4159433682373774    0.34976279968015345    0.23215257017810287    0.14073430909423368    
  0.08937698259197342    0.06452529793316919    0.053848576446100964    0.04998655665360273    0.049060546082135836    
  0.04998652736455632    0.053848628775675415    0.06452521904318281    0.08937709764389609    0.14073418386606903    
  0.23215271664081719    0.3497626143172122    0.4159434636871272    0.3868885243349937    0.3556398941784242    
  0.19457088997389818    0.2566444832705413    0.38688852142204944    0.3990304165755057    0.2777355052817254    
  0.16256330516398815    0.09636324637609082    0.0642674067298975    0.049986554266004    0.044309462060908814    
  0.04279531389189145    0.04430947077434692    0.04998649565226103    0.06426746518765755    0.09636312609483144    
  0.16256345494986965    0.27773526673526    0.3990305651996399    0.38688839309283385    0.2566445047465748    
  0.19457088997389818    0.13107822116757956    0.19457090778555827    0.35563990277466134    0.41042973200360516    
  0.2949958926589088    0.17145948667430871    0.09943646160830268    0.06459411197283628    0.0490605171338875    
  0.042795306591428474    0.0411051148199466    0.04279529861370366    0.04906057793227741    0.0645940313911152    
  0.0994366135667855    0.1714593669231673    0.29499612451272933    0.4104295924306348    0.355640022469137    
  0.19457084623527446    0.13107822116757956    0.3118045672599048    0.35563990376327587    0.4161490132039744    
  0.3684024818952293    0.24724347466299193    0.1482633126347697    0.09228725118837178    0.06519286647284417    
  0.053429067785480074    0.04906051489284993    0.047984775327938656    0.049060575315628296    0.05342903361680979    
  0.06519293747549576    0.09228716432486515    0.1482634731287897    0.2472432985863591    0.3684026938044957    
  0.416148870172345    0.3556399819129026    0.3118045672599048    0.35563991396468786    0.38688858359660255    
  0.41594331675449414    0.3497628185804919    0.23215258217766882    0.14073433656539452    0.08937695841826261    
  0.06452532010091362    0.053848580800751715    0.049986550959836715    0.04906054573707151    0.049986525588918904    
  0.053848613011030985    0.06452520816103803    0.08937708291436178    0.14073420042544343    0.2321527365041632    
  0.3497625720324551    0.4159434142004364    0.3868885434222901    0.35563991396468786    0.41614900499036706    
  0.4159433218598159    0.38312574889566525    0.2941472727681102    0.19373288129252128    0.12235729033211437    
  0.08266735013350587    0.06370395451002328    0.05611896153961596    0.05384857026994815    0.053429063333107256    
  0.053848606063733956    0.0561189085297533    0.06370400673086689    0.08266726053708656    0.12235743233640743    
  0.19373273732286625    0.294147444204471    0.38312560903846005    0.4159433981495418    0.41614900499036706    
  0.36840233529328903    0.3497629302358245    0.2941472285724445    0.21726264177239293    0.14810712200129897    
  0.10177652183133655    0.07672198146156624    0.06612191574245517    0.06370392840975185    0.06452530152723385    
  0.06519286602059171    0.06452526552623639    0.06370399427038015    0.06612185101423569    0.07672211805952034    
  0.10177638195962073    0.1481072480875592    0.21726251017951498    0.29414733104665436    0.34976287118233    
  0.36840233529328903    0.2472436273575937    0.23215242715288545    0.19373299989448972    0.14810704469121747    
  0.1103316700325561    0.08672462417883087    0.07659919626331892    0.07672200359415422    0.08266736779492573    
  0.08937695710983933    0.09228727956666008    0.0893769916114283    0.0826673186877592    0.07672207492292969    
  0.07659910527555573    0.08672475083848973    0.11033153191088658    0.14810715496363255    0.19373291170444187    
  0.2321524596077808    0.2472436273575937    0.1482630991989362    0.14073458915131168    0.12235711658969439    
  0.10177665321803854    0.08672461491866446    0.08137024349481332    0.08672462087520498    0.10177656026763372    
  0.12235728162614139    0.14073435649269525    0.14826330586026606    0.14073431375130865    0.12235735992213109    
  0.1017764482479259    0.08672474626108971    0.08137014551784287    0.08672471183655542    0.10177656531267357    
  0.12235721108567627    0.1407344887239096    0.1482630991989362    0.09228750804799143    0.0893767520419338    
  0.08266754667945987    0.07672184855589617    0.07659932798708036    0.08672454340828781    0.11033168952589033    
  0.1481070405071362    0.1937329383415688    0.2321524561927811    0.24724354470515947    0.23215255463792508    
  0.19373283862867136    0.14810717201557422    0.11033158874752981    0.08672466129096265    0.07659921473579283    
  0.07672193123980883    0.08266747979138711    0.08937676998676412    0.09228750804799143    0.06519259987743557    
  0.06452554913144241    0.06370372265675099    0.0661221324403656    0.07672180599593582    0.1017766893777567    
  0.14810695107779331    0.2172627426862562    0.2941471594087525    0.34976295249215916    0.36840234891963825    
  0.34976290051296927    0.29414727089410997    0.217262637425729    0.14810712112219404    0.10177656380606605    
  0.0767218966003116    0.06612206491604125    0.06370376126756547    0.06452551422749397    0.06519259987743557    
  0.05342933187095112    0.05384830199078999    0.05611922561792608    0.06370369726227552    0.08266762183343036    
  0.12235705281986697    0.19373308238652084    0.2941470772328759    0.38312592781083615    0.4159431510034306    
  0.4161491815665376    0.4159431907321558    0.383125810971638    0.29414718831589787    0.19373299687227144    
  0.12235718165417271    0.08266748936867896    0.06370376804540634    0.05611916469933235    0.05384834603141999    
  0.05342933187095112    0.04906023669347131    0.04998686041768692    0.05384826535160897    0.06452559527237155    
  0.08937668204005916    0.14073465690942497    0.23215221576508577    0.3497631089792559    0.4159430152692406    
  0.3868888105843974    0.3556397036593291    0.3868887365836886    0.4159432035958094    0.3497629465223405    
  0.23215241888579063    0.14073448716904108    0.08937675553093832    0.0645255096370049    0.05384831841213718    
  0.04998682277248659    0.04906023669347131    0.04798508583386987    0.04906023929381076    0.05342937236173478    
  0.06519255818599684    0.09228761146236411    0.14826296264125347    0.24724378519043438    0.3684021416572652    
  0.4161492762040624    0.3556396657301679    0.31180479543972106    0.3556397257960674    0.4161491758004816    
  0.3684023113902226    0.24724365909450963    0.1482631397635565    0.0922874640292904    0.06519265825488768    
  0.053429318815298645    0.04906025619391169    0.04798508583386987    0.04906023415256746    0.04998684279846886    
  0.0538482810689139    0.06452557421145018    0.08937669756548516    0.1407346217908754    0.2321522483130966    
  0.34976308158182995    0.4159430716147742    0.3868887861324881    0.3556397444456828    0.3868886625343226    
  0.41594318987327683    0.3497629068727048    0.23215245458518674    0.14073446571261802    0.08937679080133426    
  0.0645255023750195    0.05384832203740029    0.04998681706526976    0.04906023415256746    0.05342931468027961    
  0.05384831426226198    0.05611919850165456    0.06370370235631179    0.0826675864908634    0.12235710290088136    
  0.19373305974963026    0.29414711031956015    0.38312590254117906    0.4159432810403839    0.4161491022890063    
  0.4159433083043651    0.38312574946190014    0.2941472287785535    0.19373296830086886    0.1223571925269296    
  0.08266746989832419    0.06370378757022298    0.056119146589929    0.05384834334888089    0.05342931468027961    
  0.0651926165733136    0.06452554748251187    0.06370371959281874    0.06612210361159289    0.07672185476980013    
  0.10177665879687395    0.14810700642493027    0.21726273420416573    0.29414714807135933    0.3497629291188667    
  0.3684023600020831    0.34976281495872746    0.29414732596767773    0.21726253581729837    0.14810716565643298    
  0.10177653310049699    0.07672192967835417    0.06612204117813862    0.06370378444766296    0.06452552104626536    
  0.0651926165733136    0.09228746253754513    0.0893767865864693    0.08266752688935741    0.07672188413039617    
  0.07659929684500859    0.08672458190710537    0.1103316577219394    0.14810710627614135    0.19373290525191006    
  0.23215256467760945    0.24724345661936037    0.23215261258124756    0.19373280381277874    0.14810723053984062    
  0.11033155736344373    0.08672469924569723    0.07659916913458971    0.07672195791331816    0.08266746349363123    
  0.08937681940248383    0.09228746253754513    0.1482631721087121    0.14073450761022135    0.12235716515001228    
  0.10177660405899515    0.086724645076277    0.08137019527406267    0.08672465918761753    0.10177651814846154    
  0.12235730944004748    0.14073431600783293    0.14826336452441735    0.14073430582336915    0.1223573797716161    
  0.101776416949744    0.08672477922415936    0.0813701180343548    0.0867247404365147    0.10177653050414331    
  0.12235724249960207    0.1407344498558087    0.1482631721087121    0.24724355836857823    0.2321524656119242    
  0.19373295875176605    0.1481070945799183    0.1103316427279556    0.0867246650251782    0.07659915541404304    
  0.07672201900611599    0.08266736496027553    0.08937699220976521    0.09228723878487032    0.08937702732792974    
  0.08266726562445835    0.07672210530169093    0.07659906737075341    0.08672478208098418    0.1103314969515141    
  0.14810719376464856    0.1937328526263836    0.23215249153192596    0.24724355836857823    0.368402433243183    
  0.34976284779693534    0.2941472144352    0.21726258359697895    0.14810713422190808    0.10177648501658752    
  0.07672203572372817    0.0661219058633321    0.06370396702976155    0.06452527971698985    0.0651928611258782    
  0.0645252524691297    0.0637040240210949    0.0661218167821323    0.07672215043980944    0.10177636710335758    