#     DFTpy    
  CRYSTAL 
    
  PRIMVEC    
  4.132965517241379    0.0    0.0    
  0.0    4.132965517241379    0.0    
  0.0    0.0    4.132965517241379    
  PRIMCOORD    
  4    1    
  Si    0.0    0.0    0.0    
  Si    0.0    2.0664827586206895    2.0664827586206895    
  Si    2.0664827586206895    0.0    2.0664827586206895    
  Si    2.0664827586206895    2.0664827586206895    0.0    
  BEGIN_BLOCK_DATAGRID_3D    
  3d_datagrid_density    
  BEGIN_DATAGRID_3D#0    
  19    19    19    
  0.0    0.0    0.0    
  4.132965517241379    0.0    0.0    
  0.0    4.132965517241379    0.0    
  0.0    0.0    4.132965517241379    
  0.06097668373842855    0.10621066211037528    0.2589772993003144    0.38414719299626154    0.3343667595685993    
  0.2283211183626997    0.1543568487800009    0.11491737129381574    0.09681548808742803    0.09167672530519996    
  0.09681547586746259    0.11491741562224521    0.1543568682995172    0.22832113338795304    0.33436680483856385    
  0.38414720725924817    0.2589773438227745    0.10621069343249542    0.06097668373842855    0.1062106936477052    
  0.15787367107779662    0.30157235622520734    0.38861092552751314    0.3240127697765703    0.22274028670520965    
  0.15428585340215675    0.11795739623448435    0.10142531146579659    0.09681549308862394    0.101425297643795    
  0.11795745571253129    0.1542858844133052    0.2227402797466133    0.32401280223153495    0.3886109361334373    
  0.3015723567678955    0.15787364160538614    0.1062106936477052    0.25897729872767805    0.3015723355535995    
  0.37835027493494816    0.37653339836149147    0.29355681511568865    0.20986278262650446    0.1570773667471358    
  0.12976675944853425    0.11795743790346906    0.11491740229047613    0.11795740398312866    0.12976676854928423    
  0.1570773746391522    0.20986277462163958    0.29355693281880785    0.37653338275167497    0.3783502688221833    
  0.301572343440376    0.25897729872767805    0.3841472411640442    0.38861095773959103    0.376533370685774    
  0.3225583592701568    0.25252865510249684    0.19904347309350817    0.1693214153775003    0.15707734174793372    
  0.15428585251462157    0.15435690789884132    0.15428585683217405    0.15707739480813201    0.1693213760394886    
  0.19904348423929702    0.2525286639704374    0.3225584335429493    0.3765333295182716    0.3886109845060589    
  0.3841472411640442    0.33436678671047193    0.3240127983871531    0.2935568928722913    0.2525286344887412    
  0.2179308677810874    0.1998899332451488    0.1990434766614809    0.20986273911908535    0.22274033726599432    
  0.22832113850300736    0.22274030666791153    0.20986278179070766    0.1990434589439392    0.1998898834601898    
  0.21793085091901543    0.2525286674553654    0.29355688158082693    0.3240127581420667    0.33436678671047193    
  0.2283211353062543    0.22274030427693864    0.2098627553648134    0.19904345709444338    0.19988988795714527    
  0.21793085641518017    0.2525286507070456    0.2935568620750087    0.3240127937410522    0.3343667616500213    
  0.32401276361928416    0.2935568836989728    0.2525286422965095    0.21793082628610375    0.19988992041385434    
  0.1990434361652104    0.20986273984676435    0.22274027118025339    0.2283211353062543    0.15435691955680286    
  0.15428586696257413    0.15707738339688457    0.16932137641781686    0.19904346587082833    0.2525286412408339    
  0.32255844829101143    0.37653330018829595    0.3886109435252144    0.3841471918410436    0.3886109270264261    
  0.3765334146993432    0.32255839086681654    0.2525286829655925    0.19904345701698117    0.1693214078176521    
  0.15707735118662536    0.1542858642954108    0.15435691955680286    0.11491741208301491    0.11795741312754496    
  0.12976676929035988    0.1570774067053274    0.20986275330004214    0.2935569221494136    0.3765334121389251    
  0.37835027477694877    0.3015723418016489    0.2589773434870914    0.30157238836491135    0.3783502439930619    
  0.3765333538262881    0.29355683085311846    0.20986279294726337    0.1570773712171387    0.12976673887291684    
  0.11795739748772614    0.11491741208301491    0.09681547220958747    0.10142530185470792    0.11795739941546224    
  0.15428585359665484    0.22274028369788662    0.3240127969443563    0.3886108929059805    0.30157236902945805    
  0.15787368187923934    0.10621069903481076    0.15787363645717087    0.3015724010654746    0.3886109340387247    
  0.32401276617302477    0.22274033529022302    0.15428584406773888    0.11795739884902431    0.1014253233612761    
  0.09681547220958747    0.09167670498601624    0.09681549597873267    0.11491738593808601    0.15435686284497752    
  0.22832112479513633    0.3343667999533815    0.3841471805723184    0.25897725971141994    0.10621067340187045    
  0.06097667573922807    0.10621068364845518    0.25897732513497584    0.3841472172301466    0.3343667877172842    
  0.2283211311412905    0.15435688110485243    0.11491740777462638    0.09681550760910483    0.09167670498601624    
  0.09681548369104896    0.10142527610610191    0.11795740939783077    0.15428586641484182    0.2227402975251612    
  0.32401282717598967    0.3886109349212377    0.30157236490935874    0.15787367170198885    0.10621068351432575    
  0.1578736448504553    0.30157234985691633    0.38861095817718355    0.3240127526808925    0.22274031364913136    
  0.1542858689181067    0.11795739017833594    0.10142528218799132    0.09681548369104896    0.11491737594962444    
  0.11795739067144491    0.1297667442392723    0.1570773764563433    0.2098627057214666    0.2935568860393687    
  0.37653337977707046    0.3783501611979522    0.3015724031943343    0.2589773270343428    0.30157232573667786    
  0.3783503308592538    0.3765333916370222    0.29355687412690823    0.20986277665514916    0.1570773649488654    
  0.1297667598095501    0.11795741543567999    0.11491737594962444    0.15435688666383302    0.15428585045775225    
  0.1570773999800734    0.16932139494159432    0.1990434787852332    0.2525286634325845    0.3225583924953487    
  0.37653331353698416    0.3886109147334078    0.38414723860402905    0.3886109127800955    0.37653342889835756    
  0.3225583816203884    0.2525286842601926    0.19904350327805212    0.16932140148873964    0.1570773499106217    
  0.15428589373993326    0.15435688666383302    0.2283211449046743    0.22274029847478663    0.20986275269435534    
  0.19904347473432693    0.19988992039894635    0.2179308546285661    0.25252861384522485    0.2935568798720031    
  0.32401279553392887    0.33436681460791334    0.32401277232288256    0.2935569270993186    0.25252867100627335    
  0.2179308245378491    0.19988990296772138    0.19904344236649926    0.20986273073626124    0.22274029161549208    
  0.2283211449046743    0.3343667246011711    0.324012750830633    0.29355684957124895    0.25252865198549784    
  0.21793079405774532    0.1998899371099751    0.1990434589987433    0.2098627038225577    0.22274030169162323    
  0.22832110489955454    0.22274031962616772    0.20986279443254474    0.1990434823171402    0.19988987592486354    
  0.21793086915753335    0.2525286241621271    0.2935568658070816    0.32401274531784413    0.3343667246011711    
  0.3841472594698084    0.3886109759024844    0.3765333850780984    0.3225583337533367    0.2525286281346133    
  0.19904347315822898    0.169321407261956    0.15707733898486453    0.15428584772881812    0.1543568647371185    
  0.15428583997866077    0.15707737327724247    0.1693213730636574    0.19904347852554585    0.2525286618500888    
  0.32255837457222303    0.37653337040856366    0.3886109730474445    0.3841472594698084    0.25897731838780025    
  0.30157240807540125    0.3783502846434628    0.3765334016411089    0.29355694499312857    0.20986279282913536    
  0.1570773641996177    0.12976675029955895    0.11795739493515438    0.11491740349561806    0.11795740201033643    
  0.12976678625379667    0.1570773647239691    0.20986270945659377    0.2935568743759341    0.3765333954540557    
  0.3783502707018717    0.30157233861359223    0.25897731838780025    0.10621067867154159    0.1578736660513115    
  0.3015723421810041    0.3886109363398629    0.32401276183268574    0.2227403274274046    0.15428587075044872    
  0.11795736797840506    0.10142532121553895    0.09681549457499525    0.10142527430592857    0.11795741167929266    
  0.1542858589020943    0.22274031221110138    0.3240127832108751    0.3886109283233322    0.30157233979412634    
  0.1578736552309674    0.10621067867154159    0.06097668373842855    0.10621066211037528    0.2589772993003144    
  0.38414719299626154    0.3343667595685993    0.2283211183626997    0.1543568487800009    0.11491737129381574    
  0.09681548808742803    0.09167672530519996    0.09681547586746259    0.11491741562224521    0.1543568682995172    
  0.22832113338795304    0.33436680483856385    0.38414720725924817    0.2589773438227745    0.10621069343249542    
  0.06097668373842855    0.10621069268941355    0.15787364311924032    0.3015723751112955    0.3886108892865584    
  0.32401273159952015    0.22274029340723325    0.15428581924882542    0.1179574061162714    0.10142528459715802    
  0.09681549990282422    0.1014253044356338    0.11795741171514328    0.1542858186398475    0.22274031553566645    
  0.3240127661934981    0.38861091670079756    0.3015723765274257    0.15787370053006664    0.10621069268941355    
  0.1578737023820984    0.2104895852044652    0.33560627986477476    0.387753419140894    0.31312636374401626    
  0.21711985862412855    0.15388068926294707    0.12051843600221498    0.10551910487706616    0.10142528505255441    
  0.10551907541979448    0.1205184766542657    0.15388070693897357    0.21711979253830654    0.3131263807009309    
  0.38775337267898047    0.3356062437401012    0.2104895671069478    0.1578737023820984    0.30157233161776553    
  0.335606252449698    0.38762049753536876    0.36627151539988356    0.28233345746010496    0.20407488685498681    
  0.15561077546750912    0.13089854292806838    0.1205184671700085    0.11795742131826557    0.12051844443471965    
  0.1308985581090589    0.15561078418407998    0.2040749218067168    0.2823335401752175    0.36627148225323297    
  0.3876205513614765    0.33560627925100706    0.30157233161776553    0.3886109298415939    0.3877533908467122    
  0.36627156434314695    0.30929060784125206    0.2423634332672591    0.1928448118148392    0.16600009846292849    
  0.15561077957149297    0.1538806739962063    0.1542858630260894    0.15388068876357155    0.15561083386571936    
  0.16600005591749686    0.19284482358727426    0.24236341924893867    0.3092906514951344    0.3662714705204561    
  0.38775344068582784    0.3886109298415939    0.3240127625813601    0.313126354063909    0.28233346735563797    
  0.24236342856533885    0.20947139737205245    0.19283871319741389    0.19284479994616835    0.20407489326422895    
  0.21711984737802806    0.22274029072379492    0.21711979994127314    0.20407493359967654    0.19284478711673977    
  0.19283869173925475    0.20947136241008454    0.24236343823076106    0.2823334782522944    0.3131263237542887    
  0.3240127625813601    0.2227402622749099    0.2171198378841346    0.20407487791988088    0.19284480503182416    
  0.19283868802319484    0.20947135947401474    0.2423634617750249    0.28233348012347337    0.31312638945559673    
  0.32401279979096753    0.3131263520743015    0.28233348223502114    0.2423634462817472    0.20947133362749348    
  0.19283872898910487    0.1928447801083742    0.20407490350617602    0.21711983348607167    0.2227402622749099    
  0.1542858577923333    0.15388068195466598    0.15561080206258682    0.1660000672150094    0.19284482469251396    
  0.24236342160781646    0.30929070007991755    0.36627138906004403    0.3877534191786045    0.38861094651620526    
  0.3877533681044657    0.36627150127109065    0.30929064412726776    0.24236347047481782    0.19284481914892088    
  0.1660000314429431    0.15561078206682574    0.15388070943793894    0.1542858577923333    0.11795742225021515    
  0.12051846215525656    0.1308985781251174    0.15561080505145275    0.20407491564832145    0.2823335216292768    
  0.36627149914257107    0.38762061073899534    0.33560627755451006    0.3015723423341173    0.3356062531841705    
  0.3876205221348155    0.3662715062724355    0.28233351191632095    0.20407491804994393    0.1556108067010623    
  0.13089856244919    0.12051841347131548    0.11795742225021515    0.1014252917552223    0.10551908142821967    
  0.12051844765861315    0.15388070241286653    0.21711979526460076    0.31312638772597623    0.38775337565417756    
  0.3356062892019643    0.21048965990745153    0.15787367398261087    0.21048957411157457    0.33560630999588537    
  0.38775336612149963    0.3131263918096626    0.21711983242265673    0.15388066081062737    0.12051845929209469    
  0.10551911286360453    0.1014252917552223    0.09681549321554196    0.10142531485867456    0.11795740674115114    
  0.15428580855236534    0.22274026162999205    0.3240127585166137    0.3886108582128155    0.3015722956378358    
  0.1578736926721492    0.10621067853144915    0.15787365804767717    0.3015724033344032    0.3886109185441944    
  0.32401280985706027    0.2227403268616854    0.15428581993663004    0.11795742209137415    0.10142533453682855    
  0.09681549321554196    0.10142529829753455    0.10551909350215144    0.12051848992290481    0.15388067489578894    
  0.21711989751911875    0.3131264140058024    0.38775338718289265    0.3356062345211384    0.21048959753422158    
  0.15787366996558133    0.21048958210795463    0.3356062650254668    0.3877534003492502    0.31312629890038884    
  0.21711983560760745    0.15388066933815134    0.12051842346577923    0.10551907411600689    0.10142529829753455    
  0.11795744683759675    0.12051844730800956    0.1308985467674012    0.15561077345507424    0.20407486550943923    
  0.28233351541608476    0.36627151514438844    0.387620538447276    0.33560631189020074    0.3015723973088585    
  0.33560624964615504    0.3876205703834025    0.3662715153407225    0.28233345148738953    0.20407491482589116    
  0.1556107703369    0.13089852973956156    0.120518420558331    0.11795744683759675    0.1542858705917037    
  0.15388070087490088    0.15561083460366387    0.16600004414415026    0.19284484697448323    0.24236342629504481    
  0.30929067738269433    0.36627142377413996    0.3877533899879704    0.38861096130873585    0.387753348957071    
  0.3662715428231592    0.30929062536894797    0.2423634725623669    0.19284482791692492    0.16600006177497936    
  0.15561079091562907    0.15388071838400538    0.1542858705917037    0.2227402884667019    0.21711986898847407    
  0.2040748979532049    0.19284483448636522    0.1928387424487477    0.20947132419362582    0.24236339494783526    
  0.28233344256274406    0.3131263944360374    0.3240128326902881    0.3131263633513337    0.2823335063151663    
  0.2423634264352082    0.20947131959159354    0.19283873572689145    0.19284478571298416    0.20407488260687506    
  0.21711983554959519    0.2227402884667019    0.32401277902643216    0.3131263706729542    0.2823334721473497    
  0.24236341196360114    0.20947129479684096    0.19283874184785169    0.19284481883821084    0.20407483946261343    
  0.21711988281042563    0.22274032384608264    0.21711982489621762    0.20407489530496592    0.19284483669269784    
  0.19283869606511372    0.2094713589144559    0.24236337945880937    0.282333530527521    0.31312634450571103    
  0.32401277902643216    0.38861092191411073    0.38775340390119695    0.36627154840159815    0.30929061289023513    
  0.24236343759200987    0.1928448283258652    0.16600006281583757    0.15561074558918092    0.15388069196665005    
  0.15428585640104364    0.15388067587080778    0.1556108214470998    0.166000026389313    0.19284482542118347    
  0.24236347560025556    0.30929066967664687    0.3662714766428203    0.38775338517632196    0.38861092191411073    
  0.3015723733081645    0.33560627063656456    0.38762059341796096    0.3662715343882357    0.2823334879083767    
  0.20407494733176923    0.1556107498868288    0.1308985796758353    0.12051845328471752    0.11795744048552512    
  0.12051843213409529    0.13089856847486023    0.1556108135316865    0.2040748751972987    0.28233350627610726    
  0.3662715470124352    0.3876206069918999    0.3356062275887681    0.3015723733081645    0.1578736540056645    
  0.2104895633937293    0.33560623779667265    0.38775334041268955    0.31312629238807654    0.21711989803753393    
  0.15388068856979686    0.1205184046238834    0.10551911578436389    0.10142530533016937    0.10551906396796641    
  0.12051842688657673    0.15388071106276693    0.21711986516889545    0.31312630736387337    0.3877533608820036    
  0.3356062123078959    0.21048956791078113    0.1578736540056645    0.10621069268941355    0.15787364311924032    
  0.3015723751112955    0.3886108892865584    0.32401273159952015    0.22274029340723325    0.15428581924882542    
  0.1179574061162714    0.10142528459715802    0.09681549990282422    0.1014253044356338    0.11795741171514328    
  0.1542858186398475    0.22274031553566645    0.3240127661934981    0.38861091670079756    0.3015723765274257    
  0.15787370053006664    0.10621069268941355    0.2589773198340209    0.3015723601027162    0.3783502901328548    
  0.3765333176354292    0.2935568351101065    0.2098627614873092    0.15707733893764103    0.12976674184319942    
  0.11795741910848305    0.11491740028296799    0.11795741240472078    0.12976677277465942    0.15707733836733706    
  0.20986276864211934    0.29355691839790166    0.37653334659810395    0.378350264447459    0.30157239525119905    
  0.2589773198340209    0.301572365169764    0.33560624873243733    0.387620576999829    0.3662714680208455    
  0.2823334926096186    0.20407491834952718    0.1556107929611646    0.1308985419081704    0.12051846052765501    
  0.11795740682185395    0.1205184327652782    0.13089860202102058    0.1556108379301783    0.20407484829409608    
  0.28233347552723226    0.3662715372952971    0.387620544711425    0.33560621482236475    0.301572365169764    
  0.3783502183137038    0.3876205745113352    0.3839409246992123    0.3304438296231695    0.2526437558002356    
  0.19048854668498727    0.15413444515303898    0.13698230137986742    0.13089863550251257    0.1297667612044859    
  0.13089855182210702    0.13698231063436742    0.15413439089015993    0.19048856828166572    0.25264378477277794    
  0.3304437936133985    0.38394092415645803    0.3876206060698401    0.3783502183137038    0.37653336524251135    
  0.36627151468366526    0.3304438488781932    0.27313942802657876    0.21671552816639852    0.17810965812014484    
  0.15917739993376429    0.15413436183436421    0.15561080463418803    0.15707736223379337    0.1556108217318299    
  0.1541344450980656    0.15917736976529936    0.17810961991606655    0.2167154961474837    0.2731394568734132    
  0.33044375394293174    0.36627155979578035    0.37653336524251135    0.2935569001790237    0.28233351803628765    
  0.25264376121125953    0.21671555148317395    0.1886972104466498    0.17584082295790035    0.17810959432898454    
  0.190488594715307    0.20407490833035372    0.20986278823647755    0.2040748825158352    0.1904885935903016    
  0.17810959967207649    0.17584079241151748    0.18869718013656125    0.2167155291344144    0.2526437216425578    
  0.2823334528939306    0.2935569001790237    0.20986275114020062    0.20407488937670112    0.19048858982984326    
  0.17810961663247193    0.17584075993926532    0.18869719059298737    0.21671554204680557    0.25264377384616177    
  0.2823335295790164    0.29355689121631284    0.28233343620770507    0.2526437735714346    0.21671552298088148    
  0.18869715257705943    0.1758408218747394    0.17810958469807092    0.1904885499987143    0.20407486957287463    
  0.20986275114020062    0.15707736458339408    0.15561078323654745    0.15413442603836364    0.15917737545298088    
  0.17810962156743104    0.216715489774683    0.2731394985192913    0.33044370260682465    0.3662715483719939    
  0.3765334011021783    0.3662714874136017    0.3304437688231059    0.2731394383293463    0.21671551125431213    
  0.17810964954938927    0.15917735851236567    0.1541343915546283    0.1556108180540522    0.15707736458339408    
  0.1297667704316719    0.13089857133796104    0.1369823355659323    0.15413440307694787    0.1904885958968298    
  0.2526438134404416    0.3304437790108145    0.3839409769000531    0.3876205884157591    0.3783502461383241    
  0.38762057583192555    0.3839409429370485    0.330443839293631    0.2526437178624515    0.19048860102502355    
  0.15413438316190678    0.13698232193668167    0.1308985449146234    0.1297667704316719    0.11795741193899442    
  0.12051843621495542    0.13089856650322207    0.15561082336118318    0.2040748275307673    0.2823335173493401    
  0.3662715023420077    0.38762047574346004    0.3356062992716138    0.30157238562753824    0.3356062107540132    
  0.38762063931687923    0.36627145135088296    0.28233351161777487    0.20407489528239228    0.155610776950683    
  0.13089854844276286    0.1205184451225313    0.11795741193899442    0.11491739851822053    0.11795740934224545    
  0.12976678261525798    0.1570773381334397    0.20986272393212002    0.2935568620912624    0.37653329551775194    
  0.37835022586236106    0.30157236164133877    0.25897733064741907    0.3015723207368291    0.37835031644457967    
  0.3765334009007159    0.29355689416736147    0.20986276547557003    0.157077330250769    0.12976677383650853    
  0.1179574389711617    0.11491739851822053    0.11795740664068731    0.12051843797097501    0.13089859143514465    
  0.15561081956855957    0.2040749248264333    0.28233355483974126    0.3662714934313312    0.3876205467787328    
  0.33560623261452777    0.3015723811489999    0.3356062053652446    0.3876205646344346    0.36627149989688695    
  0.2823334411916614    0.20407490630115868    0.15561076404345164    0.13089853438978355    0.1205184277838148    
  0.11795740664068731    0.1297667647391521    0.1308985536980735    0.1369823027183296    0.15413441228807637    
  0.19048857283959264    0.25264379764123146    0.3304437819485759    0.38394087720204945    0.3876206337862543    
  0.37835030347086035    0.3876205407725122    0.3839409601315168    0.33044380231358117    0.252643740017044    
  0.1904886047922855    0.15413440754869154    0.13698230278436818    0.1308985242255921    0.1297667647391521    
  0.15707736952143916    0.15561081218457232    0.154134432165546    0.1591773638534111    0.17810961226344835    
  0.21671551919147278    0.2731394548352698    0.33044370813562307    0.3662714936460982    0.37653341048078354    
  0.3662714659296016    0.33044386081096644    0.2731393946833191    0.216715556069048    0.17810964215226713    
  0.15917741013028994    0.15413440237839138    0.1556108654295439    0.15707736952143916    0.2098627449580256    
  0.2040748835987504    0.19048856043123832    0.1781096634884421    0.175840828471555    0.18869716514848625    
  0.2167155026939953    0.2526437494522514    0.2823335426167221    0.2935569192258013    0.2823334879419709    
  0.25264379001546805    0.21671551643318968    0.18869712827899515    0.17584080393459514    0.17810963635591795    
  0.1904885947723524    0.2040748912887519    0.2098627449580256    0.2935568722821648    0.2823335040310172    
  0.25264375775390363    0.21671548857713388    0.1886971585795739    0.17584082241533772    0.17810963283664547    
  0.19048851472528416    0.20407493105710692    0.20986275468923726    0.20407485745984819    0.19048857794726246    
  0.17810963816602682    0.17584077674940946    0.18869722008887538    0.21671548121980558    0.25264377395508075    
  0.28233346154791433    0.2935568722821648    0.37653338502374695    0.36627148778272645    0.3304438445787353    
  0.27313938294809426    0.21671550528053762    0.1781096236197013    0.15917739180466264    0.1541343669779049    
  0.15561079043535328    0.15707734512021945    0.15561078125038214    0.1541344126804904    0.15917732515227467    
  0.17810966194912584    0.21671554942766896    0.27313944126823214    0.33044380465977846    0.3662714963722962    
  0.37653338502374695    0.37835026503791697    0.38762055812273905    0.38394097546238354    0.33044380863283174    
  0.2526437805055215    0.19048860144289803    0.1541344044456991    0.13698232187370651    0.13089857872721222    
  0.1297667609429061    0.13089853102754456    0.13698232683418587    0.1541343890400993    0.19048857571992417    
  0.25264377517377856    0.33044376648323986    0.383940993379809    0.387620529602925    0.37835026503791697    
  0.3015723563884758    0.33560626886542855    0.3876205658481434    0.36627150856263185    0.28233343598268035    
  0.2040749147862318    0.15561080446119566    0.13089855993883384    0.12051848142178066    0.11795744845460594    
  0.12051840989620241    0.1308985844705699    0.15561081500507412    0.20407487439416194    0.2823334864128281    
  0.366271458353424    0.38762051447136125    0.33560622752414926    0.3015723563884758    0.2589773198340209    
  0.3015723601027162    0.3783502901328548    0.3765333176354292    0.2935568351101065    0.2098627614873092    
  0.15707733893764103    0.12976674184319942    0.11795741910848305    0.11491740028296799    0.11795741240472078    
  0.12976677277465942    0.15707733836733706    0.20986276864211934    0.29355691839790166    0.37653334659810395    
  0.378350264447459    0.30157239525119905    0.2589773198340209    0.3841472214389597    0.38861095537696566    
  0.3765333600880711    0.32255839789808355    0.2525286166847344    0.1990434591640489    0.16932135543601776    
  0.15707732075753478    0.15428583223208234    0.15435689960001578    0.1542858418098798    0.15707739059526615    
  0.1693214160425238    0.19904347862103083    0.25252869789505134    0.32255838132684317    0.3765334025837282    
  0.3886109685938544    0.3841472214389597    0.3886109313748575    0.3877534133212228    0.36627151918927486    
  0.30929064847235754    0.24236343085441173    0.19284479213695965    0.16600006491155736    0.1556107777654554    
  0.1538806957916532    0.15428585347743953    0.15388068956008502    0.15561083491486286    0.16600008209474357    
  0.19284479335529758    0.24236345897547332    0.3092906537843206    0.36627147014174466    0.38775331190398615    
  0.3886109313748575    0.3765333246917196    0.3662714396875624    0.33044375835442624    0.2731394416866863    
  0.2167154858825532    0.17810964210623267    0.1591774154985923    0.1541344141904464    0.1556108362009579    
  0.15707737675560987    0.15561079533782352    0.15413443324497342    0.15917739292965075    0.17810962897612528    
  0.21671556599781108    0.27313945647389165    0.33044372405930317    0.3662714806567898    0.3765333246917196    
  0.32255843453965416    0.30929065397111993    0.27313946943429407    0.22690991335534877    0.18731387360079174    
  0.16367327957014374    0.15597638372799338    0.1591773868733169    0.1660000914640266    0.169321415474492    
  0.16600007280884324    0.15917741433745336    0.15597636893200087    0.16367326089819303    0.1873138715687956    
  0.22690995820780696    0.2731394307948893    0.3092906965798745    0.32255843453965416    0.25252868647433235    
  0.24236342018544965    0.21671548025270784    0.18731387327304427    0.1657814725172307    0.15796512215015143    
  0.1636732904667624    0.17810959259028358    0.19284482372102033    0.1990434845207156    0.19284482819452872    
  0.17810964139415333    0.16367324336041575    0.15796505328570942    0.16578142881062083    0.1873138755662587    
  0.21671549269858492    0.24236340976327736    0.25252868647433235    0.19904348882147127    0.19284480033287574    
  0.1781096046987078    0.16367324107026218    0.15796506129710203    0.16578145870282562    0.1873139046374946    
  0.2167154920255239    0.2423634245119101    0.2525286604345356    0.2423634127165556    0.2167155210053906    
  0.18731387540122527    0.16578138747939028    0.15796510472164957    0.16367325596961435    0.17810960542558477    
  0.1928447980329687    0.19904348882147127    0.16932143598562585    0.16600007786032858    0.15917744919519203    
  0.15597632771099687    0.16367324379044593    0.18731385576072285    0.22690998733373957    0.2731394058298074    
  0.3092906832287157    0.3225584119805616    0.3092906792600568    0.2731394981921082    0.22690992572259866    
  0.18731388313581032    0.16367324933343752    0.15597638409604517    0.15917737202438798    0.16600007346098278    
  0.16932143598562585    0.1570773627141969    0.15561081369400181    0.15413444285215386    0.15917745674868392    
  0.17810959215787145    0.21671556565397193    0.2731394894856548    0.33044383522799614    0.3662714698456909    
  0.37653340918987666    0.36627153575225396    0.33044376142817133    0.27313944514788346    0.21671547468945382    
  0.1781096624665016    0.15917741184364478    0.154134387926343    0.15561080724221668    0.1570773627141969    
  0.15428583116212358    0.1538806606632426    0.15561078250541788    0.16600007785795196    0.19284478284457823    
  0.24236345598271308    0.30929066926703846    0.3662714875480248    0.3877533723382216    0.38861099870532434    
  0.38775335298245134    0.3662715373381219    0.3092906423846627    0.24236343089702841    0.19284482173840833    
  0.1660000570406833    0.1556107798351291    0.15388072451231458    0.15428583116212358    0.154356880960283    
  0.1542858908336431    0.15707735033639172    0.16932136981058818    0.19904346840686896    0.2525286674512044    
  0.3225584020500933    0.37653331907647025    0.3886109151144212    0.38414724223334185    0.3886109366470704    