#     DFTpy    
  CRYSTAL 
    
  PRIMVEC    
  3.972624204910601    -2.1826371999999998e-10    4.1370313241379307e-10    
  -2.1826371999999998e-10    3.972624204679763    1.9934217310344828e-10    
  7.559903137931033e-10    3.643332275862069e-10    7.277924535362741    
  PRIMCOORD    
  4    1    
  Si    1.9863121023796138    1.9863121034330118    2.2364643582400916    
  Si    7.365757774163215e-10    -6.81691064381691e-10    1.4024979069947925    
  Si    1.1297341136459168e-10    5.148395449369077e-10    5.875426624239853    
  Si    1.9863121029751547    1.986312101924005    5.041460181863788    
  BEGIN_BLOCK_DATAGRID_3D    
  3d_datagrid_density    
  BEGIN_DATAGRID_3D#0    
  17    17    31    
  0.0    0.0    0.0    
  3.972624204910601    -2.1826371999999998e-10    4.1370313241379307e-10    
  -2.1826371999999998e-10    3.972624204679763    1.9934217310344828e-10    
  7.559903137931033e-10    3.643332275862069e-10    7.277924535362741    
  0.23114202287432814    0.21384559175390278    0.17106355136073065    0.12217469487099816    0.08223744853729403    
  0.05562220253289202    0.04020274210293074    0.032515095227948904    0.030195872054359085    0.03251508402678945    
  0.04020273947954593    0.05562217736280048    0.08223741524140636    0.12217466209896556    0.17106363385170562    
  0.21384553380561994    0.23114202287432814    0.213845517853538    0.19811743386867703    0.1592668605401881    
  0.11473224588727088    0.07811685580375773    0.05354411365989155    0.03921824946597245    0.03203377133311286    
  0.029860483610040903    0.032033787459082225    0.039218248254467555    0.053544119512127085    0.07811689604748893    
  0.1147322787713228    0.15926689007363168    0.19811742603694796    0.213845517853538    0.17106362563510022    
  0.15926691089168635    0.130061822329692    0.09616083388053083    0.06772883060974938    0.04828325248410608    
  0.036719914119014554    0.030812792771976655    0.029006963673128452    0.030812763864475283    0.03671991364589224    
  0.04828326038772831    0.0677288232017978    0.096160823022077    0.1300618174403253    0.1592668909499824    
  0.17106362563510022    0.12217469416617983    0.11473227705297281    0.09616082471020969    0.07414283821712178    
  0.05518856095981094    0.04186842889225558    0.0337145403020047    0.029460939510132757    0.028153693656066393    
  0.029460953336365177    0.033714537229210556    0.04186843165984936    0.055188569719940295    0.07414284343731685    
  0.09616084215961121    0.11473223358965552    0.12217469416617983    0.08223740130701453    0.07811687214288174    
  0.06772881088215496    0.055188537737184844    0.044117065246917414    0.036118378058420275    0.031133017481126426    
  0.02855780736986991    0.027783286251147524    0.028557832853283383    0.03113300801518137    0.03611836798741333    
  0.044117064573091204    0.055188554249875864    0.06772880324866815    0.07811687969256537    0.08223740130701453    
  0.05562220528660236    0.05354414107191532    0.04828325729786066    0.04186843059994305    0.03611837817747131    
  0.031967293129192054    0.029494144860035484    0.028310925383756912    0.027977652713019576    0.028310927071364258    
  0.029494125964260487    0.031967302954909085    0.036118378401568174    0.04186842177388087    0.04828326062309185    
  0.05354411773989294    0.05562220528660236    0.04020272696547195    0.039218257124325744    0.03671992256792344    
  0.033714530516329416    0.031133009807790647    0.029494133003048446    0.02879304168759242    0.028629367732333516    
  0.028612472866169296    0.028629372750409415    0.028793051326029228    0.02949414065930501    0.03113300806866944    
  0.03371452794494757    0.03671993849374055    0.039218255631177514    0.04020272696547195    0.0325150829760741    
  0.03203379083557645    0.03081277778350473    0.029460927537692416    0.028557826329087245    0.0283109214663235    
  0.0286293635443312    0.029117930397536507    0.02933397096860286    0.02911793942777995    0.028629362630042086    
  0.02831093116680428    0.02855781035881546    0.0294609306080342    0.03081279778916347    0.03203377866936637    
  0.0325150829760741    0.0301958741841596    0.02986049279559488    0.029006965307221508    0.028153692218660386    
  0.027783275367953997    0.027977683078839195    0.0286124402007874    0.029334000288310055    0.029640974754963342    
  0.029333965702585754    0.028612464816239882    0.027977645896225336    0.027783281328451235    0.028153678980145782    
  0.029006964354615573    0.029860486458480495    0.0301958741841596    0.03251509322264971    0.03203378871253194    
  0.030812769810582497    0.02946093379553953    0.028557810221075543    0.0283109429809173    0.028629365932149285    
  0.029117925422655996    0.029333959467553246    0.029117940157959293    0.028629361847866554    0.02831092808305768    
  0.028557847758279145    0.029460923454021373    0.03081278433637409    0.03203376553335627    0.03251509322264971    
  0.04020273260641093    0.039218257092097315    0.03671990742736134    0.03371452524182508    0.031133008808433324    
  0.029494147950559668    0.028793045058579127    0.02862937967945921    0.028612457676960912    0.028629364820505    
  0.02879304992543363    0.0294941359277316    0.031133015294275132    0.03371454110790453    0.03671992310969089    
  0.039218245871572736    0.04020273260641093    0.055622205300022695    0.05354412567398099    0.04828325649572296    
  0.04186841200954523    0.036118372344874146    0.03196729762211867    0.02949412853610294    0.02831092650879654    
  0.027977653384058693    0.028310944855605202    0.029494130487473107    0.031967297365378636    0.03611836978447198    
  0.041868394689043104    0.04828328198341    0.053544115314389934    0.055622205300022695    0.08223739425216268    
  0.07811689120134174    0.06772880433194291    0.05518854416434673    0.04411706802558501    0.036118369845206895    
  0.031133001969575226    0.02855783061040604    0.027783280308567814    0.028557833496784004    0.031133011724075704    
  0.036118365948828376    0.04411706217949416    0.05518855520851153    0.06772882425844473    0.07811686399358228    
  0.08223739425216268    0.12217467213219244    0.11473227584053103    0.09616084546633451    0.07414284763234971    
  0.05518855690821451    0.04186842628553862    0.0337145350374963    0.02946092304327505    0.028153687153372707    
  0.02946094725767565    0.03371452976677285    0.04186842162927473    0.0551885642561632    0.07414284978161022    
  0.096160833943548    0.11473224624155327    0.12217467213219244    0.17106361432999956    0.15926690826481055    
  0.1300617846727522    0.09616085614759291    0.06772882520474413    0.04828325303763666    0.036719911437052076    
  0.030812765248226685    0.029006981059042793    0.030812776499918534    0.0367199115668968    0.048283255956453774    
  0.06772884240467679    0.0961608158871211    0.13006180919449106    0.15926691516459374    0.17106361432999956    
  0.21384550369680397    0.1981174685307737    0.1592668848246507    0.11473226836290228    0.07811687885393345    
  0.0535441101545767    0.03921824887966459    0.032033776529270565    0.029860494848039    0.032033794666816495    
  0.039218245426345825    0.053544110702054254    0.07811687863394012    0.1147322657756669    0.1592669375712653    
  0.19811739140963153    0.21384550369680397    0.23114202287432814    0.21384559175390278    0.17106355136073065    
  0.12217469487099816    0.08223744853729403    0.05562220253289202    0.04020274210293074    0.032515095227948904    
  0.030195872054359085    0.03251508402678945    0.04020273947954593    0.05562217736280048    0.08223741524140636    
  0.12217466209896556    0.17106363385170562    0.21384553380561994    0.23114202287432814    0.2692599967454078    
  0.24870904918345174    0.19769794857976425    0.13935211773359324    0.09186664195503606    0.06053536371677824    
  0.04262526319937996    0.033842964886717015    0.0312420819253243    0.03384295578482495    0.04262527207082887    
  0.06053534178867277    0.0918666311381681    0.13935212396473787    0.19769789962402237    0.24870897507846781    
  0.2692599967454078    0.24870903195860372    0.2300114821934189    0.18366571806294923    0.13057534847452723    
  0.0871119804544283    0.05820606567295816    0.041566254664171    0.03336611595313954    0.030926711759761416    
  0.0333661430233383    0.041566226976148896    0.058206063357929355    0.08711200625961138    0.13057536685182117    
  0.18366574326402982    0.23001143973267274    0.24870903195860372    0.19769798893489512    0.18366572368990608    
  0.14884746437631563    0.10859206522533692    0.07505870595466024    0.052288005992058045    0.03891738513058655    
  0.03221111813646651    0.030190705716717267    0.03221110260842399    0.03891739020861368    0.05228800678382839    
  0.07505868813504825    0.10859209736239142    0.14884742811875437    0.18366575787396872    0.19769798893489512    
  0.1393521326413607    0.13057533593168463    0.1085920696375577    0.0826669698615686    0.06053021051751157    
  0.04509990974428963    0.03579565312026806    0.031026696216243807    0.029570626372191475    0.031026714480324284    
  0.03579565885183938    0.04509991854165594    0.06053022370537519    0.08266697294839377    0.10859209668504484    
  0.13057531955889487    0.1393521326413607    0.09186661973057693    0.08711198617619453    0.07505870728602897    
  0.060530195675025746    0.04782257777881899    0.03876868903434146    0.0332308108319146    0.03039353674058318    
  0.029537115998311454    0.03039354850690792    0.033230803932859744    0.038768693567923486    0.04782256093255822    
  0.060530210052125194    0.07505869042108249    0.08711200255104316    0.09186661973057693    0.06053537357254254    
  0.05820608375888978    0.052288005618098106    0.04509991655872757    0.038768696520407826    0.034324093670167394    
  0.03174313237418844    0.030537785521261813    0.03020439286294187    0.03053778510000125    0.03174309846324743    
  0.034324095157644605    0.03876870062070908    0.04509991573222815    0.05228800902193202    0.058206067421479296    
  0.06053537357254254    0.04262525471898394    0.04156624879543013    0.038917401520128445    0.035795636286776816    
  0.033230809430741776    0.03174311868551511    0.031246935073674806    0.03127877400848742    0.03135689723478162    
  0.03127877723577655    0.03124695344562582    0.03174311228877089    0.033230808904526024    0.035795634609523785    
  0.03891741628753726    0.041566226181230334    0.04262525471898394    0.03384297320419514    0.033366142109055405    
  0.03221111497223915    0.0310266882817943    0.030393558208598414    0.03053777574186992    0.031278758788102275    
  0.032107380186822625    0.032463487093077836    0.03210737012333331    0.03127877239417814    0.030537782344824273    
  0.030393550455234248    0.031026703905416824    0.03221112591755112    0.0333661175476761    0.03384297320419514    
  0.031242078739546607    0.030926709567584424    0.030190705351312214    0.029570642094929923    0.02953709565466821    
  0.030204411758523404    0.03135691150437603    0.03246349459020674    0.03292340001949282    0.03246347309903778    
  0.031356930226321245    0.03020439521185506    0.029537107834796558    0.029570616715095963    0.03019071665059854    
  0.030926707929527866    0.031242078739546607    0.033842974173075815    0.03336614383041288    0.03221110391515679    
  0.03102669614289178    0.030393534009113262    0.030537795599633613    0.03127877709405183    0.03210735337279499    
  0.03246347945405925    0.032107357780363804    0.03127875909276614    0.030537785602486375    0.030393560373407322    
  0.031026685052590562    0.0322111199150322    0.03336612850607499    0.033842974173075815    0.04262526367995562    
  0.041566258574960574    0.03891738754531013    0.03579565274032118    0.03323080341188483    0.031743120370806656    
  0.031246931268100908    0.031278796425677    0.031356914071960805    0.03127876051848158    0.03124694660719227    
  0.03174312226988404    0.033230802900880776    0.035795635645737775    0.038917393681619276    0.04156625869837143    
  0.04262526367995562    0.06053536786596343    0.05820607579042641    0.05228800075499643    0.04509989537572315    
  0.038768685502262604    0.03432410676829018    0.03174311742690227    0.030537789752079617    0.030204403296449116    
  0.030537791389411463    0.03174312460039203    0.03432409850424759    0.03876869824877338    0.045099900286661485    
  0.052288017974961146    0.0582060663349412    0.06053536786596343    0.0918666070430568    0.08711202301546489    
  0.07505868151818357    0.060530201500341024    0.04782257667085031    0.03876870755311884    0.03323080470235257    
  0.03039355409461056    0.029537117805218456    0.030393549972894646    0.03323080189255668    0.03876868974336191    
  0.04782255765896247    0.060530206002684286    0.07505867972238048    0.08711201517806551    0.0918666070430568    
  0.1393521030677891    0.13057535099831044    0.10859210384385272    0.08266698322792676    0.06053020865494372    
  0.04509991780935807    0.035795656421447455    0.03102669175934058    0.02957062765520392    0.03102670594642417    
  0.03579563906543443    0.04509992485016166    0.060530218778551616    0.08266696266406093    0.10859209764182973    
  0.13057533245552924    0.1393521030677891    0.19769788331355795    0.18366572092622305    0.1488474401418567    
  0.108592105049459    0.07505871534743934    0.05228801024291177    0.03891738100934473    0.032211116895620555    
  0.030190712117692198    0.03221110217758582    0.03891739353240023    0.05228800101032396    0.07505871175339746    
  0.10859208173143675    0.14884742338321402    0.18366572103302498    0.19769788331355795    0.24870897173669768    
  0.2300115188272337    0.18366573485415555    0.13057535829448375    0.08711202796388519    0.05820607977531239    
  0.04156624326899359    0.033366126473750084    0.030926716433521358    0.03336614688943159    0.0415662498849322    
  0.05820608371990308    0.08711200113005249    0.13057534859261735    0.18366575260696788    0.23001144182845146    
  0.24870897173669768    0.2692599967454078    0.24870904918345174    0.19769794857976425    0.13935211773359324    
  0.09186664195503606    0.06053536371677824    0.04262526319937996    0.033842964886717015    0.0312420819253243    
  0.03384295578482495    0.04262527207082887    0.06053534178867277    0.0918666311381681    0.13935212396473787    
  0.19769789962402237    0.24870897507846781    0.2692599967454078    0.37255240185292604    0.3471806602437426    
  0.278439044708982    0.193195953766365    0.1217430425156082    0.07538175681753678    0.049822310639019325    
  0.03774195318968805    0.03426996800426191    0.03774194009948505    0.04982232969414639    0.0753817048717391    
  0.12174302038626372    0.19319598737712732    0.2784390265825493    0.34718052453668863    0.37255240185292604    
  0.34718059850468486    0.3229335715115117    0.2585604158057127    0.18020796096274486    0.1148943456003649    
  0.07228376742585181    0.04860841062689213    0.03734382584626383    0.034089695509614375    0.03734382796982348    
  0.04860839652098857    0.07228374905535642    0.11489435558228045    0.1802079368401493    0.25856040222946525    
  0.32293348346820144    0.34718059850468486    0.2784390872990488    0.25856044162043434    0.20758268266909838    
  0.1474409364234837    0.09756881098957196    0.06445931949596335    0.045638788768597074    0.03650564105253329    
  0.03382360790470809    0.036505627109691186    0.04563880026363624    0.06445930517892033    0.09756878424368673    
  0.14744094767567292    0.207582639073938    0.25856042833283693    0.2784390872990488    0.19319597416161205    
  0.18020799516536437    0.14744095357721082    0.10912595261839521    0.07701479241426659    0.05512781897195793    
  0.042333355084071086    0.03597370749506475    0.03406921436929151    0.03597372045733817    0.04233334906820978    
  0.05512781266508099    0.07701481765522351    0.10912592418209953    0.1474409520263455    0.1802078875849436    
  0.19319597416161205    0.12174299359141441    0.11489431665039526    0.09756879110116992    0.07701477368931679    
  0.05942004645692196    0.04720953427132156    0.0400096964845077    0.036431208956847386    0.03535853575316257    
  0.03643121547945471    0.040009692110424835    0.04720953837517843    0.059420045709254396    0.07701479115150336    
  0.09756878109548572    0.11489432922168238    0.12174299359141441    0.07538173512052958    0.07228377685327438    
  0.06445932854077814    0.055127826614465775    0.04720953659999443    0.04199697393789968    0.03926132664167583    
  0.0381596869452897    0.037902915153016185    0.038159698780033016    0.03926128581349759    0.04199697766191044    
  0.047209542935276745    0.05512782060793269    0.0644593287950217    0.07228375476029757    0.07538173512052958    
  0.0498223064650933    0.04860840120849396    0.04563879355395106    0.04233334707749045    0.04000970110857538    
  0.0392613116773905    0.03975696350863071    0.04070092089951195    0.04117703035420838    0.04070090626204891    
  0.03975697399763024    0.039261302550564814    0.04000969651410334    0.04233334753771986    0.04563879336804615    
  0.04860838222053678    0.0498223064650933    0.03774193637263798    0.037343818287790716    0.03650563660214743    
  0.035973688573901895    0.03643122973996808    0.03815967572564227    0.04070089878477909    0.04301698695864363    
  0.04397778580068333    0.04301699551871969    0.040700905883599474    0.03815969089250448    0.03643121011781297    
  0.03597368875366139    0.036505657717293416    0.03734380832630753    0.03774193637263798    0.03426996671144153    
  0.034089707593394074    0.033823606270224855    0.03406921877582769    0.03535854329034253    0.03790292958287011    
  0.04117702114981009    0.04397779344325393    0.04508896038967143    0.043977795450077135    0.04117705985003858    
  0.03790290483967124    0.03535855144776517    0.03406921030701162    0.033823602398570636    0.03408970895967962    
  0.03426996671144153    0.03774194075664354    0.037343814991178066    0.03650563450838191    0.03597370015436548    
  0.03643120924896654    0.038159707691037936    0.04070090488095878    0.0430169759326332    0.04397779167701344    
  0.04301697657569673    0.0407008876885964    0.03815968364697607    0.03643122402353395    0.03597368920290443    
  0.03650564622230981    0.03734381250610448    0.03774194075664354    0.049822308444025076    0.048608408538940696    
  0.04563879057775518    0.042333349771520964    0.04000969463871056    0.03926131534885963    0.039756956141511146    
  0.040700909262986126    0.04117701685884528    0.040700897656750334    0.039756974848676095    0.039261308267028894    
  0.04000970488037288    0.0423333482001418    0.045638799880948766    0.048608396425176226    0.049822308444025076    
  0.07538173093282653    0.07228377957801049    0.06445931656227281    0.0551278110942138    0.047209528909642993    
  0.04199697563554832    0.039261294067109834    0.0381596909487208    0.037902915130930644    0.03815969224305899    
  0.039261297606837345    0.041996981727474195    0.047209538621056764    0.055127801890151575    0.06445933225602352    
  0.0722837478088417    0.07538173093282653    0.12174299934807135    0.11489438545645905    0.09756881556933522    
  0.07701478490798672    0.05942005123948456    0.047209528428719186    0.04000969498537654    0.03643121966114244    
  0.03535854846475288    0.03643122042769616    0.04000967913785739    0.04720952363219031    0.0594200488801386    
  0.07701478773568689    0.0975687947931988    0.11489435103764395    0.12174299934807135    0.19319591166513578    
  0.18020796136465922    0.14744097930657188    0.10912595184936638    0.0770147917098483    0.055127829050941275    
  0.04233335622782946    0.03597368481993665    0.034069218956139714    0.03597369765732602    0.04233334750728599    
  0.05512782358494234    0.07701479944875629    0.10912597570275477    0.14744094638623972    0.18020791133842923    
  0.19319591166513578    0.2784390167072081    0.25856041506385863    0.20758259846469196    0.14744093744064748    
  0.09756879688174956    0.06445932105693349    0.04563878269216007    0.03650563749095739    0.03382360724447108    
  0.03650562347519299    0.045638786622785144    0.06445931562171893    0.09756883505240163    0.14744094482109135    
  0.2075826389690799    0.25856042119948397    0.2784390167072081    0.3471805895795168    0.32293356738734497    
  0.25856043500664916    0.18020792110023176    0.11489438114452524    0.07228375100301081    0.048608397763115964    
  0.037343823340747914    0.034089696662371195    0.03734382945272903    0.04860839571076995    0.07228377599532064    
  0.11489432624531447    0.18020795059836142    0.2585604687669936    0.3229334912873267    0.3471805895795168    
  0.37255240185292604    0.3471806602437426    0.278439044708982    0.193195953766365    0.1217430425156082    
  0.07538175681753678    0.049822310639019325    0.03774195318968805    0.03426996800426191    0.03774194009948505    
  0.04982232969414639    0.0753817048717391    0.12174302038626372    0.19319598737712732    0.2784390265825493    
  0.34718052453668863    0.37255240185292604    0.4272305603875097    0.424959653860562    0.3814670723895914    
  0.2781761237356461    0.17100485616666614    0.09938838697087368    0.06120860733130782    0.04387144866647155    
  0.039001920423130804    0.04387142873423621    0.0612086265856178    0.09938833586451067    0.17100483280675988    
  0.27817618925587967    0.3814670408914315    0.4249595329928066    0.4272305603875097    0.42495964824848353    
  0.4153273703693561    0.3614712924323367    0.2598500934897542    0.16076183744049471    0.09515984850049247    
  0.059916190856138744    0.04375704010590564    0.03919222015921242    0.043757043897728096    0.0599161658998574    
  0.09515982865809651    0.16076185567110585    0.25985007417154016    0.3614713040836897    0.41532720436588216    
  0.42495964824848353    0.3814671274198186    0.3614712908329089    0.2988725887361527    0.21171550465807668    
  0.13501721294283534    0.0846234229973204    0.05687929714617904    0.04382125268089119    0.040079372331330146    
  0.04382122785562934    0.056879311020305565    0.08462339346421659    0.13501718673520355    0.2117155467348452    
  0.2988725738058385    0.36147131920556536    0.3814671274198186    0.27817612848751555    0.25985013253752565    
  0.21171550466526082    0.15366562032424078    0.10494221143856636    0.07245028797348252    0.05399003788301532    
  0.045079300714225265    0.042488633900100235    0.04507930826606936    0.05399004564351794    0.07245028984249428    
  0.10494223127249658    0.15366559645956765    0.21171556567498787    0.25985005523909266    0.27817612848751555    
  0.17100479554217582    0.1607617941591475    0.13501720662117986    0.10494219867017641    0.07970563281340282    
  0.06269212448464935    0.053082950233251124    0.048559679591830225    0.04726791998644472    0.04855968641452163    
  0.05308296086770443    0.06269213221944923    0.07970564253649515    0.10494220941904493    0.1350171757415227    
  0.1607618393567867    0.17100479554217582    0.09938838303451283    0.0951598459665433    0.08462343366744748    
  0.07245028846511131    0.06269214652309464    0.05701171372290292    0.05484872678717761    0.05458408459028769    
  0.054698224316858    0.054584106664010805    0.054848700623331734    0.05701172205216534    0.06269214935793502    
  0.07245028194407775    0.08462343395342398    0.09515982832144022    0.09938838303451283    0.061208603323244085    
  0.05991618050282427    0.056879316241540426    0.05399003322368474    0.05308297930294256    0.05484871197451995    
  0.05845480846341048    0.06206415333909425    0.06360842868243231    0.06206412827625997    0.058454855307186644    
  0.05484870434029792    0.05308297338500232    0.053990031458081476    0.056879321935905065    0.05991616883135064    
  0.061208603323244085    0.043871435403116894    0.043757046553950275    0.04382124325046281    0.04507926908395312    
  0.04855970282754836    0.054584076683026596    0.062064122771611184    0.0685025188886567    0.07109182383088898    
  0.06850249056008642    0.062064131101780315    0.05458408378260746    0.04855969176973291    0.0450792815661177    
  0.043821256525952736    0.043757026098544864    0.043871435403116894    0.03900191334024737    0.03919223581139947    
  0.04007937103173418    0.042488639299301925    0.04726792413771205    0.05469825933738302    0.06360842098015529    
  0.07109182993506782    0.07404288801582423    0.0710918364341166    0.06360845883143444    0.05469824289965319    
  0.047267936671857455    0.04248862910790058    0.04007935770830541    0.0391922507187765    0.03900191334024737    
  0.043871437676414236    0.043757033988622004    0.0438212453873561    0.04507927889419369    0.04855968273114503    
  0.054584104720641125    0.062064139003221205    0.06850248351694899    0.07109182583468027    0.06850250237943163    
  0.062064109694380684    0.05458410541877141    0.04855969434710064    0.0450792801410066    0.043821262915092675    
  0.04375703802399882    0.043871437676414236    0.06120859856959338    0.05991619404933119    0.05687928350015517    
  0.053990031639223814    0.05308298409842984    0.054848721232549476    0.05845480512370159    0.062064131194561584    
  0.06360842579467983    0.062064113857695676    0.05845485549238836    0.054848712840521036    0.05308296479031475    
  0.05399003960398942    0.05687930630168054    0.05991618112796184    0.06120859856959338    0.09938836360648746    
  0.09515986008410508    0.08462342248437817    0.07245028988275844    0.06269211874029243    0.05701172481265022    
  0.05484871894312049    0.05458410441968961    0.054698250032861204    0.054584108542238864    0.05484872215976072    
  0.05701172913964313    0.06269213174378435    0.07245027464079404    0.08462343535614573    0.09515982549071451    
  0.09938836360648746    0.17100482169310655    0.16076191095047018    0.13501718984703692    0.10494219203342788    
  0.07970562782929858    0.0626921433915814    0.05308297114031087    0.04855969589543544    0.04726793412190847    
  0.048559684707218456    0.05308296478937997    0.0626921214177393    0.07970564530583583    0.10494220494765932    
  0.1350171883906191    0.1607618466844214    0.17100482169310655    0.27817614045431965    0.25985012162005    
  0.21171559129021233    0.15366561616465002    0.10494220073873257    0.0724502960541052    0.05399004630638221    
  0.04507927337938061    0.04248864117496722    0.04507929427855001    0.053990033637742185    0.07245029812682464    
  0.10494222108905712    0.1536656537477702    0.21171552253236586    0.2598500558581941    0.27817614045431965    
  0.381467074277214    0.36147128911198073    0.2988724770441079    0.21171557296572416    0.1350172012250191    
  0.08462342034656171    0.05687931320829868    0.04382124661493672    0.040079373102779786    0.04382122984197405    
  0.05687930573337792    0.0846234139799223    0.1350172342923523    0.21171553419470848    0.29887252086121036    
  0.3614712890501819    0.381467074277214    0.4249595664693257    0.4153273539455787    0.3614712880008706    
  0.25985007128117765    0.16076186806808548    0.09515983181740142    0.059916174455446065    0.04375704094686048    
  0.039192228661867605    0.043757047234443534    0.059916180487745156    0.09515984852786093    0.16076183078427791    
  0.2598501028662946    0.3614713305655228    0.41532725297974066    0.4249595664693257    0.4272305603875097    
  0.424959653860562    0.3814670723895914    0.2781761237356461    0.17100485616666614    0.09938838697087368    
  0.06120860733130782    0.04387144866647155    0.039001920423130804    0.04387142873423621    0.0612086265856178    
  0.09938833586451067    0.17100483280675988    0.27817618925587967    0.3814670408914315    0.4249595329928066    
  0.4272305603875097    0.2740724502702237    0.32890151462934203    0.4098953863128475    0.3603585085118528    
  0.2289300006054826    0.12821429455952887    0.07484795306517994    0.051398622252134936    0.04491909533217159    
  0.05139860898687675    0.07484796015030905    0.12821427266252478    0.22892995085325332    0.3603585545170735    
  0.4098952641659443    0.3289015294983332    0.2740724502702237    0.32890155288634176    0.3701597912767112    
  0.41346322570914257    0.34215078612101546    0.21568846149895524    0.12308538606055372    0.07383342703599285    
  0.05192589016434428    0.04584196498441175    0.0519259131922956    0.0738333934422401    0.12308539776767091    
  0.21568851484133345    0.34215079920274183    0.4134632783544783    0.37015979744301003    0.32890155288634176    
  0.4098953517922049    0.41346317625633    0.3819151027291758    0.2863970522120798    0.18173140435788818    
  0.11044161592596674    0.07183290904840721    0.05410408929981162    0.04911887907967669    0.05410405703781886    
  0.07183294073727567    0.11044161962734456    0.18173139363759064    0.2863971078916148    0.38191508757074943    
  0.4134632364813825    0.4098953517922049    0.3603585078992196    0.34215078706845004    0.2863970837704191    
  0.20953298302114617    0.14157216569159206    0.09648974542604861    0.07140038352587887    0.059571970595682366    
  0.05623218028540416    0.05957199146418572    0.07140037833245924    0.09648975310352373    0.14157218013116568    
  0.20953299711097573    0.2863971246873181    0.34215072125310136    0.3603585078992196    0.22892998237128928    