#     DFTpy    
  CRYSTAL 
    
  PRIMVEC    
  3.2148403970374813    -1.766296e-10    3.3478866206896546e-10    
  -1.766296e-10    3.214840396850676    1.613173655172414e-10    
  6.117840689655172e-10    2.948361379310345e-10    5.889649913010311    
  PRIMCOORD    
  4    1    
  Si    1.6074201984574914    1.6074201993099522    1.809855550020884    
  Si    5.96072883458295e-10    -5.516575087481894e-10    1.1349694045044567    
  Si    9.142356989042103e-11    4.16633157752411e-10    4.7546805051652    
  Si    1.607420198939432    1.6074201980887906    4.079794366826187    
  BEGIN_BLOCK_DATAGRID_3D    
  3d_datagrid_density    
  BEGIN_DATAGRID_3D#0    
  15    15    27    
  0.0    0.0    0.0    
  3.2148403970374813    -1.766296e-10    3.3478866206896546e-10    
  -1.766296e-10    3.214840396850676    1.613173655172414e-10    
  6.117840689655172e-10    2.948361379310345e-10    5.889649913010311    
  0.5885233490269761    0.5445110416001046    0.4338413377991379    0.3059235266071581    0.20190544004623487    
  0.13495514827099894    0.1000769295010291    0.08948492861293744    0.10007689760641453    0.13495516905795943    
  0.20190542854437882    0.3059234700069137    0.4338413744215427    0.544511010138434    0.5885233490269761    
  0.5445109943369232    0.504728741224966    0.40494582504342286    0.28940125978842074    0.1943357490949744    
  0.13209917571525154    0.09929227126950238    0.08928999784173511    0.09929222234697957    0.1320992100665646    
  0.19433570961374397    0.28940126025746293    0.4049458178709907    0.5047287789963849    0.5445109943369232    
  0.43384135275601077    0.40494576850623826    0.3321016557357806    0.246520521045831    0.17376956845735145    
  0.12411805507209071    0.09722363073598736    0.08895842111768995    0.0972236286192133    0.12411807665418938    
  0.17376956832466192    0.24652052887467044    0.332101718769528    0.4049458051567067    0.43384135275601077    
  0.30592348193952407    0.2894012745673336    0.24652052673893313    0.19408777325840906    0.14727044439907375    
  0.11354876251603697    0.09461247012652924    0.08873222327879621    0.0946124390848162    0.11354879051962405    
  0.14727042436402712    0.19408773939238658    0.24652052177170655    0.2894012549105321    0.30592348193952407    
  0.20190542746709494    0.19433572026660653    0.17376953705048753    0.1472704597775139    0.12242888152309593    
  0.10346869352164638    0.09224155866751915    0.08866297011095445    0.09224154065264459    0.10346873819745099    
  0.12242886222273705    0.14727046243794145    0.1737695361185314    0.19433575983973905    0.20190542746709494    
  0.13495515349497977    0.13209919004590773    0.12411805127386695    0.11354877671120601    0.10346874273467353    
  0.09550977097108336    0.09051112663861194    0.08883757375147792    0.09051111677020865    0.09550976959375918    
  0.10346871871715962    0.11354873848183572    0.12411807183395573    0.13209917241204905    0.13495515349497977    
  0.1000769150533715    0.09929226468628422    0.09722363431589334    0.09461245259527962    0.0922415283500373    
  0.0905111044224291    0.0894541715507053    0.08908762208625313    0.08945414019827806    0.09051112684365742    
  0.09224156881911079    0.09461247545716266    0.09722364123870363    0.09929227305509339    0.1000769150533715    
  0.0894849427813784    0.08928997334155281    0.08895842408128615    0.0887322533079669    0.08866300220288241    
  0.08883755256128922    0.08908762550401719    0.08918428937999481    0.08908759293188627    0.08883760273272058    
  0.08866300155703236    0.08873222392193311    0.08895842679408077    0.08928996424678601    0.0894849427813784    
  0.10007692260102996    0.09929225442471572    0.09722363544950832    0.09461245853412692    0.09224155809418932    
  0.09051110316063572    0.08945416790190124    0.08908763200129526    0.08945413798506731    0.09051113638290581    
  0.09224156636548045    0.09461245046418519    0.09722365549760995    0.09929229779225307    0.10007692260102996    
  0.1349551371188387    0.1320991867731124    0.1241180433953423    0.11354876601915419    0.10346872986495902    
  0.09550977378218369    0.09051111343363313    0.08883758378560205    0.09051110077425724    0.09550978570823247    
  0.10346872354020425    0.1135487523482636    0.12411804670102856    0.1320991702037149    0.1349551371188387    
  0.20190539765473706    0.1943357470133494    0.1737695594195588    0.1472704650089773    0.12242887769830388    
  0.10346872217668301    0.09224155370778743    0.08866298840075293    0.09224154093618243    0.10346871070636282    
  0.12242885880217316    0.14727043389064198    0.17376955022786267    0.19433574167281953    0.20190539765473706    
  0.3059235145637646    0.28940129497406214    0.24652047516747203    0.19408777281940356    0.14727043095649578    
  0.11354874970497063    0.09461248220018575    0.0887322317750318    0.09461243805170544    0.113548776720628    
  0.14727044883409904    0.19408772844086555    0.24652051056250968    0.28940129524964847    0.3059235145637646    
  0.433841304146646    0.4049458388176534    0.3321016626428646    0.2465204954744086    0.17376957152886596    
  0.12411806341135943    0.09722363355162793    0.08895843590340864    0.09722364846304142    0.1241180614678828    
  0.17376958462260306    0.2465205011093173    0.3321016884749495    0.40494572207663215    0.433841304146646    
  0.5445109842847908    0.5047287550167092    0.4049458346826254    0.28940127206534544    0.19433571924566637    
  0.13209919787951308    0.0992922812167937    0.0892899631524533    0.09929223897824746    0.13209921484766998    
  0.19433572787007905    0.28940127783488984    0.40494585103870556    0.5047287547651614    0.5445109842847908    
  0.5885233490269761    0.5445110416001046    0.4338413377991379    0.3059235266071581    0.20190544004623487    
  0.13495514827099894    0.1000769295010291    0.08948492861293744    0.10007689760641453    0.13495516905795943    
  0.20190542854437882    0.3059234700069137    0.4338413744215427    0.544511010138434    0.5885233490269761    
  0.5823631000092239    0.5444931104893695    0.44362199908812405    0.31883946766336096    0.21261813943825328    
  0.14266259648996135    0.10587126906303122    0.09466853320552318    0.10587123965039605    0.14266262437850755    
  0.21261813460097853    0.3188394339331927    0.44362202634574216    0.5444930588864728    0.5823631000092239    
  0.5444930323802073    0.5093797666274336    0.41666200701490974    0.30260218225881813    0.20501087667027892    
  0.13995390895220708    0.10534169664542069    0.0947369477000743    0.10534167028936178    0.13995394569593855    
  0.20501085859695653    0.3026021597885191    0.41666200944208037    0.5093797911401564    0.5444930323802073    
  0.44362201690488823    0.41666197138981265    0.3462184393686174    0.2597953332982237    0.18445910202201585    
  0.13254775611360206    0.10410807521728707    0.09525772465904445    0.10410805642710953    0.13254779034861444    
  0.184459083859263    0.25979533091448204    0.34621843760756676    0.4166619957897415    0.44362201690488823    
  0.3188394485865091    0.3026022066024947    0.2597952974531018    0.20627445609779863    0.1578654374728943    
  0.12280364313022214    0.10278419948926922    0.09642369687247741    0.10278418324154313    0.12280366194939547    
  0.15786543542186637    0.20627444032813044    0.2597952914800326    0.3026021890493903    0.3188394485865091    
  0.21261809643718346    0.20501085646873812    0.1844590658334827    0.15786546654582695    0.13270764321761708    
  0.11339838905472002    0.10178847558155833    0.09800113925179907    0.10178845119312571    0.11339842439244566    
  0.132707636265919    0.15786544250230136    0.18445907907451464    0.20501093034730053    0.21261809643718346    
  0.1426626122325752    0.13995393942229709    0.1325477399811409    0.12280365215128711    0.11339841920270481    
  0.10595013297693232    0.10129105847591939    0.09972847371800984    0.10129105797994258    0.10595012730075788    
  0.11339841745086503    0.12280362464858635    0.13254776063909665    0.13995391244763628    0.1426626122325752    
  0.10587125812801143    0.10534169968391587    0.10410807041006183    0.1027842071883917    0.10178842944914132    
  0.10129104391934245    0.10110275350961796    0.1010351738446594    0.10110271032902345    0.10129109549747856    
  0.101788449877259    0.10278420785233906    0.10410806852379416    0.10534171345360697    0.10587125812801143    
  0.09466853468121994    0.09473694594025639    0.09525773493466365    0.09642372893869766    0.09800117728296844    
  0.0997284661564991    0.10103519527972425    0.10148120414436024    0.1010351539862034    0.0997284855210493    
  0.09800114668284166    0.09642369445141297    0.09525772676308855    0.0947369294872967    0.09466853468121994    
  0.10587126632982707    0.10534169819903377    0.10410806685370778    0.10278419618231042    0.10178844201836826    
  0.10129103352396257    0.10110273582904333    0.10103517115775573    0.10110269995327358    0.10129108849762848    
  0.10178845752941902    0.1027841933578368    0.10410807106371817    0.10534171660555586    0.10587126632982707    
  0.14266259308066387    0.1399539252325221    0.13254775231722773    0.12280367016651918    0.11339841602573476    
  0.10595011853053227    0.10129106170129178    0.09972846318346833    0.10129105262401766    0.10595012895706818    
  0.11339842071983931    0.12280363966398089    0.13254775133956945    0.13995390099817465    0.14266259308066387    
  0.2126180906777236    0.20501087661310236    0.18445906872418893    0.157865458183877    0.13270764423982337    
  0.11339840451762329    0.10178845158729724    0.09800112748099304    0.10178842774072598    0.11339842206919426    
  0.13270762760718266    0.157865444903954    0.18445909003196517    0.20501090239060485    0.2126180906777236    
  0.3188394859828527    0.3026022115430735    0.2597952685197721    0.20627447105897803    0.15786542700853998    
  0.12280364290204528    0.10278421243210054    0.09642370616280714    0.10278418559516955    0.12280366131318272    
  0.15786546487306663    0.20627442261523668    0.25979532973148    0.30260221754675165    0.3188394859828527    
  0.4436219879694348    0.4166620236192511    0.34621842138010867    0.25979531575206055    0.18445910861382292    
  0.1325477707041474    0.10410807570196917    0.09525774471732806    0.10410806571163973    0.13254776864596807    
  0.1844591107805322    0.2597953252948749    0.34621843358692783    0.41666194709765275    0.4436219879694348    
  0.5444930319690765    0.5093797440433668    0.4166619988386082    0.30260221973380974    0.2050108402595227    
  0.13995391141552904    0.10534169848231369    0.09473693116563432    0.10534166186124434    0.13995395391287954    
  0.20501088143472052    0.30260220221291195    0.4166620590343621    0.5093798046050924    0.5444930319690765    
  0.5823631000092239    0.5444931104893695    0.44362199908812405    0.31883946766336096    0.21261813943825328    
  0.14266259648996135    0.10587126906303122    0.09466853320552318    0.10587123965039605    0.14266262437850755    
  0.21261813460097853    0.3188394339331927    0.44362202634574216    0.5444930588864728    0.5823631000092239    
  0.4891813866147402    0.48394350357318616    0.4427108554083128    0.34868973303287853    0.2429829123064167    
  0.16540471449578872    0.1230981436850756    0.11011369631360503    0.12309812997251535    0.16540472038755727    
  0.24298290708121725    0.3486897038761789    0.44271086423888556    0.483943470241581    0.4891813866147402    
  0.48394350361339233    0.4744715861872773    0.4274236179597936    0.3351480883757089    0.23590341961771905    
  0.163492204794341    0.12364344455591882    0.1112892192786783    0.12364341370432434    0.16349222961317594    
  0.23590340891760656    0.3351480658802977    0.427423636677768    0.4744716242386902    0.48394350361339233    
  0.4427109112086156    0.42742356813992743    0.37639903761493326    0.2965361517198803    0.21673096294103636    
  0.15850828114340157    0.12551241967997315    0.1149896150717087    0.12551242654827044    0.15850829780062087    
  0.21673096477819406    0.2965361450342637    0.3763990137660919    0.42742361182767735    0.4427109112086156    
  0.34868969093976754    0.3351481301425171    0.2965361257169649    0.2430462695717319    0.19107503200543496    
  0.1519913056172498    0.12872365917106063    0.1210134985118264    0.1287236074850274    0.1519913371481176    
  0.19107503984143306    0.24304621687487898    0.29653616710045433    0.3351481161724518    0.34868969093976754    
  0.24298284927530583    0.23590342202202932    0.21673093700913315    0.19107505389900242    0.16559841386788338    
  0.1453665814177451    0.132696851346513    0.12836629436572022    0.13269681534758215    0.1453666064481287    
  0.16559841669755684    0.19107501553248302    0.2167309578109056    0.23590347564528433    0.24298284927530583    
  0.1654047100364483    0.1634922009286723    0.15850827003811196    0.15199132479463479    0.14536661124910097    
  0.13999445214119097    0.1366797965811164    0.13556165823690816    0.13667978633390937    0.13999444754130666    
  0.1453666229192317    0.15199127270702525    0.15850829134536526    0.16349216801700764    0.1654047100364483    
  0.1230981421434817    0.1236434401074595    0.1255124192379265    0.12872362274492735    0.13269679841893262    
  0.13667977843478027    0.13959299362437796    0.14060399753942937    0.139592975052419    0.13667981967624349    
  0.13269685002476442    0.1287236604223765    0.12551243332080295    0.12364346082897723    0.1230981421434817    
  0.11011369413686972    0.11128920705082936    0.11498963434644259    0.12101352121289163    0.1283663422001097    
  0.1355616564869553    0.14060403409923442    0.14229898268094282    0.14060397240821942    0.13556166870613395    
  0.12836632275898938    0.12101349032874906    0.114989624692435    0.11128919655183768    0.11011369413686972    
  0.12309814570531948    0.12364344800840832    0.1255124217886373    0.12872363561828618    0.13269683464315868    
  0.1366797672418486    0.1395930026295221    0.1406040074473949    0.1395929703414403    0.13667981035117005    
  0.13269681580544784    0.12872363954026922    0.12551243222839614    0.12364346070678411    0.12309814570531948    
  0.16540471678059657    0.1634921844671667    0.15850825270487018    0.1519913360664631    0.14536660701807289    
  0.1399944283122397    0.13667977927699293    0.1355616758595846    0.1366797885483698    0.13999444421502677    
  0.1453666258613274    0.15199130063185026    0.15850828276443002    0.16349217358147722    0.16540471678059657    
  0.24298285304553105    0.23590342069303155    0.21673094964271783    0.1910750439699922    0.16559841058131533    
  0.1453666064294047    0.13269683520971418    0.1283663012612328    0.1326968060565201    0.14536660307905047    
  0.16559839027761805    0.19107505666073832    0.21673094312803312    0.23590343146266574    0.24298285304553105    
  0.3486897796768131    0.33514810744890894    0.2965361168818041    0.24304627721022565    0.19107503800403078    
  0.15199130047063703    0.12872366654480213    0.12101349314393632    0.1287236317148644    0.15199133052581015    
  0.19107504230457328    0.24304624373077982    0.2965361682532609    0.3351481280172065    0.3486897796768131    
  0.44271084113270753    0.4274236288817925    0.3763990143934026    0.2965361531259982    0.21673098100772276    
  0.1585082681531434    0.12551241818988929    0.11498964281605714    0.12551241378415287    0.15850826217550104    
  0.2167309626241779    0.2965361345871805    0.37639903226140303    0.42742353564410024    0.44271084113270753    
  0.4839435101071287    0.47447156824493303    0.4274236156293965    0.33514809256807504    0.23590339681396275    
  0.1634921885776264    0.12364344003205271    0.11128920626943947    0.1236433918367653    0.16349222959745166    
  0.23590341132244017    0.33514808410993263    0.4274236683605983    0.47447161291758316    0.4839435101071287    
  0.4891813866147402    0.48394350357318616    0.4427108554083128    0.34868973303287853    0.2429829123064167    
  0.16540471449578872    0.1230981436850756    0.11011369631360503    0.12309812997251535    0.16540472038755727    
  0.24298290708121725    0.3486897038761789    0.44271086423888556    0.483943470241581    0.4891813866147402    
  0.26334705276174586    0.3044571128592566    0.37756054734092803    0.37211447810187814    0.2862023449622019    
  0.20076701951028703    0.15054319650211168    0.13492650558947789    0.150543156423789    0.2007670566269333    
  0.28620232264213225    0.3721144005221376    0.3775605838238328    0.3044570866464299    0.26334705276174586    
  0.3044571152659532    0.3381275345262335    0.3897885083334023    0.36784560554723045    0.2817782603945226    
  0.20105405500171644    0.15355628492107043    0.13862382494037825    0.1535562706550486    0.20105411871686654    
  0.2817782628206522    0.3678456247738806    0.389788508693631    0.3381275635266259    0.3044571152659532    
  0.3775605744567253    0.38978849088103584    0.3938080735600164    0.34646415568074973    0.26843199287454067    
  0.20192637060887214    0.16218876788086417    0.14927874681590525    0.16218877110177538    0.20192639140726304    
  0.2684319925970885    0.34646416326160573    0.393808070157593    0.38978852222044735    0.3775605744567253    
  0.372114363949041    0.3678456358135724    0.34646413830103007    0.30156547630264385    0.24766273977136313    
  0.20314426400705773    0.1752810792683644    0.16576603359828404    0.1752810342964865    0.2031443016759799    
  0.24766272023249677    0.3015653933493457    0.3464641688186211    0.3678456637076186    0.372114363949041    
  0.2862023046327593    0.2817782519787553    0.2684319336740642    0.2476627385739791    0.22424423058560397    
  0.2040420852181532    0.19053562774247773    0.18568235401187413    0.19053557709839597    0.20404211635774072    
  0.22424427194608068    0.24766270665029852    0.2684320069693265    0.2817782934259938    0.2862023046327593    
  0.20076701901105948    0.2010540859938653    0.20192634530225106    0.20314428554472608    0.20404212646648337    
  0.20444751825388846    0.2045284713193632    0.20447229177975476    0.20452847824020443    0.20444750940593256    
  0.20404210011738053    0.20314424918749474    0.20192635334495396    0.20105404614896666    0.20076701901105948    
  0.15054318498519273    0.15355628804459118    0.16218873738590148    0.17528106076821387    0.19053558988697727    
  0.2045284478936431    0.21384854504129616    0.21694785923098928    0.2138485424721193    0.20452852114677633    
  0.190535605491676    0.17528107261204848    0.16218880267268476    0.15355630846953455    0.15054318498519273    
  0.13492651441771597    0.1386237935672307    0.1492787762841288    0.16576606061790142    0.18568239834194256    
  0.20447229660998908    0.2169479049069045    0.22099907549252507    0.2169478470165406    0.2044722912881635    
  0.18568237309088476    0.16576602843339952    0.14927876768836232    0.13862379197930838    0.13492651441771597    
  0.15054318616595846    0.15355627892932222    0.1621887542959581    0.17528108766157197    0.19053561934125487    
  0.20452844345799126    0.21384855505942482    0.21694789198601158    0.21384852141283103    0.2045284762081018    
  0.19053559029919814    0.17528107648847727    0.1621887735442026    0.15355631343044787    0.15054318616595846    
  0.20076703500848597    0.20105405005913093    0.20192635344884816    0.20314430239512654    0.20404208445299393    
  0.20444748028979215    0.20452846572238587    0.20447228704627657    0.20452846827456272    0.20444752523309734    
  0.20404214720135308    0.2031442749380593    0.20192638011096103    0.2010540503528958    0.20076703500848597    
  0.2862022992056825    0.2817782636231592    0.26843197949775194    0.24766271772642562    0.22424426556486826    
  0.20404211364502553    0.19053561438596725    0.1856823357804479    0.19053555047158166    0.2040421059016494    
  0.22424424532780352    0.24766274129901733    0.2684319996229174    0.2817782560459646    0.2862022992056825    
  0.3721144699303649    0.36784563115124774    0.34646412372371016    0.3015654754773918    0.2476627276437258    
  0.20314427076584762    0.17528110560816476    0.16576605337334605    0.17528104856942867    0.2031443034073648    
  0.2476627257076729    0.3015653837665832    0.3464641899188475    0.367845659217877    0.3721144699303649    
  0.37756053803199    0.38978854478060476    0.39380808798802636    0.346464176675724    0.2684320004823884    
  0.20192636678808104    0.16218874926659912    0.1492787831786814    0.16218876807488306    0.20192636981071535    
  0.26843199831890063    0.34646412157709605    0.3938080575698767    0.3897884371515227    0.37756053803199    
  0.30445712981476947    0.33812752051373574    0.38978851726181    0.36784565055476337    0.2817782563662559    
  0.20105407388558996    0.15355628780285252    0.13862381140483532    0.15355625142881096    0.2010541056042264    
  0.2817782789710102    0.36784562484335276    0.3897885641686387    0.33812755455744514    0.30445712981476947    
  0.26334705276174586    0.3044571128592566    0.37756054734092803    0.37211447810187814    0.2862023449622019    
  0.20076701951028703    0.15054319650211168    0.13492650558947789    0.150543156423789    0.2007670566269333    
  0.28620232264213225    0.3721144005221376    0.3775605838238328    0.3044570866464299    0.26334705276174586    
  0.09422768871465889    0.1419530328806122    0.2805235191177904    0.3777836040869919    0.3314674584418417    
  0.24254754982008914    0.18443558450102032    0.16596173574365577    0.18443552429886084    0.24254756543451106    
  0.33146747688076417    0.37778349750827883    0.2805235613409965    0.1419530272644926    0.09422768871465889    
  0.14195305574057482    0.19233104089634373    0.31920668092769044    0.3884438082977296    0.3327219725988813    
  0.24688123355138336    0.1914866575784799    0.17374044985863726    0.19148662680268527    0.24688129072023604    
  0.332721924014536    0.3884438276296879    0.31920672255850513    0.19233107765076246    0.14195305574057482    
  0.28052353767120314    0.31920667748849574    0.3904244523627303    0.3975109658349376    0.3316848947399546    
  0.25838157171068404    0.21157126413478422    0.19614679281279157    0.21157127706866638    0.258381595661618    
  0.3316848816195768    0.39751097833404947    0.39042446240525824    0.31920668418561543    0.28052353767120314    
  0.3777835099573994    0.38844383722991577    0.3975109436116555    0.37271061652835197    0.3224079428896709    
  0.27414227624109094    0.24207611977689264    0.23087072829316954    0.24207606017858233    0.2741423234473833    
  0.32240792750841396    0.3727105604835497    0.39751097108882555    0.3884438455202894    0.3777835099573994    
  0.3314674341398367    0.3327219368393562    0.3316848502176035    0.3224079934030623    0.3067131132541565    
  0.2900989981186955    0.2769648224976131    0.2717404314508106    0.27696474618246675    0.29009905762079335    
  0.3067131426807469    0.32240794052287325    0.33168491578429876    0.332721989441687    0.3314674341398367    
  0.24254756069366284    0.2468812631222374    0.2583815533950248    0.2741422949158964    0.2900990797660139    
  0.3011761437823404    0.30544399530332367    0.3059978169420635    0.3054440030671741    0.3011761502854765    
  0.2900990496175525    0.27414226436617106    0.2583815649480638    0.24688120787127577    0.24254756069366284    
  0.1844355649037974    0.19148666036023007    0.21157126565244988    0.24207608591581298    0.2769647746256362    
  0.3054439911726574    0.3200339025598543    0.32353961191322966    0.32003390391417513    0.30544404882960247    
  0.2769647731362502    0.24207610801996768    0.21157129015042056    0.1914866716289957    0.1844355649037974    
  0.16596175797069454    0.17374041266236012    0.19614679980672337    0.23087076280271937    0.2717404709154689    
  0.3059977961305032    0.3235396499082778    0.327595543043661    0.32353953597266344    0.3059978124216395    
  0.2717404496825115    0.23087073114174625    0.1961467950494267    0.17374040958373507    0.16596175797069454    
  0.18443557778902683    0.19148664218618516    0.2115712897967817    0.2420761333240449    0.27696479152642633    
  0.3054439695872398    0.3200339013760002    0.32353963273671155    0.32003385722370015    0.30544402859348413    
  0.27696478555981047    0.24207611682199603    0.21157127592869132    0.1914866861553359    0.18443557778902683    
  0.24254754926915    0.24688122723088612    0.2583815463447021    0.2741422875483063    0.2900990227974412    
  0.30117612368589575    0.30544397767249043    0.3059978291417461    0.30544398128440364    0.3011761938522707    
  0.29009909033977255    0.27414225878059617    0.25838159529851923    0.24688123391669395    0.24254754926915    
  0.3314673860308724    0.33272191021234304    0.33168488128929113    0.32240796099465535    0.3067131456659738    
  0.29009902851185637    0.2769648118400879    0.2717404127764259    0.27696474279358474    0.2900990457006109    
  0.30671311416717284    0.32240796181701    0.33168489942025137    0.3327219203280473    0.3314673860308724    
  0.37778358455285094    0.38844382365249347    0.3975109192743132    0.3727106555593017    0.3224079249671193    
  0.2741422834546561    0.2420761494600816    0.2308707381899471    0.2420761023038544    0.2741422995250479    
  0.32240793940118245    0.3727105295522395    0.39751095799623787    0.3884438812493374    0.37778358455285094    
  0.28052351361869293    0.3192067040415511    0.3904244751646883    0.39751095708099743    0.33168489527823314    
  0.25838159907826186    0.21157128244588788    0.19614681414360122    0.2115712664770031    0.2583815851758384    
  0.3316849190838419    0.39751094439303297    0.3904244666655584    0.3192066382628791    0.28052351361869293    
  0.1419530537265959    0.1923310604831114    0.3192067049615504    0.3884438307539092    0.33272193726888044    
  0.2468812539459841    0.19148665093807102    0.17374042023534003    0.1914865980942173    0.24688128657253303    
  0.33272196351512523    0.38844380361989744    0.31920671901919057    0.19233106793573165    0.1419530537265959    
  0.09422768871465889    0.1419530328806122    0.2805235191177904    0.3777836040869919    0.3314674584418417    
  0.24254754982008914    0.18443558450102032    0.16596173574365577    0.18443552429886084    0.24254756543451106    
  0.33146747688076417    0.37778349750827883    0.2805235613409965    0.1419530272644926    0.09422768871465889    
  0.05139346591495237    0.09279831996455574    0.2426600018226068    0.3887181667950672    0.3689733773262046    
  0.2797403296159726    0.2167448018310066    0.19626246202967138    0.21674474424709303    0.279740374864447    
  0.3689733686509955    0.388718059268226    0.24266006387273142    0.09279829238404057    0.05139346591495237    
  0.09279830200074396    0.14257150078440298    0.292541118481361    0.4103715975530156    0.3767282022510085    
  0.28928674578575486    0.22879706696189814    0.20902411785424346    0.22879707032663857    0.2892867780769561    
  0.37672815914361935    0.4103715518868126    0.29254109175468906    0.14257149363107838    0.09279830200074396    
  0.24266005807174487    0.29254107471199364    0.39979840608014583    0.44433789048034994    0.3911574348655318    
  0.31534725211633813    0.26402901647059446    0.24680748079324688    0.26402901758545055    0.31534725576812306    
  0.39115747206202045    0.4443378920209834    0.39979840613374024    0.29254108505418697    0.24266005807174487    
  0.3887180677864939    0.4103716339668621    0.4443378358751729    0.4404222098649212    0.39920379623638824    
  0.35203031480179137    0.3180205418022497    0.30564622051292467    0.3180204618115788    0.3520303662800248    
  0.39920378062364353    0.44042212201060393    0.4443379096582234    0.41037163097760476    0.3887180677864939    
  0.3689733606661152    0.3767281557085019    0.39115742502032536    0.39920383198645243    0.3977740667448091    
  0.3880729309337025    0.37425210275366494    0.3673124900730517    0.3742519717578835    0.38807297750780945    
  0.39777404991841936    0.3992037647623064    0.391157470213866    0.3767282156752207    0.3689733606661152    
  0.27974034243911544    0.28928675984485913    0.31534720854309223    0.35203032742980217    0.3880730044668031    
  0.4059598564736622    0.401552805314364    0.39522364710669533    0.4015528195711323    0.4059598899077672    
  0.38807304562245526    0.3520302829999851    0.3153472523479605    0.28928669513778726    0.27974034243911544    
  0.21674476566421008    0.2287970678537444    0.264029027223337    0.31802047874634487    0.3742520215352738    
  0.4015528030316236    0.3912863997854416    0.37949497074209587    0.39128636869001276    0.40155288794619526    
  0.37425203725658285    0.3180204975287672    0.264029077580916    0.22879710492905014    0.21674476566421008    
  0.19626250676853532    0.20902407849474858    0.24680749594298462    0.3056462573356022    0.3673125421051172    
  0.39522368087567916    0.3794949911837289    0.36425400269535724    0.37949489128712893    0.39522368456775214    
  0.36731247805479694    0.30564620213808796    0.2468074800681351    0.2090240570271673    0.19626250676853532    
  0.21674481022501846    0.22879707773756117    0.26402905728907355    0.31802052002660036    0.3742520106832689    