#     DFTpy    
  CRYSTAL 
    
  PRIMVEC    
  5.3407586206896545    0.0    0.0    
  0.0    5.3407586206896545    0.0    
  0.0    0.0    2.9424137931034484    
  PRIMCOORD    
  4    1    
  Si    0.0    0.0    0.0    
  Si    2.6703793103448272    2.6703793103448272    1.4712068965517242    
  Si    0.0    2.6703793103448272    0.7356034482758621    
  Si    2.6703793103448272    0.0    2.206810344827586    
  BEGIN_BLOCK_DATAGRID_3D    
  3d_datagrid_density    
  BEGIN_DATAGRID_3D#0    
  23    23    13    
  0.0    0.0    0.0    
  5.3407586206896545    0.0    0.0    
  0.0    5.3407586206896545    0.0    
  0.0    0.0    2.9424137931034484    
  0.061444629916870934    0.1131850791700853    0.28521103132435005    0.40286090475374414    0.34096907181485975    
  0.25521824201968585    0.22137966467958903    0.23874531863900958    0.29394081562750085    0.3549970318548335    
  0.38430438001530026    0.388312097690465    0.38430439348499873    0.3549970094548341    0.2939408292685934    
  0.23874535549400439    0.2213796842737202    0.2552182407669002    0.34096912689376124    0.40286091374987515    
  0.28521102640159657    0.11318507495177972    0.061444629916870934    0.1131850632915332    0.1719352489220084    
  0.3266391759943507    0.39640288307080174    0.32030154468761635    0.23836877018545727    0.2068956218209034    
  0.222894730792829    0.27492865909034003    0.3362700902236172    0.37191262426254007    0.38014129095203153    
  0.37191260162583545    0.33627003242936165    0.2749286798251798    0.2228947420465598    0.20689561278880256    
  0.23836873076085363    0.32030155093847346    0.3964028650169524    0.32663918440701945    0.17193525292582895    
  0.1131850632915332    0.28521104839589917    0.3266391603852974    0.3872890302124236    0.35640296795226944    
  0.2650877045007276    0.19642144945159737    0.17142878106188855    0.1840283250664566    0.22644562774847568    
  0.28201317423474065    0.32391836673171004    0.33816019561035543    0.323918443118064    0.2820131943431965    
  0.22644558545175597    0.18402834607349663    0.17142878161887365    0.1964214727601605    0.26508770501927503    
  0.3564029386763066    0.38728902202795956    0.3266391750651036    0.28521104839589917    0.40286095633945623    
  0.39640284961971434    0.3564028893843859    0.2770166183098854    0.1979571931383651    0.14833069846203387    
  0.13066246807564816    0.13925357794339976    0.1689082552247568    0.21004180351748133    0.24547964139753325    
  0.2593296851834986    0.2454796575714552    0.210041810364089    0.16890824079808706    0.13925356873721964    
  0.13066248799009544    0.14833067912806772    0.19795722440161    0.2770166058803077    0.35640289622014976    
  0.39640285438481065    0.40286095633945623    0.3409691159808671    0.32030155122761145    0.2650877079920023    
  0.19795722412413957    0.14286219338804124    0.1095472036180826    0.0973100209319555    0.10257016726315416    
  0.1215172877145405    0.14802029673158457    0.1717362127113835    0.18134314010148095    0.17173621207347936    
  0.14802028522311145    0.12151726601060944    0.10257014746635319    0.09731004347349155    0.10954721409554707    
  0.14286219387173157    0.1979572075965583    0.26508765797475503    0.32030159196754054    0.3409691159808671    
  0.2552182174798665    0.23836876285304875    0.19642146671190425    0.14833068917888792    0.10954719951806272    
  0.08587341700528779    0.07677646118219202    0.07982904698743598    0.09205005704815455    0.10917768040745984    
  0.12459095655746409    0.13083797590794122    0.12459096817377403    0.10917770612663677    0.09205006649730325    
  0.0798290472566464    0.07677646368803673    0.08587341821152777    0.1095471880951009    0.14833070022782327    
  0.19642141459275664    0.23836876016997188    0.2552182174798665    0.2213796684883485    0.20689560701501844    
  0.17142879335667746    0.13066248205295283    0.09731003628755232    0.07677646186102394    0.06851329626397083    
  0.07025426957089516    0.07941724450669584    0.09252966548033983    0.10437110529980445    0.10914726660612815    
  0.10437112046357422    0.0925296615217214    0.07941724036021966    0.0702542759327685    0.06851329088790352    
  0.07677646184401717    0.09731003413987667    0.13066247949426243    0.17142877326468473    0.20689562623123045    
  0.2213796684883485    0.23874529681582338    0.22289473176061111    0.18402828816764616    0.13925359459581613    
  0.10257014625265426    0.0798290474373725    0.07025425304172811    0.07136664493353466    0.08036086231520866    
  0.09348106025223502    0.10538534424901304    0.11020973914908577    0.1053853404736249    0.09348105436611431    
  0.08036083384056378    0.07136664398119502    0.07025426729475949    0.07982903421552646    0.10257015678269489    
  0.13925359819645658    0.184028263656752    0.2228947459986388    0.23874529681582338    0.29394085159187083    
  0.2749286363778249    0.2264455615223133    0.16890826429014716    0.12151726637402138    0.09205006182899639    
  0.07941722798973931    0.08036086564829345    0.0913428814263284    0.10767498392498509    0.12255861457020345    
  0.1286055399217192    0.12255862971716248    0.10767498400054512    0.09134289075993304    0.0803608545949369    
  0.07941723892718283    0.09205004184256586    0.12151728490498642    0.16890824416743108    0.22644555799264846    
  0.2749286684898325    0.29394085159187083    0.35499707886442683    0.33627007868692366    0.2820131733906205    
  0.21004184413500326    0.14802031289703338    0.10917773096899222    0.09252966649947494    0.09348107546412063    
  0.10767501402399392    0.12926335004848788    0.1489956868144206    0.15699460427699763    0.1489957442729912    
  0.12926334651203092    0.10767499020533662    0.09348108012328257    0.09252966786087673    0.10917770911294246    
  0.14802032815121363    0.2100418259940875    0.2820131832534447    0.3362701121589748    0.35499707886442683    
  0.3843043963508666    0.37191257776794473    0.32391842025426315    0.24547962579576427    0.17173618588097936    
  0.12459095711538343    0.1043710901990351    0.10538534809947382    0.12255864329587349    0.14899574958908093    
  0.1734656748233007    0.18353770648824613    0.17346567697261103    0.1489957117308281    0.12255860174690424    
  0.1053853761563294    0.10437111033391522    0.12459093345940948    0.1717362168431441    0.24547963631559255    
  0.3239184215745894    0.37191259049813385    0.3843043963508666    0.38831212084730626    0.3801412127919191    
  0.3381601259612676    0.25932972941383303    0.18134312018267149    0.1308379893255805    0.10914723469073638    
  0.11020972893944941    0.12860552611958662    0.156994586240344    0.18353763018868355    0.19461236727423034    
  0.1835376458027635    0.15699457275159287    0.12860553011567127    0.1102097437446008    0.10914724899228716    
  0.1308379673321017    0.1813431777218805    0.2593296974015001    0.3381601355926494    0.3801412221245878    
  0.38831212084730626    0.3843043714013873    0.37191262915786016    0.3239183975411892    0.2454796514273216    
  0.17173619952328759    0.12459095478872141    0.10437110977829603    0.1053853588691486    0.12255862871930791    
  0.1489957335243261    0.17346568167409532    0.18353768457540062    0.1734656570922185    0.14899567854573934    
  0.12255861953402143    0.10538536857090515    0.10437110058395818    0.12459094369539912    0.17173621787932153    
  0.24547969156337113    0.32391842044218466    0.37191261206904    0.3843043714013873    0.3549970755101485    
  0.3362700562117147    0.28201316212678296    0.21004183550585814    0.1480203052330353    0.10917772886650906    
  0.09252967036219317    0.09348106483929335    0.10767501264401771    0.12926334375322385    0.14899569074240118    
  0.15699462708059655    0.14899572903122443    0.1292633598275677    0.10767499118728316    0.09348107224736425    
  0.09252968176385631    0.10917771054243473    0.14802032961934622    0.21004183792776152    0.2820132007618918    
  0.3362700918339785    0.3549970755101485    0.2939408305157916    0.2749286914314041    0.22644554995924332    
  0.16890825579419838    0.12151727311761583    0.09205005424954774    0.07941723110123938    0.0803608604633994    
  0.09134286723620547    0.10767495651160391    0.12255863587743082    0.12860554143650113    0.12255862111330244    
  0.10767497837269151    0.09134288379432322    0.08036085651360488    0.07941724104355502    0.09205004765839449    
  0.12151729591167869    0.1689082308173616    0.22644557895216452    0.2749286550718989    0.2939408305157916    
  0.23874533412583201    0.22289469007903676    0.18402829851235175    0.13925358941158697    0.10257015345188716    
  0.07982903466990111    0.07025425850039156    0.07136665512103442    0.08036086398818475    0.09348104864443828    
  0.10538533570004392    0.11020970707659783    0.10538536513068698    0.09348105748404067    0.08036084362324958    
  0.07136664690316342    0.0702542751682862    0.07982904376830413    0.10257015248014432    0.13925357008502004    
  0.18402828436394744    0.22289477601177002    0.23874533412583201    0.22137965063816573    0.20689562310053633    
  0.17142879978842057    0.1306624920398183    0.09731002860790497    0.0767764632338533    0.0685133036310726    
  0.0702542562132698    0.0794172372524778    0.09252966945904571    0.10437111271409938    0.10914726705582353    
  0.10437112115250156    0.09252967778401791    0.07941724237962956    0.07025426621663736    0.06851329493637529    
  0.076776468210547    0.09731003628943802    0.13066248099065808    0.1714287801020157    0.2068956462244326    
  0.22137965063816573    0.25521822350476664    0.23836873693134547    0.19642146508481678    0.1483306855220688    
  0.1095471984197597    0.08587341869162958    0.07677646800844092    0.07982904384559052    0.09205006502378063    
  0.10917768791958304    0.1245909321806337    0.13083798948290168    0.12459096355188008    0.10917769963949049    
  0.09205004678990847    0.07982905431346454    0.076776461813247    0.08587340800823066    0.109547192461033    
  0.14833066950052723    0.19642143505216045    0.2383687737002985    0.25521822350476664    0.34096913746982016    
  0.32030152334309975    0.26508768573517005    0.19795721452354245    0.1428621857220596    0.10954719418811072    
  0.09731003108235867    0.10257016081474966    0.12151727854461584    0.14802030912090045    0.17173619756563605    
  0.1813431427573788    0.17173621128179908    0.14802029999998745    0.1215172766490913    0.10257014960350054    
  0.09731003553047672    0.10954721036261202    0.14286220822023035    0.19795720465660768    0.265087682239571    
  0.32030160162009974    0.34096913746982016    0.4028609533677212    0.3964028157489583    0.35640288449440444    
  0.27701659395600925    0.1979572261122875    0.14833069310237956    0.1306624604712439    0.13925359918076374    
  0.16890822279934692    0.2100418166215295    0.2454796295760508    0.25932971584903497    0.24547962239443702    
  0.2100418242718033    0.1689082544839894    0.13925355646594523    0.13066247416196558    0.1483306921995082    
  0.19795719896279965    0.27701658734003154    0.3564028963523692    0.39640281488564066    0.4028609533677212    
  0.28521102957884586    0.32663917806444487    0.38728901573676416    0.35640294111470044    0.26508766909275344    
  0.1964214867615283    0.1714287946165297    0.1840283116995897    0.22644564087646726    0.2820131970491058    
  0.3239183346829427    0.33816014224567087    0.32391847325061723    0.2820131640701335    0.2264455776717992    
  0.18402833235090846    0.1714287848381287    0.19642144786654173    0.26508772154918403    0.3564029663114597    
  0.387289011239148    0.3266391809814746    0.28521102957884586    0.11318508192486294    0.17193524140034813    
  0.326639182094913    0.39640284255011804    0.32030153403954775    0.23836876407327556    0.206895622494431    
  0.22289471821804985    0.2749286744999052    0.33627007525161884    0.3719126483846784    0.3801412738950219    
  0.37191263554477905    0.3362700383847972    0.2749286839139655    0.2228947671658225    0.20689560910647053    
  0.2383687285222341    0.3203015733392834    0.39640287375565786    0.3266391720109833    0.17193525829121029    
  0.11318508192486294    0.061444629916870934    0.1131850791700853    0.28521103132435005    0.40286090475374414    
  0.34096907181485975    0.25521824201968585    0.22137966467958903    0.23874531863900958    0.29394081562750085    
  0.3549970318548335    0.38430438001530026    0.388312097690465    0.38430439348499873    0.3549970094548341    
  0.2939408292685934    0.23874535549400439    0.2213796842737202    0.2552182407669002    0.34096912689376124    
  0.40286091374987515    0.28521102640159657    0.11318507495177972    0.061444629916870934    0.11370076687158712    
  0.17172944647248525    0.32231845496454975    0.38501354763282375    0.3028841563897022    0.21502069250057956    
  0.17458861678735987    0.17553407735533996    0.2072752154503744    0.2554723972379013    0.29753701007824246    
  0.31413212888020237    0.2975370252538792    0.25547237394254446    0.20727523777217405    0.1755340854386527    
  0.17458863756027107    0.2150206769880128    0.3028842629793655    0.38501354915831165    0.3223184564562174    
  0.17172944193315823    0.11370076687158712    0.173128061143891    0.23039609580472384    0.3528061116711173    
  0.3751661366998842    0.2849792137724848    0.2018361483112372    0.16433653648072127    0.16516818257283977    
  0.1945100448823791    0.23939478247990206    0.2789989560612888    0.29473197646612115    0.2789989666619895    
  0.239394729752983    0.19451005382134104    0.16516819271671118    0.16433652152867848    0.2018361427101355    
  0.28497923719499396    0.37516613943790933    0.3528061078309395    0.23039608977033113    0.173128061143891    
  0.33154134810448177    0.36029566320985335    0.3877008974817983    0.33327128960866514    0.2381732476342464    
  0.16902727508020363    0.13894105317132327    0.13953227977821478    0.1627896933962038    0.19872266352223983    
  0.23121885138376522    0.24436701608878245    0.2312189182118798    0.19872268569264584    0.16278964604376533    
  0.1395323030693377    0.1389410568270062    0.16902724492464544    0.2381732972638557    0.3332712412196848    
  0.3877009276875115    0.36029565695570936    0.33154134810448177    0.4091462326105097    0.39626070526782314    
  0.3451833295722342    0.2612089207943161    0.18214881065744562    0.13151172415962806    0.10965877773530153    
  0.10989895591049463    0.12626064344262353    0.15148920827323512    0.17465268097961725    0.18416499595090782    
  0.17465270171366878    0.15148918747972887    0.12626065252406085    0.10989894594319002    0.10965876053226875    
  0.13151170866594425    0.18214882095615162    0.26120889360111565    0.34518331041457506    0.3962607058301164    
  0.4091462326105097    0.3429777574996169    0.32071480053492823    0.2627087276462949    0.19354043542316157    
  0.13690452854282062    0.10161966134219329    0.0860565449488321    0.08587768464495393    0.09679023818240338    
  0.11359233444231757    0.12901287051895646    0.1353218708740739    0.12901289630792562    0.1135923417231622    
  0.09679021671819242    0.08587768508306443    0.0860565603777568    0.10161967614157828    0.13690452630272407    
  0.19354038545478333    0.2627086995560851    0.3207148633497898    0.3429777574996169    0.27294339211710256    
  0.2542298093625239    0.20782020541956442    0.15461201188534193    0.11153568237812932    0.084651402241959    
  0.07257511225033997    0.07200404141702611    0.0796249172025182    0.09164135101884568    0.10274904811589061    
  0.1072551748785012    0.10274905552618455    0.09164137492801387    0.07962493074319985    0.07200404134017638    
  0.0725751143633557    0.08465139139993817    0.11153568750289711    0.15461200905701933    0.20782020702990922    
  0.2542297921487055    0.27294339211710256    0.2596229231102284    0.2418103339474986    0.19802697584217674    
  0.14781241331016529    0.10688922890465016    0.08126834968525787    0.06960512317608199    0.06868460377501195    
  0.07533175411902236    0.08603649011868314    0.09598836422424026    0.10002963945528806    0.09598839074580345    
  0.08603649388537671    0.0753317597346498    0.06868460056036874    0.0696051116387283    0.08126834786500908    
  0.10688923599662369    0.14781242056810148    0.19802698795884602    0.2418103832579356    0.2596229231102284    
  0.3037731944071611    0.28301717979472263    0.23113940616643383    0.17084231476872172    0.12155075739269844    
  0.0905950171075599    0.07636732386781525    0.07506265788817097    0.08283521226947371    0.09529807107921548    
  0.10687248773824466    0.1116210324637297    0.10687246218180474    0.09529807903314606    0.08283519513046504    
  0.07506264876528526    0.07636734703799095    0.09059502030571742    0.12155076331392457    0.1708422924698674    
  0.2311393934009837    0.28301721949064834    0.3037731944071611    0.3760569755845307    0.35559310386852966    
  0.29695857708794277    0.21970451826095963    0.15299300357407714    0.11068559575222907    0.09134930499279557    
  0.08951547741067685    0.10001955185771456    0.11704988435340331    0.13296159771022453    0.13955369918250138    
  0.1329616140761818    0.11704991236855525    0.10001956104374427    0.08951547748883609    0.09134932653619118    
  0.11068560251478038    0.15299301024659    0.21970453404999987    0.2969585624445727    0.35559311872757815    
  0.3760569755845307    0.3931468326548092    0.39159571904978835    0.35908478655136544    0.2791719862873725    
  0.19373719803764017    0.1367698886403052    0.11081063563957265    0.10829036758884686    0.12250942635829296    
  0.1460409731805139    0.16810815807579832    0.17724784249217937    0.16810824241993358    0.14604098908984278    
  0.12250938602164343    0.10829036580812412    0.11081064194668737    0.13676987111505212    0.1937372467179639    
  0.2791719797934817    0.35908479681114136    0.3915957243718372    0.3931468326548092    0.3261830136862026    
  0.35369680825740596    0.3787730214294814    0.3235773949474331    0.2290563696296973    0.15979581222490147    
  0.12784961748636098    0.1247183946222635    0.14236178224745286    0.1718613109423303    0.19969643373905155    
  0.2113141401404634    0.19969642663542297    0.17186130072742248    0.14236176351888577    0.12471841308027061    
  0.12784960583569488    0.1597957971600088    0.22905640391437143    0.32357740366391713    0.3787730225728932    
  0.35369684690173775    0.3261830136862026    0.28377806605348144    0.32265940092874457    0.37626300181892025    
  0.3386929120160129    0.24307972465090977    0.1690899405514344    0.1346786594489945    0.13129774995033092    
  0.15034566605007252    0.18226403832469038    0.21255243769627877    0.2252897084003646    0.21255246994339463    
  0.1822640437902346    0.15034565891475304    0.13129776687433012    0.13467869155899653    0.16908992260686684    
  0.24307977169040343    0.338692869683152    0.37626303775640985    0.32265937426807184    0.28377806605348144    
  0.3261829875682151    0.353696856311395    0.3787730363040939    0.3235774118001599    0.2290564173281785    
  0.15979581325617848    0.12784961709091197    0.12471839362643314    0.14236179612494068    0.17186131653692932    
  0.19969644873128992    0.21131413133174443    0.1996964514215818    0.17186127867255926    0.14236180639484713    
  0.12471842125899288    0.12784960691767447    0.159795808498224    0.22905639138083295    0.32357741866476797    
  0.3787730611145102    0.35369687192837174    0.3261829875682151    0.3931468796111857    0.39159573104558804    
  0.35908476459551747    0.27917195545999046    0.1937372064478401    0.13676986601575494    0.11081064334315162    
  0.10829035656318667    0.12250941803332809    0.1460409905539611    0.16810817356276483    0.17724787179419868    
  0.16810822161121255    0.14604097330748603    0.12250939913457434    0.10829036546820443    0.11081065975905244    
  0.13676985956210605    0.193737233680826    0.27917192201020746    0.3590847861212961    0.3915957603434221    
  0.3931468796111857    0.3760569557912351    0.3555930867813954    0.29695856532239284    0.21970454251040294    
  0.15299301001473853    0.11068562079164095    0.09134930790212455    0.08951548143598953    0.10001955941643953    
  0.11704989069247138    0.13296162221967758    0.1395536723070304    0.13296161929692196    0.11704990883359846    
  0.1000195386349139    0.08951548323147973    0.09134930136665631    0.11068560263692195    0.15299300163654195    
  0.2197045307798409    0.29695854967024665    0.3555930974820317    0.3760569557912351    0.3037731902072298    
  0.2830171666949048    0.23113943719941443    0.17084228792054124    0.12155076532703821    0.09059500393030229    
  0.07636734738668605    0.07506266528600623    0.0828352070605416    0.09529807583718276    0.10687245905638554    
  0.11162101883132466    0.10687250665378488    0.09529807222711001    0.0828351875867233    0.07506264931753856    
  0.07636734453188469    0.09059501436485443    0.12155075886011603    0.17084229472440374    0.231139409024014    
  0.28301722966731024    0.3037731902072298    0.25962292737340625    0.24181033743238817    0.19802697756638424    
  0.14781244525687823    0.10688921954655542    0.08126836320523464    0.06960511850504919    0.06868459072108406    
  0.07533176939083583    0.08603650261833796    0.09598839262586394    0.10002965142842833    0.09598837781943222    
  0.08603652525001265    0.07533177014816339    0.06868460308335438    0.06960511408557982    0.08126835967179129    
  0.10688922163608552    0.14781242148157556    0.1980269381412986    0.2418103579837156    0.25962292737340625    
  0.27294338524846845    0.254229814054189    0.20782022803785616    0.15461200262358116    0.11153568514136881    
  0.08465139140750107    0.0725751225314643    0.07200404292364397    0.07962491376445004    0.09164135392718192    
  0.10274903816756085    0.10725516543661072    0.10274904182425895    0.09164134867241967    0.07962491022889708    
  0.07200404594604831    0.07257512042816144    0.08465139283201253    0.11153569933936457    0.15461199023122912    
  0.2078201969572551    0.25422978887960695    0.27294338524846845    0.3429777461504761    0.3207147730138142    
  0.2627087232257702    0.19354041075369605    0.1369045184262983    0.1016196663087578    0.08605654982642272    
  0.0858776863077916    0.09679023485657093    0.1135923574435379    0.1290128956942445    0.13532188460818687    
  0.1290128780938999    0.11359233138010112    0.09679024457980527    0.08587768061048753    0.086056545962339    
  0.10161967201434366    0.13690451973021503    0.19354042350829795    0.26270872401002343    0.3207148409667118    
  0.3429777461504761    0.40914622099532305    0.39626073450770344    0.34518335883875206    0.26120890366719324    
  0.18214883583341152    0.13151174417881    0.10965877573878438    0.10989896419774484    0.12626064257846312    
  0.15148919686952533    0.1746526728250021    0.1841650000077447    0.17465268305030243    0.15148922083576322    
  0.12626064383913874    0.10989893202356178    0.10965876376271375    0.13151173835094634    0.18214880863326716    
  0.26120890878797126    0.3451833346904227    0.3962607579703704    0.40914622099532305    0.3315413264109484    
  0.3602956552329394    0.38770093648839654    0.33327127845626947    0.23817323070289637    0.16902727747361226    
  0.1389410358906498    0.13953227645696825    0.16278969954305308    0.19872266067181799    0.2312188635098969    
  0.24436695600185987    0.23121892327969937    0.1987226755525433    0.16278965153405658    0.13953227498123214    
  0.13894105878408697    0.16902728035071687    0.23817330275470558    0.3332712490971241    0.38770090259829304    
  0.36029570831730323    0.3315413264109484    0.17312806335880082    0.23039606928971004    0.3528061089139357    
  0.3751661189041302    0.2849792151417813    0.20183614044808715    0.16433654113559332    0.16516815414785097    
  0.19451005803397717    0.23939474419405601    0.2789989528489209    0.2947319859047125    0.2789989537859577    
  0.23939475033328123    0.19451005105663938    0.1651682121461998    0.16433650711185865    0.2018361301872799    
  0.2849792206729075    0.37516614786454755    0.35280609348992464    0.23039609124700855    0.17312806335880082    
  0.11370076687158712    0.17172944647248525    0.32231845496454975    0.38501354763282375    0.3028841563897022    
  0.21502069250057956    0.17458861678735987    0.17553407735533996    0.2072752154503744    0.2554723972379013    
  0.29753701007824246    0.31413212888020237    0.2975370252538792    0.25547237394254446    0.20727523777217405    
  0.1755340854386527    0.17458863756027107    0.2150206769880128    0.3028842629793655    0.38501354915831165    
  0.3223184564562174    0.17172944193315823    0.11370076687158712    0.28377805524320443    0.32265939616439715    
  0.3762629692370997    0.33869288185726776    0.24307972505809863    0.16908993361395297    0.13467868070874672    
  0.13129775267603516    0.15034565807096065    0.18226406427484723    0.21255246155446925    0.2252897002418784    
  0.2125524554055066    0.18226405400407159    0.15034565730094224    0.13129777281359264    0.13467869108465583    
  0.16908993784424298    0.24307977987338436    0.33869289122154583    0.3762630159645079    0.32265939405581917    
  0.28377805524320443    0.32618301756441886    0.3536968540200086    0.3787730317351135    0.3235773914911544    
  0.22905642607470889    0.15979583225270844    0.12784962070999323    0.1247183841521457    0.14236178965036972    
  0.1718613185550943    0.19969642917975494    0.2113141273743656    0.19969642835593246    0.1718612438563519    
  0.14236178604853053    0.12471840751763023    0.1278496160833751    0.15979580471231844    0.22905639613851217    
  0.3235774363692936    0.37877304932254485    0.3536968792256015    0.32618301756441886    0.3931468580334721    
  0.39159568992426846    0.35908473153015125    0.27917198449398023    0.19373721402398353    0.1367698622617751    
  0.11081065384445525    0.10829038804935019    0.12250940554013592    0.14604097729336835    0.16810815525597192    
  0.1772478445560819    0.168108215065315    0.1460409976767085    0.12250938508502895    0.10829037676336219    
  0.11081065254694919    0.13676984327574246    0.19373726669776664    0.279171969352998    0.35908475886974217    
  0.39159575902538984    0.3931468580334721    0.37605694705320697    0.3555931019987252    0.29695856491053685    
  0.219704546311549    0.15299301054932304    0.1106856034615876    0.09134931585339473    0.08951548291535534    
  0.10001954865021943    0.11704991026794899    0.1329616209756902    0.13955365316557244    0.1329616310738492    
  0.1170498973641374    0.10001956965666746    0.08951546668923949    0.09134931834097283    0.11068561622407859    
  0.15299301038965937    0.219704507529629    0.29695856778981944    0.355593090525912    0.37605694705320697    
  0.3037731947038268    0.28301716992214676    0.23113943647399832    0.17084229723835623    0.12155076345846103    
  0.09059501191988995    0.07636733150278345    0.07506265775384235    0.08283520439858863    0.09529806206865968    
  0.10687246439504082    0.11162103060583661    0.10687247323823967    0.09529809151733508    0.08283518439091564    
  0.07506264503760175    0.07636734403379913    0.09059501920257793    0.12155075358900934    0.1708422806493727    
  0.23113939681186452    0.28301723156559794    0.3037731947038268    0.25962290857246306    0.2418103594599245    
  0.19802697205224704    0.1478124254043024    0.10688922088572504    0.08126836345626631    0.06960510388975946    
  0.06868460014863283    0.0753317561272862    0.08603651954695869    0.0959883884748861    0.10002964902400663    
  0.09598838970328802    0.08603652308647187    0.07533177410834126    0.068684603587018    0.06960510619970316    
  0.08126835349220858    0.10688923239689133    0.14781239912501223    0.19802697373615138    0.24181037958310217    
  0.25962290857246306    0.27294337063705265    0.25422979340577256    0.20782023663793597    0.15461201377230374    
  0.11153568335156994    0.08465139147198114    0.07257512398597009    0.07200403766190175    0.07962491679083623    
  0.0916413312335607    0.10274903452606667    0.10725516734115345    0.10274904417026401    0.09164136020430655    
  0.0796249011011309    0.07200404720174387    0.07257511246375857    0.08465139613207574    0.11153569763911464    
  0.15461200879169065    0.20782019979630242    0.2542298078517112    0.27294337063705265    0.34297772541877936    
  0.32071482586136885    0.2627087188881578    0.19354041299869323    0.13690451860991132    0.10161966409601877    
  0.08605652759965692    0.08587769514863917    0.09679024191645014    0.11359232749693056    0.12901292162052264    
  0.13532187794992973    0.12901286995709046    0.11359233104257363    0.09679023711338736    0.08587767422880807    
  0.08605655932455783    0.1016196789517975    0.1369045169926228    0.19354040914203202    0.26270869986598366    
  0.3207148510448671    0.34297772541877936    0.4091462391480688    0.39626070731795815    0.345183339750829    
  0.2612088823567015    0.1821488233654721    0.1315117278671572    0.10965877420365269    0.1098989633596755    
  0.12626066661064309    0.15148918933974576    0.17465266055759612    0.18416501587656084    0.17465268932466194    
  0.1514892097917091    0.12626067000888103    0.1098989412321856    0.10965876343425549    0.13151170234895476    