#     DFTpy    
  CRYSTAL 
    
  PRIMVEC    
  3.490398145354979    -1.9176928e-10    3.634848331034482e-10    
  -1.9176928e-10    3.4903981451521617    1.7514456827586205e-10    
  6.642227034482758e-10    3.201078068965517e-10    6.394477048411194    
  PRIMCOORD    
  4    1    
  Si    1.7451990726109903    1.7451990735365193    1.9649860257369594    
  Si    6.471648448975773e-10    -5.989424380694627e-10    1.2322524963191241    
  Si    9.925987588102862e-11    4.523445712740462e-10    5.162224548465073    
  Si    1.7451990731342404    1.7451990722106867    4.42949102683986    
  BEGIN_BLOCK_DATAGRID_3D    
  3d_datagrid_density    
  BEGIN_DATAGRID_3D#0    
  15    15    29    
  0.0    0.0    0.0    
  3.490398145354979    -1.9176928e-10    3.634848331034482e-10    
  -1.9176928e-10    3.4903981451521617    1.7514456827586205e-10    
  6.642227034482758e-10    3.201078068965517e-10    6.394477048411194    
  0.4327782743610735    0.3958399180623395    0.3075877164227008    0.21146132345508453    0.1369385820128253    
  0.0903535209676268    0.06673272004696135    0.059794734850676365    0.06673271615682413    0.09035353144200542    
  0.1369385693566563    0.21146126965048237    0.30758770486861375    0.39583981006486657    0.4327782743610735    
  0.3958397836499056    0.36303625772750453    0.28447504900095655    0.19808920375316086    0.13037266932691643    
  0.0877029683949432    0.06587870291522543    0.05941602177947448    0.06587871136947755    0.08770296752646717    
  0.13037259227824538    0.19808924331545905    0.284475006324134    0.36303624803392764    0.3958397836499056    
  0.30758769547395326    0.28447496747325257    0.22839107365732947    0.16519060003201183    0.11420909718452643    
  0.08119646796963244    0.06378090971199735    0.05848298680384934    0.06378094638530699    0.08119647422058618    
  0.11420906680680694    0.165190598992163    0.22839107467389316    0.28447506803564876    0.30758769547395326    
  0.2114612269088455    0.19808924048808185    0.16519057483865063    0.12705407820034534    0.09505913956697105    
  0.0734363942222382    0.06150376551766483    0.05773922866725137    0.06150374924386027    0.07343642673013541    
  0.09505910358625776    0.1270540942325855    0.1651905621169259    0.1980892640277943    0.2114612269088455    
  0.1369385411615978    0.13037265154684102    0.1142090868409502    0.09505913868995758    0.07827892283182714    
  0.06650723186612965    0.059826568170047785    0.05766462605547258    0.05982655265073742    0.06650725086249527    
  0.07827895009347291    0.09505911661748123    0.11420907777697274    0.13037263328893298    0.1369385411615978    
  0.090353567417594    0.08770295608908374    0.08119647881204352    0.07343643029974811    0.06650729446474594    
  0.06170737644327929    0.05908351908605181    0.058232818797775636    0.059083526523681665    0.06170743514510217    
  0.0665072146293817    0.07343642696443779    0.0811964983590599    0.08770297515312633    0.090353567417594    
  0.06673267407996158    0.06587872403076513    0.06378087153462636    0.0615037519224956    0.0598265365805403    
  0.05908348607272133    0.05902411269222135    0.05906489445919355    0.059024098531863974    0.059083488709181634    
  0.05982651071667604    0.06150373920265237    0.06378089340495985    0.06587871887628478    0.06673267407996158    
  0.05979474692255712    0.059416046590257204    0.058483006540705665    0.057739246572848096    0.057664653417382424    
  0.05823277039487568    0.059064924986778115    0.05944913595350017    0.059064912796396946    0.05823281089353766    
  0.057664649081351674    0.057739236559732655    0.05848299572394607    0.059416023538905044    0.05979474692255712    
  0.06673268034987224    0.0658787347580738    0.06378088262029158    0.061503759251061545    0.05982654927936541    
  0.059083502675084436    0.0590241269219    0.059064915124100406    0.059024102672947935    0.059083495534921746    
  0.05982650191783811    0.06150375929762154    0.06378089235666387    0.06587871098064092    0.06673268034987224    
  0.09035354088578765    0.08770294076575329    0.0811964638715654    0.07343641506729987    0.06650727703146538    
  0.061707380406239354    0.0590835231126964    0.05823279157289286    0.05908351553341263    0.06170739614561998    
  0.06650723907677351    0.07343642730689048    0.08119648950968555    0.08770295001026676    0.09035354088578765    
  0.13693850938231505    0.13037265339662313    0.11420906361939749    0.0950590824418691    0.07827897565198852    
  0.06650723368038661    0.05982656403412404    0.05766460122211981    0.059826547203026485    0.06650723401442049    
  0.07827894874332905    0.09505909265364273    0.11420907563168728    0.13037266910035328    0.13693850938231505    
  0.21146127382378782    0.1980892448989264    0.16519061081607656    0.12705408442636204    0.09505913613271957    
  0.07343640252353269    0.0615037755329194    0.057739230370161335    0.061503751733105745    0.07343641512471187    
  0.09505910913625838    0.1270540616365716    0.1651906054945188    0.19808924817671    0.21146127382378782    
  0.3075876846054261    0.2844750563000895    0.22839111168395154    0.16519058825023172    0.11420911646539628    
  0.08119648592079584    0.06378092084989775    0.05848298504324518    0.06378092568041482    0.08119654438515195    
  0.11420906968116863    0.16519058902132044    0.22839108767500724    0.28447503831109283    0.3075876846054261    
  0.3958397690188439    0.3630362620096772    0.28447503781871275    0.1980892130204096    0.13037261974416747    
  0.08770297194307278    0.06587871348261878    0.05941602902005213    0.0658787060407368    0.08770296261839616    
  0.13037262991264018    0.19808922866593864    0.2844750032783173    0.3630363209466167    0.3958397690188439    
  0.4327782743610735    0.3958399180623395    0.3075877164227008    0.21146132345508453    0.1369385820128253    
  0.0903535209676268    0.06673272004696135    0.059794734850676365    0.06673271615682413    0.09035353144200542    
  0.1369385693566563    0.21146126965048237    0.30758770486861375    0.39583981006486657    0.4327782743610735    
  0.4556119555210675    0.41917042892990153    0.3287200589319208    0.2264215607387435    0.1458627889648074    
  0.09558344045212387    0.07006863638182691    0.06249591664337399    0.07006863053596944    0.095583458969784    
  0.1458627558185521    0.2264215774854067    0.3287201035822176    0.4191703591246733    0.4556119555210675    
  0.41917033550382876    0.3860605772620501    0.30448535336040583    0.21231361847734645    0.1391491748574937    
  0.0930200158737529    0.06938068300071439    0.062315512361505884    0.06938069350633885    0.09302002671447653    
  0.13914908731369496    0.21231358348219212    0.3044853722237135    0.3860605291659235    0.41917033550382876    
  0.32872010142762564    0.3044853396820563    0.24502943480050624    0.17736556308052365    0.12237072040565157    
  0.08659755819444674    0.0676882436412453    0.06191829983423993    0.06768827154869553    0.08659760360264546    
  0.12237063672023059    0.17736557684124302    0.24502941595859198    0.3044854134304302    0.32872010142762564    
  0.22642152837524646    0.21231357743813276    0.17736552717543735    0.13665027637297875    0.1022858126267891    
  0.07889099063771832    0.06600004415288241    0.06196528385915566    0.0659999885557232    0.07889099096363526    
  0.10228580568535996    0.1366502717643327    0.17736552519672164    0.21231367021113243    0.22642152837524646    
  0.14586277903388578    0.1391491032216289    0.1223707061016744    0.10228577116132999    0.08462978035684854    
  0.07216772108449214    0.06514700065123323    0.06292721108843838    0.06514698692139731    0.07216771192633378    
  0.08462975808536784    0.10228580073135873    0.12237068794136503    0.13914914254544614    0.14586277903388578    
  0.09558345519719974    0.09302002968086968    0.08659755633400679    0.07889103470535758    0.07216775838664853    
  0.0676386904171514    0.06527516708189181    0.06456490273590544    0.06527519597550194    0.06763871506369158    
  0.07216769692541433    0.07889105170826491    0.0865975962283281    0.09302001420783801    0.09558345519719974    
  0.07006860512649075    0.06938067202096947    0.06768824947342596    0.06599999730036084    0.06514697037714483    
  0.06527512746992868    0.06588514119196008    0.06619978279243459    0.06588513180423332    0.06527518663480547    
  0.0651469289675282    0.0659999792875982    0.06768823668181648    0.06938066740271995    0.07006860512649075    
  0.06249590328643635    0.062315553657279456    0.061918323899827814    0.06196531515965395    0.06292723639677451    
  0.06456485846927813    0.0661998096962587    0.0668958641034442    0.06619980446100429    0.064564853169843    
  0.06292726376918305    0.061965298431167076    0.061918332102456675    0.062315540236011276    0.06249590328643635    
  0.07006862869840519    0.06938066419748892    0.06768823268240735    0.06599997480170339    0.06514698537393669    
  0.06527516300807384    0.06588515384596827    0.06619976585230875    0.06588514056844423    0.06527518784604347    
  0.06514693966871692    0.06600000914844102    0.06768825004860046    0.06938066458353682    0.07006862869840519    
  0.09558344370482649    0.09302003472381219    0.08659755646560185    0.07889101570897615    0.07216772706337275    
  0.06763867815268472    0.06527518150691447    0.0645648490959139    0.06527518288610049    0.06763870891272881    
  0.0721677016012814    0.07889104596378471    0.08659757335398013    0.09302003225450133    0.09558344370482649    
  0.1458627572748978    0.1391491361163745    0.12237067240543778    0.10228576360274105    0.08462981967943811    
  0.07216770886709854    0.06514697186956409    0.06292718449984402    0.06514694828736094    0.07216772679829665    
  0.08462977680726169    0.10228580355631285    0.12237068217789523    0.1391491439856935    0.1458627572748978    
  0.22642153796337755    0.21231367117677877    0.17736557707653172    0.13665030586758442    0.1022858288838898    
  0.07889100233341331    0.06600001497643952    0.061965270057446585    0.06600000808803871    0.07889101720529237    
  0.10228580997438175    0.13665027548246336    0.17736559589660258    0.212313608716684    0.22642153796337755    
  0.32872003253196264    0.30448541461512746    0.24502943283008302    0.17736558543086411    0.1223707143797192    
  0.0865976013862022    0.06768824738743526    0.06191833732375601    0.06768825598812034    0.08659765578083992    
  0.12237063509753845    0.17736557319254484    0.24502943828828685    0.30448538602065434    0.32872003253196264    
  0.4191702791578912    0.38606054285593555    0.30448531544009755    0.21231356236932367    0.13914913265017723    
  0.09302003152110998    0.0693806744557206    0.06231552922805852    0.06938067000808959    0.09302000423974716    
  0.1391491431416281    0.21231356758143552    0.30448533879066836    0.3860605793366184    0.4191702791578912    
  0.4556119555210675    0.41917042892990153    0.3287200589319208    0.2264215607387435    0.1458627889648074    
  0.09558344045212387    0.07006863638182691    0.06249591664337399    0.07006863053596944    0.095583458969784    
  0.1458627558185521    0.2264215774854067    0.3287201035822176    0.4191703591246733    0.4556119555210675    
  0.4683513448324569    0.44738195248099927    0.3751063175196959    0.2678593708066203    0.17237015268131917    
  0.11112321670146601    0.08002609737814084    0.07070258037603863    0.08002610251164392    0.11112322690336812    
  0.1723701208568724    0.26785939408170095    0.37510630867781064    0.4473819038134192    0.4683513448324569    
  0.4473818581342409    0.4242574711440443    0.35235779214782403    0.252562848871008    0.1652019350985532    
  0.10878041179334788    0.07983521392397132    0.07110982562689329    0.07983521922807223    0.10878046512878686    
  0.1652018701955109    0.25256283850145483    0.3523577991198515    0.4242574624985416    0.4473818581342409    
  0.3751063548114119    0.35235777333229173    0.29058000989538985    0.2131246558506821    0.1468009061037133    
  0.10289210356784054    0.0796728073030363    0.07257011697685849    0.07967282728413874    0.10289210332165313    
  0.14680090333535697    0.21312467677922942    0.2905800805623388    0.3523578277519004    0.3751063548114119    
  0.26785937415481087    0.25256280897180045    0.2131247095213159    0.16549511691711613    0.12439508907557462    
  0.0960494351024511    0.08047069946749646    0.07565010297690258    0.08047067881576156    0.09604948227298962    
  0.1243950614719621    0.165495143334391    0.21312469271708165    0.25256285722130223    0.26785937415481087    
  0.17237016065248148    0.16520190603615187    0.14680087836120165    0.12439507591807492    0.10467159970209153    
  0.09067880598002805    0.08287845024733395    0.08050765076850573    0.08287844890123715    0.09067881680443891    
  0.10467159086474359    0.12439505654957056    0.14680086155849773    0.16520192711160805    0.17237016065248148    
  0.11112326937580011    0.10878039903624027    0.10289211923707432    0.09604949419308234    0.09067883603099179    
  0.08758078106406889    0.08635806021219737    0.08615261333383697    0.08635809557106676    0.08758086567021378    
  0.09067874967780032    0.096049475559712    0.10289212423874958    0.10878043257703801    0.11112326937580011    
  0.08002605891068887    0.07983523807462602    0.0796727836987946    0.08047066971122364    0.08287839387404876    
  0.0863580332732418    0.08951683779377771    0.09083592746102857    0.08951679143193034    0.08635807315124974    
  0.08287838602913374    0.0804706555676296    0.07967276606310852    0.07983524666576365    0.08002605891068887    
  0.07070258876398842    0.07110985144015984    0.072570155477033    0.07565012845864949    0.0805077049190662    
  0.08615258673588175    0.0908360008389597    0.0927054535250871    0.09083595264110547    0.08615264490227749    
  0.0805077111301745    0.07565012921770357    0.07257015317169802    0.07110982391849817    0.07070258876398842    
  0.0800260587522534    0.07983522921232428    0.07967278489091667    0.08047066474728909    0.08287842797736576    
  0.08635806884357886    0.0895168214925233    0.09083593401303322    0.0895168063903048    0.08635809414481635    
  0.08287838904677809    0.08047070044346959    0.07967276864415244    0.07983522752842412    0.0800260587522534    
  0.11112327284615461    0.10878040094696691    0.10289211328595607    0.09604947292441406    0.09067882566859635    
  0.08758080453134748    0.086358092924278    0.08615262388954693    0.08635808616320804    0.08758079603322035    
  0.09067878062925591    0.09604952066494356    0.10289212889642786    0.10878039065084842    0.11112327284615461    
  0.17237006465924548    0.16520195428838647    0.1468008686698515    0.12439504751237382    0.10467163344233445    
  0.0906787806688856    0.08287844101912505    0.08050764382298671    0.08287838882850661    0.0906788082449384    
  0.10467160219198886    0.1243950673198345    0.1468008986172278    0.1652019279483704    0.17237006465924548    
  0.2678593271073451    0.25256281840667655    0.2131247198708928    0.16549510524024874    0.12439509582243383    
  0.09604947552965534    0.08047070383767373    0.07565011425129403    0.08047068558087293    0.0960495092974276    
  0.12439508467526308    0.16549513354986886    0.21312470110399892    0.25256279849555746    0.2678593271073451    
  0.3751063551812296    0.3523578115884952    0.29058005286094457    0.2131246911987477    0.1468009233055204    
  0.10289210964260877    0.07967278972860485    0.07257012646109834    0.07967282545972663    0.10289215072506172    
  0.1468008700971575    0.21312469192752378    0.2905800755415666    0.35235777101929694    0.3751063551812296    
  0.44738186892399906    0.4242574820549534    0.3523578215098583    0.25256279610021154    0.16520191600488604    
  0.108780410919942    0.07983524735162295    0.07110982186731697    0.07983521814574912    0.10878042894677531    
  0.16520188339872782    0.25256282314200146    0.35235776562379767    0.4242574903728982    0.44738186892399906    
  0.4683513448324569    0.44738195248099927    0.3751063175196959    0.2678593708066203    0.17237015268131917    
  0.11112321670146601    0.08002609737814084    0.07070258037603863    0.08002610251164392    0.11112322690336812    
  0.1723701208568724    0.26785939408170095    0.37510630867781064    0.4473819038134192    0.4683513448324569    
  0.3445348424827814    0.3722886208481455    0.39052990001066973    0.31982509177302887    0.2127699532883112    
  0.13554021172724762    0.0959099618989618    0.08408440763436151    0.09590993707180158    0.13554024631541323    
  0.2127698828874364    0.3198251721735652    0.39052990027841855    0.3722885737602263    0.3445348424827814    
  0.3722885469266756    0.3887818599290627    0.3846578671288456    0.30656367285170344    0.20548834160870771    
  0.13389271518117862    0.09685938364326209    0.08572587384691126    0.0968594141875417    0.13389273316310882    
  0.20548827189811605    0.3065637070878433    0.3846578790849067    0.3887818718746616    0.3722885469266756    
  0.3905299483031011    0.38465791590409965    0.3456390150417373    0.26699323045146106    0.18630338528447288    
  0.1302318634641433    0.10039444593420774    0.0912433813638699    0.10039447514393939    0.13023187084712126    
  0.18630335422146554    0.2669932682616287    0.3456390223490742    0.3846579655716996    0.3905299483031011    
  0.31982509530557585    0.30656362582129665    0.2669932473341496    0.21241502510559618    0.16221153301422778    
  0.1268890893858352    0.10732938614434993    0.10123166692336073    0.10732938430720632    0.12688912797862256    
  0.1622115082481886    0.2124150911682815    0.2669932338320293    0.30656372301194224    0.31982509530557585    
  0.2127699476845622    0.20548832108729295    0.18630337109340414    0.16221152083571086    0.1408301400986379    
  0.12582943674624203    0.11757578874639957    0.11510925459032177    0.11757582645511797    0.1258295059283094    
  0.1408300931790684    0.16221148541914782    0.18630336215313403    0.20548835418258182    0.2127699476845622    
  0.13554023684706526    0.13389271893995885    0.1302318677214786    0.12688917949708742    0.12582951366985123    
  0.12714256497039073    0.1292815113455462    0.13037809894633764    0.1292815619049577    0.12714261891637096    
  0.12582944089185788    0.12688917665350388    0.13023189134876623    0.13389273466050722    0.13554023684706526    
  0.09590990438304733    0.0968593974384064    0.10039443931702331    0.10732936518984934    0.11757579926467876    
  0.12928147978927007    0.13885313682245803    0.1426284731263049    0.1388530779414219    0.1292814890546382    
  0.11757573724577157    0.10732938249133152    0.10039444496689003    0.09685937071314034    0.09590990438304733    
  0.08408440277854264    0.08572592951836569    0.09124339376781165    0.10123173059782722    0.11510930685867177    
  0.13037806937507312    0.14262853376893758    0.1473804063953422    0.14262850935495605    0.13037811039283095    
  0.11510930436094226    0.1012317104756501    0.09124338370113451    0.08572589800936042    0.08408440277854264    
  0.09590992767281005    0.09685939735136756    0.10039447021623782    0.10732934779956348    0.11757578292039551    
  0.12928146796535248    0.13885311348248305    0.1426284753384403    0.13885313629186388    0.12928153209206483    
  0.11757574257895659    0.10732937468516023    0.10039447150068914    0.09685939893854885    0.09590992767281005    
  0.13554024453876176    0.13389273377067737    0.1302318058343867    0.12688916890413138    0.12582945624386288    
  0.12714253117900864    0.1292815284248732    0.13037806383495623    0.12928153551449406    0.12714260313408526    
  0.12582944684358222    0.12688913227769938    0.13023186158331945    0.13389272079969777    0.13554024453876176    
  0.21276988074630657    0.20548832005558784    0.18630337105969771    0.16221146005618575    0.1408301411055376    
  0.12582944192672307    0.11757578811012767    0.11510925612994366    0.11757577673567961    0.12582944066815402    
  0.14083006458062822    0.16221150556873365    0.18630336406348202    0.20548829264391158    0.21276988074630657    
  0.3198250189447016    0.30656369355452734    0.2669932663620608    0.21241508272455192    0.1622115813600115    
  0.1268891594476988    0.10732940378989975    0.10123164219486445    0.10732938691227857    0.12688915623185837    
  0.16221150313915994    0.21241506186967457    0.26699330121138104    0.3065636439820415    0.3198250189447016    
  0.39052989580036007    0.3846579652120103    0.34563906135092665    0.2669932697675037    0.18630340043403426    
  0.13023183275344885    0.10039446808668294    0.09124340487136684    0.10039450862450512    0.13023192067153755    
  0.18630330393316574    0.26699325349085623    0.34563904659948647    0.38465788539203954    0.39052989580036007    
  0.372288524879264    0.3887818823169855    0.38465792591845355    0.30656353068564685    0.20548832893529145    
  0.1338926966009754    0.09685938937899305    0.08572588147019654    0.09685941229746849    0.1338927326472133    
  0.2054883116780279    0.3065636358854458    0.3846578811848631    0.3887819230394845    0.372288524879264    
  0.3445348424827814    0.3722886208481455    0.39052990001066973    0.31982509177302887    0.2127699532883112    
  0.13554021172724762    0.0959099618989618    0.08408440763436151    0.09590993707180158    0.13554024631541323    
  0.2127698828874364    0.3198251721735652    0.39052990027841855    0.3722885737602263    0.3445348424827814    
  0.1501070162312539    0.20930515633620483    0.3386009144013276    0.3581104030196887    0.2572812323269093    
  0.164712707061664    0.11562006088965872    0.10101098884248072    0.1156200457021357    0.16471273406781314    
  0.25728120481143985    0.3581104812139701    0.3386009682220772    0.20930513925764596    0.1501070162312539    
  0.2093050949719388    0.26406974940640604    0.36331266498872067    0.3530769652355218    0.25156708216898566    
  0.16499160346213582    0.11890410788134725    0.10504692101903398    0.1189041144034586    0.16499166393577178    
  0.25156698969477953    0.3530769979981204    0.3633126293991864    0.2640697364100633    0.2093050949719388    
  0.33860097609575385    0.36331272803931486    0.3814947603647034    0.3254687902093034    0.23571878686634914    
  0.1669962649709551    0.12956499992331674    0.11798728456901753    0.1295650359369568    0.16699621279450275    
  0.23571881638621048    0.3254687728873517    0.381494739410987    0.3633127101986279    0.33860097609575385    
  0.35811043311028457    0.3530769178308193    0.3254687997810334    0.27144859319131226    0.21427508490734412    
  0.17220808608288796    0.14842449369774927    0.1408680991724087    0.14842448001746908    0.17220816572353914    
  0.21427503750356144    0.27144871331471576    0.32546875234353134    0.3530770273241395    0.35811043311028457    
  0.2572812116840532    0.25156708036896774    0.23571877700603197    0.21427506219526393    0.19465191180185365    
  0.18141380764029913    0.174494691521993    0.17249454355069638    0.17449473048759212    0.18141386469255627    
  0.19465186611478877    0.21427499901420882    0.23571878653780984    0.25156709554268697    0.2572812116840532    
  0.1647127822080384    0.1649915726581028    0.1669962349533778    0.1722081505172766    0.18141391633568166    
  0.1930784633237212    0.20285017382557227    0.20669735066468983    0.20285020155537375    0.19307856834185563    
  0.18141379708307595    0.17220817162611687    0.16699626355537975    0.16499163836432607    0.1647127822080384    
  0.11561997982199897    0.11890415059743176    0.12956494014956935    0.14842448736245975    0.1744946954568435    
  0.2028501304046553    0.22463810806878384    0.2326684441599339    0.22463806883970172    0.20285016044802165    
  0.17449466080252513    0.14842448075326822    0.12956497145424586    0.11890411526737714    0.11561997982199897    
  0.10101101311469976    0.10504696369426002    0.1179873237922077    0.14086816405915553    0.17249467286283637    
  0.20669734293758046    0.23266856847170506    0.24206423248160266    0.2326684896272401    0.2066973924252495    
  0.1724946457601183    0.14086813896188607    0.11798729332073168    0.10504692604543153    0.10101101311469976    
  0.11562002738673836    0.1189041441710845    0.12956497979673057    0.14842448075144485    0.17449467701031027    
  0.202850180773887    0.22463811357559027    0.23266844139922147    0.22463813625308468    0.2028501868838039    
  0.17449463498161621    0.14842450454802536    0.1295649779035367    0.11890415157372246    0.11562002738673836    
  0.16471282284832112    0.16499162004807727    0.16699619894826925    0.17220813207812108    0.18141386325184813    
  0.19307845847144953    0.2028502116488337    0.20669732232647509    0.20285021213658788    0.19307852817314314    
  0.1814138209944229    0.1722081506903744    0.16699621187191663    0.16499162858357014    0.16471282284832112    
  0.25728113588060364    0.2515670779445299    0.23571881651647417    0.21427500837882074    0.19465190715780636    
  0.18141384854042444    0.17449470279735105    0.17249455605051464    0.17449472513544828    0.18141382984335228    
  0.19465190932427104    0.21427504724167865    0.23571877071027733    0.25156709195631577    0.25728113588060364    
  0.3581103953427899    0.3530769795543292    0.3254688375980394    0.2714486788804012    0.21427510503906336    
  0.17220815252078592    0.14842450557098993    0.1408680881152914    0.14842445894715464    0.17220817912109643    
  0.21427506972661092    0.2714487067098852    0.32546884998846753    0.35307693722618105    0.3581103953427899    
  0.3386009781480319    0.3633127150033714    0.3814947121422455    0.325468791343383    0.23571883442375133    
  0.1669962154938003    0.1295650115924523    0.11798731577570379    0.12956506982996133    0.16699630623237632    
  0.23571877569403432    0.32546877060718193    0.3814947516647393    0.3633126965328231    0.3386009781480319    
  0.20930513674742018    0.2640697461081601    0.3633126888892146    0.35307684850726073    0.25156712449912316    
  0.16499162009228138    0.11890411235071202    0.10504694689139735    0.11890411194853016    0.1649916738369949    
  0.2515669886599522    0.35307695051924554    0.3633126550554554    0.2640697711136552    0.20930513674742018    
  0.1501070162312539    0.20930515633620483    0.3386009144013276    0.3581104030196887    0.2572812323269093    
  0.164712707061664    0.11562006088965872    0.10101098884248072    0.1156200457021357    0.16471273406781314    
  0.25728120481143985    0.3581104812139701    0.3386009682220772    0.20930513925764596    0.1501070162312539    
  0.0631941869400524    0.1165076239290072    0.28579778464556155    0.37911307512514947    0.293270514293617    
  0.19120801352109365    0.13514013607274283    0.1183577361855732    0.13514012685204327    0.19120808852250354    
  0.29327049228664576    0.3791131923670061    0.28579775281530817    0.1165076106694599    0.0631941869400524    
  0.1165075935396181    0.17746487717645631    0.3309630898758751    0.38373532904116225    0.2910647783891267    
  0.19493054576864052    0.1420421312754811    0.1260301159872332    0.1420421619747055    0.1949305582672387    
  0.29106464479727623    0.38373532244876835    0.3309631472434879    0.17746486801984898    0.1165075935396181    
  0.2857978348269625    0.33096313162126595    0.39924238823437974    0.37417207665185187    0.2837269756812205    
  0.20676319145857178    0.1636716670410211    0.15022014683233778    0.16367167046893671    0.20676317883769374    
  0.2837268616433972    0.3741720505438077    0.3992423801892737    0.3309631892259238    0.2857978348269625    
  0.3791130907458686    0.38373526183804807    0.37417212186361565    0.32940983925759837    0.27213778935325983    
  0.2275468484092407    0.20181045589408805    0.19354221997809246    0.20181042297910287    0.2275469065994702    
  0.2721377335581283    0.3294098506856089    0.37417202589258436    0.38373532251590614    0.3791130907458686    
  0.2932705712970023    0.2910646905456439    0.2837269597424111    0.2721376795830854    0.26175067742572955    
  0.2561323943049844    0.2538663165623887    0.25327021856876053    0.25386634629985844    0.25613241939833037    
  0.261750629132801    0.2721377525299084    0.2837269342474223    0.29106469664992013    0.2932705712970023    
  0.19120810591651566    0.19493055016137353    0.20676316535159853    0.22754696451679882    0.2561324286971435    
  0.2854076019249913    0.30480378930577684    0.3108592459419555    0.30480389730066765    0.28540773839719    
  0.25613232871570296    0.2275469157574948    0.20676316654741417    0.1949305644102712    0.19120810591651566    
  0.13514009703159946    0.14204216537103692    0.16367165793809763    0.2018103947611267    0.25386626637188753    
  0.3048037705993108    0.33456181508329186    0.3420193521400509    0.33456174804561783    0.30480383998602034    
  0.25386623194320257    0.20181039420844488    0.16367167160102525    0.1420421712757147    0.13514009703159946    
  0.11835770335932107    0.1260301589992277    0.15022013116617927    0.19354227938507487    0.2532702818595559    
  0.31085917530766854    0.3420194585689447    0.3485147431051679    0.34201936698787383    0.3108593134107985    
  0.2532702643734725    0.1935422910153185    0.15022015925737017    0.12603012869024    0.11835770335932107    