#     DFTpy    
  CRYSTAL 
    
  PRIMVEC    
  2.8015037745612332    -1.5392008000000002e-10    2.9174440551724136e-10    
  -1.5392008000000002e-10    2.8015037743984457    1.4057656137931036e-10    
  5.331261172413793e-10    2.569286344827586e-10    5.132409209908986    
  PRIMCOORD    
  4    1    
  Si    1.4007518872272422    1.4007518879701009    1.5771598364467705    
  Si    5.194349412993713e-10    -4.807301147662793e-10    0.9890447667824551    
  Si    7.966911090450975e-11    3.6306603746995814e-10    4.143364440215388    
  Si    1.4007518876472191    1.4007518869059459    3.5552493768056777    
  BEGIN_BLOCK_DATAGRID_3D    
  3d_datagrid_density    
  BEGIN_DATAGRID_3D#0    
  13    13    23    
  0.0    0.0    0.0    
  2.8015037745612332    -1.5392008000000002e-10    2.9174440551724136e-10    
  -1.5392008000000002e-10    2.8015037743984457    1.4057656137931036e-10    
  5.331261172413793e-10    2.569286344827586e-10    5.132409209908986    
  0.8707828371440892    0.8029924442570016    0.6298196252297924    0.43453831046056945    0.2862426912722833    
  0.20246342368488388    0.17634798539198498    0.20246342721891475    0.2862427075459245    0.4345383094087191    
  0.6298196099666319    0.8029923704027327    0.8707828371440892    0.8029924264363174    0.741862003986132    
  0.5873140396393678    0.4130511115866662    0.27866150565574344    0.2014263592722082    0.1771215583992589    
  0.20142635006160947    0.27866151888352647    0.4130510785769277    0.5873140060811776    0.7418619980957893    
  0.8029924264363174    0.6298196038601426    0.5873140489357088    0.4804657898449204    0.35757680686119664    
  0.25819616738905876    0.19831775456420725    0.17897157758576038    0.19831774315947268    0.2581961595773573    
  0.35757682670417495    0.4804657963222188    0.5873140381897806    0.6298196038601426    0.43453825534571494    
  0.41305107172605    0.35757683105460397    0.2900401539421077    0.23101018934945322    0.19268756048759694    
  0.17973666578371447    0.19268756035861972    0.2310101749943565    0.29004015957340307    0.35757678641847046    
  0.4130510934406996    0.43453825534571494    0.28624270434926796    0.2786615430024359    0.2581961456534269    
  0.231010204870829    0.20437568604871417    0.18508259478297318    0.17811743937155475    0.1850825931548557    
  0.20437570390316828    0.2310101947986556    0.2581961926512794    0.2786615002385639    0.28624270434926796    
  0.2024634237081518    0.20142635671250372    0.19831772793848906    0.19268758162351637    0.18508258416402573    
  0.17845582584086067    0.1758761906584692    0.17845581858545873    0.18508259043059108    0.19268755669007254    
  0.19831775649368452    0.20142635335363243    0.2024634237081518    0.1763479924579726    0.17712157203172302    
  0.17897161206661213    0.1797366747032776    0.17811742776361109    0.17587620084672972    0.17495267944459947    
  0.17587619620053235    0.17811742542792158    0.17973666044496128    0.17897157769928895    0.17712156434821083    
  0.1763479924579726    0.2024634094215566    0.20142635593934463    0.19831774078845923    0.19268758454223547    
  0.1850825781802291    0.17845584185691607    0.1758761694400413    0.17845582485028438    0.18508258115451603    
  0.19268758128993027    0.1983177513390437    0.20142632180478395    0.2024634094215566    0.2862427159762688    
  0.27866151835840064    0.25819616370095505    0.23101022374270708    0.20437568818909627    0.18508258616875686    
  0.1781174395527982    0.18508257587494426    0.20437570072849395    0.23101019090958963    0.25819612131656916    
  0.27866155110986474    0.2862427159762688    0.4345382434210975    0.41305108896597814    0.3575768171843278    
  0.2900401471036728    0.2310101890295613    0.19268756819577024    0.17973666914096997    0.19268756239639942    
  0.23101018072388932    0.2900401623727938    0.3575768060071686    0.4130510619922157    0.4345382434210975    
  0.6298196309090252    0.5873140457542269    0.4804658088663116    0.3575768419103742    0.2581961521748616    
  0.19831774900835622    0.1789715742493656    0.1983177695107088    0.25819618423073676    0.35757680688806165    
  0.4804658037989296    0.587313999297264    0.6298196309090252    0.802992432559338    0.7418619916804723    
  0.5873140317736425    0.41305112320143406    0.2786615156341365    0.20142636697542354    0.1771215608532923    
  0.20142635040991919    0.27866154113557684    0.413051084473415    0.5873140521035355    0.7418619783983642    
  0.802992432559338    0.8707828371440892    0.8029924442570016    0.6298196252297924    0.43453831046056945    
  0.2862426912722833    0.20246342368488388    0.17634798539198498    0.20246342721891475    0.2862427075459245    
  0.4345383094087191    0.6298196099666319    0.8029923704027327    0.8707828371440892    0.7505592404138846    
  0.7151935532292526    0.6014928230257576    0.4405981078208181    0.3004907234728352    0.21691171792269723    
  0.1905094629910512    0.2169117344617515    0.30049071330453464    0.44059808309225174    0.6014928171457874    
  0.7151934803074635    0.7505592404138846    0.7151934893280485    0.6792319162767694    0.5707568057389718    
  0.42305804488960064    0.2947671780102054    0.21730248067118535    0.19262138934233783    0.2173024759921143    
  0.29476717918116135    0.4230580381721299    0.5707567742384831    0.6792319212727157    0.7151934893280485    
  0.6014927925496649    0.5707568260473094    0.48546019791189954    0.37503371765851584    0.2780596957183547    
  0.21733537437300426    0.19750025055621892    0.21733536384144259    0.2780597013106392    0.37503372397512985    
  0.4854601636889778    0.57075678375563    0.6014927925496649    0.4405980696021158    0.42305803936319186    
  0.3750337283239037    0.3120505225395802    0.25381850955037555    0.21484716423574848    0.2015194184993961    
  0.2148471588076753    0.25381850917775883    0.31205052371609027    0.37503367089166684    0.42305802987471636    
  0.4405980696021158    0.30049073076695093    0.2947672136564386    0.2780596839330672    0.253818559249511    
  0.22860941186368136    0.20965970631052455    0.20265086213564676    0.209659715103042    0.22860944106059333    
  0.2538185353397875    0.27805972459772677    0.29476717344533965    0.30049073076695093    0.21691172223516703    
  0.21730248830487314    0.21733534442939298    0.2148471621834897    0.2096596922695292    0.20427223341946582    
  0.2019500669460368    0.2042722284382975    0.20965970941691653    0.21484714055321444    0.21733537688820057    
  0.2173024735727637    0.21691172223516703    0.19050944773597595    0.19262136927123993    0.1975002657441178    
  0.20151941088969974    0.20265084848710008    0.20195006650703926    0.2013761923961188    0.2019500678291808    
  0.20265086471708108    0.20151942823837157    0.19750025538232524    0.1926213659537202    0.19050944773597595    
  0.21691171993523956    0.21730248013745196    0.2173353688159416    0.21484716334744022    0.209659688037229    
  0.2042722666654996    0.20195005229809415    0.20427225119507986    0.20965969918179578    0.2148471697419436    
  0.21733538046217427    0.217302447643367    0.21691171993523956    0.30049072787958053    0.2947672000250958    
  0.2780597114906451    0.25381854976510454    0.22860943023299338    0.20965969788130137    0.2026508652473634    
  0.20965969280594804    0.2286094567426744    0.2538185171024343    0.2780596837261819    0.2947672058533664    
  0.30049072787958053    0.44059804710078243    0.4230580330639542    0.37503370978555395    0.3120505262029926    
  0.2538185329018518    0.2148471634337587    0.20151941248924976    0.21484714901259272    0.2538185126228199    
  0.3120505315932641    0.37503371517250994    0.4230580005093627    0.44059804710078243    0.6014928214386871    
  0.5707568221148478    0.48546020231669185    0.3750337272432952    0.2780596943192072    0.2173353702951921    
  0.19750025677442745    0.2173353744501681    0.27805972001677337    0.37503369375249784    0.48546020095241355    
  0.5707567813477396    0.6014928214386871    0.7151935256792965    0.6792319069041265    0.5707568008645153    
  0.42305803506394923    0.2947671751846987    0.21730248829738116    0.19262138051831199    0.21730246361294644    
  0.2947672063347193    0.4230580239201251    0.5707568214840492    0.679231913762194    0.7151935256792965    
  0.7505592404138846    0.7151935532292526    0.6014928230257576    0.4405981078208181    0.3004907234728352    
  0.21691171792269723    0.1905094629910512    0.2169117344617515    0.30049071330453464    0.44059808309225174    
  0.6014928171457874    0.7151934803074635    0.7505592404138846    0.4153966538732917    0.4510227465875211    
  0.49510415709787414    0.44870642312440007    0.34252970739044364    0.2614307323544778    0.23419518163922495    
  0.2614307171478891    0.3425296730180937    0.44870639795099937    0.49510413041327883    0.4510227083344883    
  0.4153966538732917    0.45102271184809994    0.47722267738305557    0.5007216375205914    0.4446700940967335    
  0.3422969347681603    0.265770165485878    0.23999869208460334    0.2657701675477482    0.3422969489402241    
  0.44467011072863666    0.5007216406485576    0.4772226356939412    0.45102271184809994    0.4951041371107927    
  0.5007216503429187    0.4871354851472876    0.4229643896047651    0.33755339554376257    0.2754170191371888    
  0.2541524471480037    0.27541700131191876    0.3375534160772789    0.42296436589407166    0.4871354951298148    
  0.5007216439615898    0.4951041371107927    0.4487063664888934    0.4446700667853574    0.4229643785147175    
  0.37749160733823256    0.32393210833491487    0.28369225813671617    0.2692368413902466    0.2836922601430696    
  0.32393209366068704    0.37749161376815915    0.42296435306575764    0.44467007140729076    0.4487063664888934    
  0.3425297154837471    0.34229695420375156    0.3375534011131428    0.32393215085060617    0.30438523289176417    
  0.2866376488498075    0.2793471034279965    0.286637635227286    0.30438527086460526    0.32393212532591964    
  0.33755342265905514    0.3422969169728226    0.3425297154837471    0.2614307331770313    0.2657701561613538    
  0.27541700014873755    0.2836922651002082    0.28663760248428755    0.28469879067676607    0.2827871118170637    
  0.2846987832401799    0.28663763442812795    0.2836922430544532    0.2754170233397924    0.26577015773517876    
  0.2614307331770313    0.2341951694977529    0.23999868951859324    0.25415246743989356    0.2692368483830462    
  0.279347109420232    0.2827871040233303    0.2828408030955053    0.2827871188743829    0.27934711225034786    
  0.26923682847193153    0.25415244943111204    0.23999869583208025    0.2341951694977529    0.2614307278819742    
  0.2657701720169752    0.2754170213265945    0.28369226597685143    0.2866376116705111    0.28469881197929137    
  0.28278708141741227    0.28469881249654333    0.2866376158378982    0.2836922607575308    0.2754170180196827    
  0.2657701317610234    0.2614307278819742    0.34252967931940825    0.342296956495531    0.33755341408307354    
  0.32393214999040054    0.30438525197406013    0.2866376181235932    0.27934710630013304    0.28663761671511423    
  0.3043852687791314    0.32393213566537754    0.337553385385018    0.3422969452335157    0.34252967931940825    
  0.448706344257672    0.4446700976942251    0.4229643853859836    0.3774916216626279    0.32393212408116034    
  0.2836922470929325    0.26923684616109017    0.2836922374445111    0.3239320837228559    0.37749163246806555    
  0.42296438636178196    0.4446700697894326    0.448706344257672    0.49510413637270007    0.5007216923221223    
  0.4871354680953233    0.42296439760405186    0.33755339761532754    0.2754170041671811    0.25415245488599125    
  0.27541703888744506    0.3375534505674168    0.4229643757414479    0.487135485830224    0.5007216327337715    
  0.49510413637270007    0.45102273040384305    0.4772226415127912    0.5007216637940465    0.44467010902652654    
  0.342296909166853    0.2657701840657727    0.23999869971241192    0.26577015012119304    0.34229695286295947    
  0.44467008481761633    0.5007216530161049    0.4772226709521492    0.45102273040384305    0.4153966538732917    
  0.4510227465875211    0.49510415709787414    0.44870642312440007    0.34252970739044364    0.2614307323544778    
  0.23419518163922495    0.2614307171478891    0.3425296730180937    0.44870639795099937    0.49510413041327883    
  0.4510227083344883    0.4153966538732917    0.1355774689836296    0.19311414907178953    0.3488427694006226    
  0.4507542855560645    0.4072285011589432    0.33276336955402525    0.3039551128479489    0.3327633892127899    
  0.4072284763710743    0.4507543125625206    0.3488427500423747    0.19311412062167854    0.1355774689836296    
  0.1931141216186501    0.2523430389109517    0.3941193198657509    0.468317556418346    0.41603545969438177    
  0.34338501770477475    0.31568330679386114    0.3433850021177574    0.4160354756644345    0.4683175466941418    
  0.39411933358300694    0.2523430335023927    0.1931141216186501    0.34884275595503433    0.39411936013769305    
  0.4773093863186073    0.4924489404925481    0.4324834602735303    0.3698404653897136    0.3462309716362704    
  0.36984044753956385    0.43248346770373614    0.49244888681656146    0.4773093669137023    0.39411934950304167    
  0.34884275595503433    0.4507542416665663    0.46831756352814846    0.49244891963105564    0.4813678094029531    
  0.4389080197439157    0.39707362272545715    0.3804319503909308    0.3970736482411756    0.4389080198549679    
  0.48136777640329403    0.4924488858074606    0.4683175584995641    0.4507542416665663    0.40722852301171747    
  0.41603550699088504    0.43248344911522685    0.4389080393567763    0.42841394634579577    0.4093289630020753    
  0.3995708740132184    0.40932899230927794    0.42841397905617357    0.4389080283091909    0.4324834822655046    
  0.4160354479294769    0.40722852301171747    0.3327633756733283    0.34338500749501916    0.3698404397033501    
  0.3970736498395713    0.40932893049013175    0.40427524258149344    0.3984328899339622    0.4042752523667815    
  0.40932894936668796    0.3970736376119397    0.36984046345287297    0.3433850090200579    0.3327633756733283    
  0.303955095292687    0.3156833164210593    0.3462309987880567    0.3804319395960147    0.3995708859765098    
  0.39843289544988186    0.39357699524035306    0.39843290089678735    0.3995709061136985    0.38043195082160497    
  0.34623096519501223    0.3156833113616806    0.303955095292687    0.3327633805034547    0.34338501787342685    
  0.36984045206782346    0.3970736517773802    0.4093289623910391    0.4042752830626095    0.3984328697443969    
  0.4042752675646885    0.4093289442663892    0.39707365852858506    0.3698404476070088    0.34338496811584196    
  0.3327633805034547    0.40722852138946586    0.4160354736746059    0.43248348789794216    0.4389080751685436    
  0.4284139692715242    0.4093289529906726    0.3995708932241935    0.40932895121262536    0.4284139799984127    
  0.43890800831459603    0.4324834424049248    0.41603549588809247    0.40722852138946586    0.45075425892504917    
  0.4683175416342275    0.4924489119297872    0.4813677849272217    0.43890800017289067    0.39707366289266866    
  0.3804319374440225    0.3970736490486573    0.43890800778392136    0.4813678102411583    0.49244888480977245    
  0.468317550036208    0.45075425892504917    0.34884279543760843    0.3941193677760929    0.47730938393553063    
  0.4924489703407418    0.4324834814927931    0.3698404533107452    0.34623096087725125    0.3698404818518746    
  0.4324834882504151    0.4924488878281906    0.47730939555072716    0.3941193168971672    0.34884279543760843    
  0.19311414511505945    0.25234301829889044    0.39411935972539736    0.4683175669759628    0.41603546531772984    
  0.3433850192141457    0.3156833223889246    0.34338498533800815    0.41603549916485993    0.4683175482752027    
  0.39411935728185626    0.2523430343579595    0.19311414511505945    0.1355774689836296    0.19311414907178953    
  0.3488427694006226    0.4507542855560645    0.4072285011589432    0.33276336955402525    0.3039551128479489    
  0.3327633892127899    0.4072284763710743    0.4507543125625206    0.3488427500423747    0.19311412062167854    
  0.1355774689836296    0.05294909636629609    0.09950498092336679    0.2770875575467669    0.4697210440709774    
  0.48069915774718786    0.4129115988414401    0.3823598703104211    0.41291161019443345    0.4806991422715514    
  0.46972098960411873    0.277087526192378    0.09950497536682851    0.05294909636629609    0.0995049719131106    
  0.15793919246346955    0.34226946878433867    0.5063776136577428    0.499972009425456    0.4315567867124604    
  0.40175639410556874    0.43155679827341575    0.4999720312911821    0.5063776049381036    0.34226946832746064    
  0.15793920163950373    0.0995049719131106    0.2770875336875339    0.34226950929444017    0.4906874810025351    
  0.5754221111529052    0.5420623599829391    0.4790542579604287    0.4526789630855993    0.47905426955980285    
  0.542062431169321    0.5754220932449148    0.4906874673104896    0.34226947231855476    0.2770875336875339    
  0.46972095641992984    0.5063775817747277    0.5754221100368762    0.6020016007805629    0.5704505880306775    
  0.5220700795007734    0.5002011722044412    0.5220700329707679    0.5704505785513895    0.6020016198050537    
  0.5754221169128007    0.5063775686171013    0.46972095641992984    0.48069914424198296    0.4999720161104355    
  0.5420623948866662    0.5704506121074668    0.5572087151254271    0.5145427725460079    0.49104344335204747    
  0.5145427982708184    0.557208774377856    0.5704505296582252    0.5420624027617058    0.49997195580089693    
  0.48069914424198296    0.41291158758583074    0.4315567663731256    0.4790542752242626    0.5220700844302852    
  0.5145427488198718    0.46136787843139304    0.4305213688480963    0.461367899017157    0.5145427577839331    
  0.5220700527791439    0.47905426866131157    0.4315567816483638    0.41291158758583074    0.3823598964676097    
  0.4017563895668728    0.45267896161456095    0.5002011308023375    0.4910434588927644    0.4305213491559334    
  0.396065702590774    0.4305213671402045    0.49104347432340667    0.5002011661627602    0.45267891307835484    
  0.4017563985250644    0.3823598964676097    0.41291158162871483    0.43155679997449836    0.4790543138949442    
  0.5220700498700045    0.5145427493033857    0.4613679026598398    0.4305213340167971    0.46136790752832646    
  0.514542726494926    0.5220700754853469    0.4790542602908021    0.43155675270972105    0.41291158162871483    
  0.48069913346562815    0.49997196117492326    0.542062435293104    0.570450605437151    0.5572087458206593    
  0.5145427717718102    0.49104343780261556    0.5145427627732454    0.5572087611465243    0.570450583431378    
  0.5420623967651909    0.4999720273518099    0.48069913346562815    0.46972096365302235    0.5063776070120305    
  0.5754221289146665    0.60200159775481    0.5704505781020702    0.5220700451283324    0.5002011324628353    
  0.5220700015848908    0.5704505574691919    0.6020015812505192    0.5754221240764128    0.5063775526894441    
  0.46972096365302235    0.27708753666856695    0.3422695011067063    0.49068745540722897    0.5754221448798903    
  0.542062368364763    0.47905424712625744    0.4526789482747124    0.47905428685669155    0.5420624431106372    
  0.5754221383228241    0.49068747340024726    0.3422694592638733    0.27708753666856695    0.09950497908094758    
  0.15793919015365762    0.34226947894336984    0.5063775606073948    0.49997199015252014    0.43155680049922335    
  0.40175640255460454    0.43155677395101044    0.4999720295673824    0.5063776016785629    0.3422695012202304    
  0.15793920727627087    0.09950497908094758    0.05294909636629609    0.09950498092336679    0.2770875575467669    
  0.4697210440709774    0.48069915774718786    0.4129115988414401    0.3823598703104211    0.41291161019443345    
  0.4806991422715514    0.46972098960411873    0.277087526192378    0.09950497536682851    0.05294909636629609    
  0.07537423544494616    0.13055062059955305    0.32405857733891114    0.5212773252090014    0.5338555736402422    
  0.4678637232209011    0.437752104862409    0.4678637249625904    0.5338555825087483    0.5212773445776014    
  0.3240585568118588    0.13055060828830817    0.07537423544494616    0.1305506208906071    0.1966393183302502    
  0.3939342813302117    0.5633023911951581    0.5602134374742558    0.4935186452221572    0.46395172766579557    
  0.4935186666024179    0.5602134648408441    0.5633023732713682    0.39393430864175605    0.1966393266413847    
  0.1305506208906071    0.324058567118722    0.39393432142925705    0.5522750846224621    0.6473537268099356    
  0.619803452149918    0.5558725689565787    0.5278418022717996    0.5558725242953582    0.6198034513374878    
  0.6473537040863231    0.5522750827324114    0.39393430202119756    0.324058567118722    0.5212772878900434    
  0.5633023311262219    0.6473537093433255    0.6889520636863378    0.6549678146706043    0.5876983500019967    
  0.5548355341270895    0.5876983580209854    0.6549678608125492    0.6889520349223616    0.6473536758409273    
  0.5633023580397846    0.5212772878900434    0.5338556447597315    0.5602134947571982    0.6198034557697779    
  0.6549678452356555    0.6045580736476587    0.4982812839766024    0.4455497096141917    0.498281300529444    
  0.6045581697222652    0.6549678192461265    0.6198034673525441    0.5602134442540763    0.5338556447597315    
  0.467863689115335    0.4935186202407277    0.5558725429826497    0.5876983701881634    0.49828123561801035    
  0.3462515821879804    0.28017441789887204    0.34625157680089624    0.4982812359105993    0.5876983327728383    
  0.5558725277236299    0.4935186396386533    0.467863689115335    0.43775211967597627    0.4639517179157949    
  0.527841812783455    0.5548355217589293    0.4455497314785751    0.2801744166629638    0.21377444061354864    
  0.28017442124245906    0.44554972259773656    0.5548355351223798    0.5278418097989672    0.4639517286591017    
  0.43775211967597627    0.46786372594581493    0.4935186614857566    0.5558725811821822    0.5876983939127262    
  0.49828129241991603    0.34625157621905167    0.2801744000301731    0.3462515844477583    0.4982812457522754    
  0.5876983240857508    0.5558725205356748    0.4935185816641122    0.46786372594581493    0.5338556044874745    
  0.5602134309069458    0.6198035310661009    0.6549679185933633    0.604558096158267    0.4982812777940981    
  0.4455497322031616    0.49828123623431986    0.6045581580330723    0.6549678503325487    0.6198034274950068    
  0.5602134476620049    0.5338556044874745    0.5212772662438475    0.5633023824400616    0.6473536691836111    
  0.6889520466810634    0.6549678888689646    0.5876983241978524    0.5548355052895262    0.5876983015237918    
  0.6549678735209097    0.6889520385848086    0.6473537127208405    0.563302366696751    0.5212772662438475    
  0.32405854650255744    0.39393432076168167    0.5522750664347215    0.6473537771164974    0.6198034185398773    
  0.5558725227879123    0.5278418319196467    0.5558725642584075    0.6198034934332532    0.6473537154674566    
  0.5522750685480567    0.3939342745627881    0.32405854650255744    0.130550624743684    0.19663932116791052    
  0.3939343145460581    0.5633023889937219    0.5602134483706734    0.49351863589919986    0.46395173115196936    
  0.4935185977268796    0.5602134487514944    0.5633023638162068    0.3939343091500299    0.19663932337609943    
  0.130550624743684    0.07537423544494616    0.13055062059955305    0.32405857733891114    0.5212773252090014    
  0.5338555736402422    0.4678637232209011    0.437752104862409    0.4678637249625904    0.5338555825087483    
  0.5212773445776014    0.3240585568118588    0.13055060828830817    0.07537423544494616    0.21377563454678658    
  0.2801731164819369    0.4455513005271211    0.5548338328569956    0.5278435004127922    0.46395016842568093    
  0.4377536651689619    0.4639501664832064    0.5278434744833969    0.5548338671350659    0.44555127732604777    
  0.28017308810465297    0.21377563454678658    0.2801731226041123    0.34625295808656253    0.4982796213418047    
  0.5877000642914618    0.5558708184624108    0.4935202707009652    0.4678620966267382    0.49352028811973486    
  0.5558708712668112    0.5877000507743296    0.4982796389463393    0.346252979172107    0.2801731226041123    
  0.4455512788466015    0.4982796683190564    0.6045598533560641    0.6549660614790842    0.6198052018028857    
  0.5602117469857053    0.5338572707590581    0.5602117197542668    0.6198052590084939    0.6549660664460489    
  0.6045598494368702    0.4982796600768861    0.4455512788466015    0.5548337697619333    0.5877000077636123    
  0.6549660908947844    0.68895390896308    0.6473518996438545    0.5633041044792141    0.5212756651216223    
  0.5633040977593774    0.6473519080976736    0.6889538748838955    0.6549660253372671    0.5877000625444675    
  0.5548337697619333    0.5278435355803063    0.5558708834696896    0.6198052189427672    0.6473519264983324    
  0.5522767197693969    0.39393285316742005    0.3240599165460577    0.39393283637883514    0.5522768348881436    
  0.6473518938484039    0.619805232932326    0.555870818416925    0.5278435355803063    0.46395012474467995    
  0.4935202524922937    0.5602117496376147    0.5633041062114823    0.39393278934104775    0.19664046006313296    
  0.1305496468573115    0.196640458125518    0.39393282066745583    0.5633040734808324    0.560211746935377    
  0.4935202570314883    0.46395012474467995    0.437753665633349    0.467862084255628    0.5338573246834437    
  0.521275638252886    0.32405992527331456    0.13054965719024395    0.07537501207710097    0.13054964528643082    
  0.32405995190814274    0.5212756544066397    0.533857283731953    0.46786210836042635    0.437753665633349    
  0.46395014421460107    0.49352029541354137    0.5602117457622984    0.5633041260675503    0.3939328480476824    
  0.1966404655109258    0.13054963804268988    0.1966404814334855    0.39393282433577137    0.563304086616631    
  0.5602117347373882    0.49352023306082227    0.46395014421460107    0.5278434883847302    0.5558708041952186    
  0.6198052880430542    0.6473519893422183    0.5522767259073303    0.39393284665496564    0.32405994272996097    
  0.39393279096082856    0.552276792111792    0.6473518973959804    0.6198051924049421    0.555870815211444    
  0.5278434883847302    0.5548337717481309    0.5877000791934816    0.654966033966514    0.6889538709236063    
  0.6473519269863207    0.5633040740189029    0.5212756030034942    0.5633040464565993    0.6473518598991383    
  0.6889538776219104    0.6549660505879129    0.5877000732485447    0.5548337717481309    0.4455512597017134    
  0.498279657492221    0.6045598629211038    0.6549661067458732    0.619805192002974    0.560211732265281    
  0.5338573195178876    0.560211773422674    0.6198052952730672    0.6549660622541368    0.6045598651619098    
  0.49827962847008456    0.4455512597017134    0.28017311634154246    0.3462529760561515    0.49827964795744517    
  0.5877000780639895    0.5558708110397038    0.49352027733224985    0.4678620813720955    0.4935202427991492    
  0.5558708693754    0.5877000638066786    0.49827967426149505    0.34625298289336637    0.28017311634154246    
  0.21377563454678658    0.2801731164819369    0.4455513005271211    0.5548338328569956    0.5278435004127922    
  0.46395016842568093    0.4377536651689619    0.4639501664832064    0.5278434744833969    0.5548338671350659    
  0.44555127732604777    0.28017308810465297    0.21377563454678658    0.3960642686889586    0.43052289201101734    
  0.49104185944606654    0.5002028265952614    0.45267737524600643    0.40175791188293664    0.3823584021554108    
  0.40175793327437714    0.45267736382286156    0.5002027612972051    0.4910418292924685    0.4305228473860121    
  0.3960642686889586    0.43052288620278195    0.4613662939939509    0.5145443812455601    0.5220684516532293    
  0.4790558571363385    0.43155525202582157    0.4129130801040834    0.43155524580454835    0.4790558882977032    
  0.5220684239915082    0.514544362143598    0.4613663299758505    0.43052288620278195    0.49104183739811613    
  0.5145444180055664    0.5572070767498963    0.5704522667684624    0.5420606892632822    0.49997364103285646    
  0.48069757975713034    0.49997364304757613    0.5420607512831381    0.5704522831085901    0.5572070651155606    
  0.5145443622949996    0.49104183739811613    0.5002027416125963    0.522068412982145    0.5704522770863485    
  0.6019998495690906    0.5754238382601241    0.5063759222552164    0.46972260743642236    0.5063759587246751    
  0.5754237759664924    0.6019998729090648    0.5704522863293853    0.5220683905246349    0.5002027416125963    
  0.45267741291333796    0.47905587328758237    0.5420606931729648    0.5754238470211533    0.490685833076822    
  0.34227088973600256    0.27708624156165956    0.3422709044438185    0.49068590558426994    0.5754238131690671    
  0.5420607239507185    0.4790558452634557    0.45267741291333796    0.40175790526484834    0.431555240167129    
  0.4999736351270399    0.5063759798463491    0.3422708838079035    0.1579381518508448    0.09950586072983218    
  0.15793816098033758    0.34227089338973304    0.5063759354573503    0.49997365825226076    0.43155523419270875    
  0.40175790526484834    0.3823584296085485    0.4129130978125656    0.48069758039403643    0.4697225782279151    