#     DFTpy    
  CRYSTAL 
    
  PRIMVEC    
  4.179292516148725    -2.2961847999999995e-10    4.3522526068965505e-10    
  -2.2961847999999995e-10    4.179292515905878    2.0971257517241376e-10    
  7.953192896551723e-10    3.832869793103448e-10    7.656544886913403    
  PRIMCOORD    
  4    1    
  Si    2.089646257994738    2.0896462591029374    2.3528122150271487    
  Si    7.748947484957833e-10    -7.171547613726461e-10    1.4754602258557934    
  Si    1.1885064085754739e-10    5.416231050781342e-10    6.1810846567147575    
  Si    2.089646258621261    2.0896462575154273    5.303732676874042    
  BEGIN_BLOCK_DATAGRID_3D    
  3d_datagrid_density    
  BEGIN_DATAGRID_3D#0    
  19    19    33    
  0.0    0.0    0.0    
  4.179292516148725    -2.2961847999999995e-10    4.3522526068965505e-10    
  -2.2961847999999995e-10    4.179292515905878    2.0971257517241376e-10    
  7.953192896551723e-10    3.832869793103448e-10    7.656544886913403    
  0.17109752369043377    0.16012722802288284    0.13250879107389268    0.09935800422337579    0.07010710072640954    
  0.0489069223757478    0.035417264798828674    0.027596762288698368    0.02361572708003958    0.02240216359438456    
  0.02361572644717479    0.027596751840960936    0.035417256863192435    0.04890691751858095    0.07010705415445981    
  0.09935805186814754    0.13250883118279952    0.16012721700644794    0.17109752369043377    0.16012726895049187    
  0.15011351758899913    0.1247421311145392    0.09407871307216366    0.06688682282611354    0.047099190954796845    
  0.03443988340751182    0.027051461238972653    0.02327673405900869    0.022125516949700837    0.023276729417880233    
  0.027051458732189768    0.034439896957836696    0.04709919127587286    0.06688683807336737    0.09407866409531888    
  0.12474213251596283    0.1501136208299932    0.16012726895049187    0.13250884096206902    0.12474215360202813    
  0.10483752822529394    0.08043665751660313    0.05852134459263968    0.04235926278851707    0.03185297611924675    
  0.02563006243259901    0.02244223484159046    0.02147623060940384    0.022442236189386174    0.02563006046849043    
  0.03185298564239654    0.04235927925481003    0.05852135885967488    0.08043662965932906    0.10483749878173569    
  0.1247421911128754    0.13250884096206902    0.09935805063636473    0.09407872901274798    0.08043664985089442    
  0.06351215819331643    0.04802420288391919    0.03632399415259159    0.028544772696335496    0.023871587450222075    
  0.021480496274632076    0.020765010525377138    0.02148049254125741    0.023871571798742757    0.028544794068262012    
  0.036323992209262836    0.04802417623657597    0.06351214324718842    0.0804366545667159    0.09407876937208384    
  0.09935805063636473    0.07010705119600598    0.06688682437593145    0.058521346551194946    0.048024162433319355    
  0.03819657410184078    0.030563881520268194    0.0254088423346678    0.022300860992486786    0.02072331461702949    
  0.020259952594983744    0.02072332361646501    0.022300863303497474    0.025408838050070423    0.030563896755512538    
  0.038196580227262945    0.04802412881293133    0.058521325001181804    0.06688686052043712    0.07010705119600598    
  0.04890690266967537    0.04709916544473977    0.04235924774194615    0.036323977749409424    0.030563880491748564    
  0.02602438648710405    0.022985032050565617    0.021225795206931145    0.020385351659473347    0.020152641424618156    
  0.0203853303377379    0.021225799959441023    0.022985025128987667    0.026024386912636945    0.030563878554772866    
  0.03632396548462719    0.04235923758303054    0.047099192657060904    0.04890690266967537    0.03541727004475415    
  0.034439910040597765    0.0318529817562686    0.028544762745380488    0.02540886326627576    0.02298506026667181    
  0.021471682990072637    0.020743834404045276    0.020498391507565498    0.020457112137660313    0.020498371515555735    
  0.02074381094522905    0.021471698226975554    0.022985051173151926    0.025408849888640027    0.02854478801214542    
  0.03185299429537601    0.034439910198660044    0.03541727004475415    0.027596763432590994    0.02705146594886157    
  0.02563005871159076    0.02387156208103454    0.02230087232252941    0.021225794456414617    0.020743804699580193    
  0.020728266948668653    0.020899074048221233    0.02099047881456989    0.02089907836382886    0.020728268896223544    
  0.020743807708863627    0.02122578684452469    0.022300865541764116    0.023871561829230652    0.025630052006113273    
  0.027051475194423955    0.027596763432590994    0.023615719719384573    0.023276732823132848    0.022442216674580337    
  0.02148047912173231    0.02072332556784476    0.02038534836361486    0.020498354772563964    0.020899069155677703    
  0.021319094482237132    0.02150104327369794    0.02131906992812031    0.0208990438869098    0.020498353827449956    
  0.02038535657673608    0.02072331471746696    0.021480478718682715    0.02244221958985063    0.02327673185594251    
  0.023615719719384573    0.02240217017312938    0.022125527997291658    0.021476224660074518    0.020765005410474147    
  0.020259967172618725    0.020152642464717357    0.02045708864013399    0.020990502945142635    0.021501061478078322    
  0.021717443512999406    0.021501024857851117    0.020990468695170992    0.020457098702046227    0.02015263726284644    
  0.020259957901940316    0.02076500432880512    0.02147621968705843    0.02212552733433057    0.02240217017312938    
  0.023615737903626567    0.023276729989086375    0.02244222240010499    0.021480479661275975    0.020723337213476484    
  0.020385371539655164    0.020498355389763852    0.0208990599325136    0.021319100818007947    0.021501034420502337    
  0.0213190747810982    0.02089907843541293    0.020498358605716575    0.02038535793089026    0.020723320016861335    
  0.021480465616584406    0.022442210996613327    0.023276740317445532    0.023615737903626567    0.027596755903893253    
  0.027051449266456487    0.025630043547595047    0.023871563177381438    0.02230087127260969    0.021225784542873265    
  0.020743793241361105    0.020728251577805272    0.020899075297553863    0.020990474838657344    0.020899056269655426    
  0.020728272734035418    0.0207438143411403    0.021225799344014657    0.022300855874466216    0.0238715624397692    
  0.02563006858793235    0.027051459595108615    0.027596755903893253    0.0354172734913195    0.03443990178698558    
  0.031852996572027045    0.028544774718682792    0.02540886029265894    0.022985054789586196    0.02147168091718282    
  0.02074383494613024    0.020498391016063613    0.02045709773562143    0.020498356499804447    0.02074381806252471    
  0.02147168847223204    0.02298505448860482    0.0254088481267967    0.028544780556585114    0.0318529928426388    
  0.034439889077196396    0.0354172734913195    0.048906905174574584    0.04709917516879581    0.04235923496873586    
  0.036323971106725916    0.030563874197624498    0.026024385231761978    0.022985044741613017    0.021225780220935447    
  0.020385351028340454    0.020152631753587266    0.020385332373495477    0.02122578738628187    0.022985044957341997    
  0.026024401376913347    0.030563880033886794    0.03632395132944733    0.042359242170222536    0.047099193349713096    
  0.048906905174574584    0.07010709920917875    0.066886823220254    0.058521335046618654    0.04802414899882887    
  0.03819657270743018    0.030563873898621606    0.025408838573466274    0.02230084779489781    0.02072332782625506    
  0.02025995496967891    0.020723313721604738    0.022300860290387456    0.025408830163126072    0.03056387700197818    
  0.03819657440743574    0.04802415671583823    0.05852134115660162    0.06688685863983074    0.07010709920917875    
  0.09935803721380743    0.09407873124934571    0.08043663444468512    0.06351214053748608    0.0480242035145242    
  0.03632399505196599    0.02854477699588023    0.023871587486149766    0.021480518382643976    0.0207650183218697    
  0.021480484975178876    0.023871571040172925    0.028544795433640947    0.03632399909719697    0.048024158470153566    
  0.06351212719782753    0.08043667406053207    0.0940787695840597    0.09935803721380743    0.13250882870445863    
  0.12474213504332728    0.10483747325974999    0.0804366403542208    0.058521359955792863    0.04235925486014944    
  0.031852988009864185    0.025630070188177194    0.022442224085526766    0.021476221063097857    0.02244223774478197    
  0.02563007001589102    0.03185300145749373    0.042359283811769954    0.0585213611868885    0.08043663464106217    
  0.10483750245976438    0.12474218899064404    0.13250882870445863    0.160127207355908    0.1501135880992281    
  0.12474217088939715    0.09407870284233655    0.06688684704402015    0.04709917975483737    0.034439872420962574    
  0.027051463582067902    0.023276729794931065    0.02212552165042654    0.023276727514281795    0.02705144676757898    
  0.034439882700618304    0.04709917991993363    0.0668868150800695    0.09407868423670622    0.12474218077266065    
  0.1501136054846788    0.160127207355908    0.17109752369043377    0.16012722802288284    0.13250879107389268    
  0.09935800422337579    0.07010710072640954    0.0489069223757478    0.035417264798828674    0.027596762288698368    
  0.02361572708003958    0.02240216359438456    0.02361572644717479    0.027596751840960936    0.035417256863192435    
  0.04890691751858095    0.07010705415445981    0.09935805186814754    0.13250883118279952    0.16012721700644794    
  0.17109752369043377    0.205032694306509    0.19157782222843797    0.15740273869386787    0.11625730585183411    
  0.08022135832997816    0.05439552335262761    0.038188244245710184    0.02898686627994673    0.024398139375968537    
  0.02301012999354326    0.024398137254966024    0.02898683946794557    0.038188230711780964    0.054395525765558894    
  0.08022134728710467    0.11625731955560409    0.15740276366249117    0.19157782063159978    0.205032694306509    
  0.1915778239799837    0.17917631558205682    0.14768054780134954    0.10970223743971633    0.0763134631161833    
  0.05226361211762507    0.037086135593808814    0.02841575293610272    0.024069470251796888    0.022752772771927162    
  0.024069461959751893    0.028415749067564364    0.037086147677246134    0.05226361210135911    0.07631346067749352    
  0.1097022064851555    0.14768047628203287    0.17917634823060774    0.1915778239799837    0.15740273830649917    
  0.14768047873564866    0.12293518413736287    0.09290951548869322    0.06620192090520345    0.04667930566868577    
  0.03416757388361087    0.02691780657003342    0.02325239400897732    0.02214006795292307    0.02325240053851968    
  0.026917811697534294    0.03416759227277565    0.04667931029019658    0.06620192353814525    0.09290948827023286    
  0.12293521196368026    0.14768051628936518    0.15740273830649917    0.11625727897359665    0.10970225420880017    
  0.09290949861865014    0.0722867346694767    0.05359161493092    0.03960455404861397    0.030454333525131175    
  0.025068962639673346    0.022328413019664275    0.021498760531771674    0.0223284047914829    0.02506894174991177    
  0.03045435558184733    0.039604548757889185    0.05359157759459439    0.07228672200756261    0.09290950846166333    
  0.10970225749729892    0.11625727897359665    0.08022131176662774    0.07631345805466407    0.06620192428638491    
  0.0535915652331739    0.04190575784322934    0.03295436372793402    0.027000796510999757    0.023473175424523384    
  0.021686815151027026    0.021152321359926868    0.02168680656165729    0.023473166963260666    0.027000803677452022    
  0.03295438525635374    0.041905747199991746    0.05359155489280323    0.06620191978336962    0.07631349176872138    
  0.08022131176662774    0.054395525834606266    0.05226359752968536    0.04667930523677029    0.03960452782363974    
  0.032954379599048574    0.027809508295995822    0.024412925577524162    0.022473827319356852    0.021556879606240545    
  0.02130144999305138    0.021556861842449038    0.022473811036147436    0.024412920084559562    0.02780951923975594    
  0.03295436661120743    0.039604533355625575    0.04667929191535839    0.05226362262710273    0.054395525834606266    
  0.03818823954797408    0.03708615543898263    0.03416759052217839    0.030454324753568723    0.027000823154305183    
  0.0244129526465539    0.02284929389857537    0.022139174936756958    0.021939009791626756    0.02191748670213728    
  0.021938976559392573    0.02213916798371907    0.022849312040577184    0.024412946959312235    0.027000812242898943    
  0.030454346176975493    0.03416758902134239    0.03708616268705831    0.03818823954797408    0.02898686217545528    
  0.028415751002834416    0.026917814429457895    0.025068928000683242    0.023473175890183294    0.022473827363094254    
  0.02213914553288995    0.02230376103509455    0.022624852059373597    0.022776190267771307    0.022624859038708076    
  0.02230377043182702    0.022139182880811386    0.022473845357372242    0.02347317548601932    0.025068933792474882    
  0.02691780832773111    0.02841576809738724    0.02898686217545528    0.024398130944435072    0.02406946080411392    
  0.023252379349797583    0.022328391652120635    0.021686816343842234    0.021556871255520957    0.021938964124941087    
  0.022624860328797736    0.023268818214727274    0.023529418503822973    0.02326879740885513    0.02262484331923406    
  0.021938964806269477    0.021556902699615823    0.021686810999377856    0.02232839271072887    0.023252387288115715    
  0.024069470395752888    0.024398130944435072    0.023010138429314864    0.022752767672117424    0.02214006223199074    
  0.02149875050709719    0.021152343426428757    0.02130147113540153    0.021917469934475263    0.022776182608037706    
  0.0235294234517736    0.023832251893141018    0.023529409379186152    0.022776178425132507    0.021917483215285513    
  0.02130145338722242    0.021152322814625115    0.02149875797996244    0.022140067834645172    0.022752783146916526    
  0.023010138429314864    0.024398143614343823    0.02406946253977463    0.023252393261053057    0.0223283877968585    
  0.021686824584117574    0.02155688176019387    0.021938977374813064    0.022624881694530658    0.023268812014105106    
  0.02352940317023411    0.023268801522572    0.02262488725579152    0.021938973194275572    0.02155690163836534    
  0.02168681069246229    0.02232837537599641    0.02325238156852158    0.02406946597515866    0.024398143614343823    
  0.02898685212967825    0.028415728346265903    0.026917791140353583    0.02506894204662572    0.023473184631539388    
  0.022473846026347666    0.022139152639724224    0.022303755919842967    0.02262486896601222    0.0227761714027251    
  0.022624858723017133    0.02230374789583892    0.022139163375014054    0.02247384140856856    0.023473168207153897    
  0.0250689392461015    0.026917816833652318    0.028415757993015687    0.02898685212967825    0.03818824777961273    
  0.03708615397436065    0.03416757925634956    0.030454321092827415    0.02700082062065708    0.02441295623779088    
  0.022849301717098484    0.022139182854642565    0.021938995464311765    0.021917482868677327    0.02193898096862988    
  0.02213916218021146    0.022849299721183665    0.024412950891421096    0.027000803771240426    0.03045433556004054    
  0.034167594206705135    0.037086153223471335    0.03818824777961273    0.054395533884124506    0.052263611265416114    
  0.04667929436484578    0.03960452676853027    0.03295437951191103    0.027809512122810298    0.02441293918745944    
  0.022473814402455643    0.021556870974230032    0.021301448137290117    0.021556875681240845    0.022473833451234246    
  0.02441293820863692    0.027809535196994976    0.03295438243039283    0.03960452404615875    0.04667930151248453    
  0.052263612282679506    0.054395533884124506    0.08022133043915153    0.0763134781548466    0.06620193955990124    
  0.05359155242654153    0.041905735611666    0.03295437607667395    0.027000797084315978    0.023473164764386042    
  0.021686823076059836    0.02115233045062849    0.021686808853436896    0.023473166034977063    0.02700078753426252    
  0.03295436779091193    0.04190573930545004    0.05359154609762192    0.06620191312407507    0.07631350312315988    
  0.08022133043915153    0.11625728434487599    0.10970231306139279    0.09290944656921446    0.07228673350943003    
  0.05359162598402776    0.03960455499426266    0.03045434583486627    0.02506895555509272    0.022328431991084835    
  0.02149876835879841    0.022328397406239618    0.025068944337739263    0.030454346480312734    0.03960455843775964    
  0.05359157951573939    0.07228672186551223    0.09290951254044771    0.10970228876340658    0.11625728434487599    
  0.157402748919845    0.14768050018345663    0.12293521272369953    0.09290947953481328    0.06620195016073685    
  0.04667932263434243    0.034167580384364946    0.026917823757389575    0.023252384290399792    0.02214005884996557    
  0.023252404650362206    0.026917830430949696    0.03416759056270705    0.04667932882690139    0.06620194037965853    
  0.09290944631182782    0.12293520414452089    0.1476805308300849    0.157402748919845    0.19157781756220618    
  0.17917632240971668    0.14768048003340456    0.10970225195695417    0.07631351097340118    0.052263605223882986    
  0.03708612028216233    0.02841575032365634    0.024069457726522914    0.02275276509062945    0.02406946064150498    
  0.02841572909133972    0.03708613131918307    0.05226360185706296    0.07631346749111642    0.10970226576437478    
  0.1476805309552349    0.17917636729033237    0.19157781756220618    0.205032694306509    0.19157782222843797    
  0.15740273869386787    0.11625730585183411    0.08022135832997816    0.05439552335262761    0.038188244245710184    
  0.02898686627994673    0.024398139375968537    0.02301012999354326    0.024398137254966024    0.02898683946794557    
  0.038188230711780964    0.054395525765558894    0.08022134728710467    0.11625731955560409    0.15740276366249117    
  0.19157782063159978    0.205032694306509    0.3112353046304963    0.29129260327644574    0.23822125824809434    
  0.17152064753747776    0.11273199458343043    0.07155785930069714    0.04667101601172962    0.03316271292559345    
  0.02670365062450713    0.024800508807276495    0.026703647229727557    0.03316271841666353    0.046671023987947764    
  0.07155786709590874    0.11273193961996955    0.17152064483659982    0.2382212995123078    0.29129267270086906    
  0.3112353046304963    0.2912926325848258    0.2723367372785648    0.22257738739921926    0.16081242654303904    
  0.10652599183833207    0.0683606375164417    0.045161548487633485    0.03249382383303404    0.02640047290694432    
  0.024597139835688692    0.026400472768384732    0.032493813455819566    0.045161564650454324    0.06836062725865426    
  0.10652600683112666    0.16081236836493976    0.22257738569740998    0.2723368514161834    0.2912926325848258    
  0.23822126382519854    0.22257735716428403    0.18241837746835976    0.13353000714027125    0.0906249792624223    
  0.060095970168900906    0.04124508844899564    0.030788748373418797    0.025678105180597183    0.0241500290104619    
  0.02567811114985437    0.030788736463739485    0.041245105354454685    0.06009596225516062    0.09062500198957962    
  0.13352997935727848    0.18241835504663165    0.2225774405156759    0.23822126382519854    0.1715206637504281    
  0.16081244305710307    0.13352999048835798    0.1004294708891413    0.07110455070537398    0.04983067010087911    
  0.03639528422620671    0.028785299932499942    0.024999375835826287    0.023852322159974335    0.0249993691377991    
  0.02878528619537439    0.036395305727792926    0.04983066833446958    0.07110449706260373    0.10042945865996573    
  0.13352997535261757    0.16081245527442586    0.1715206637504281    0.11273188515596502    0.10652599371470055    
  0.09062497657328421    0.07110449214741563    0.05350871274641492    0.040471714715744254    0.03206557534426349    
  0.027247610937091004    0.02485255887521685    0.02412955108841927    0.024852563442044104    0.02724761733593892    
  0.032065587110695876    0.04047172382936837    0.053508708245283296    0.07110446394118446    0.09062498555468829    
  0.10652603449314339    0.11273188515596502    0.07155783765312403    0.06836060820157498    0.06009595573823339    
  0.049830635101402614    0.040471716798833025    0.03349732951357612    0.029047731672466288    0.026611860365391753    
  0.025513387110202863    0.0252110517845206    0.025513374073886763    0.026611843732580943    0.029047731021429414    
  0.03349733218373096    0.04047171458652037    0.049830631037750706    0.06009593108805828    0.06836063614500339    
  0.07155783765312403    0.0466710191311938    0.045161575474460876    0.04124512704312377    0.03639526794251804    
  0.03206560841455826    0.029047766040249164    0.0274381440501255    0.026908573793141273    0.02693193648257059    
  0.027007892730917957    0.026931899802191996    0.026908557179662753    0.02743815764348053    0.02904776189914305    
  0.032065602460821116    0.03639530789779039    0.041245118249900146    0.04516158046813676    0.0466710191311938    
  0.03316271688741347    0.03249381977038152    0.030788747879066335    0.028785281113602602    0.027247628083965556    
  0.026611866520242864    0.02690853433935103    0.027811468998963737    0.028739741344734265    0.02912237984010483    
  0.028739749040788846    0.027811454665544532    0.02690853878273766    0.026611859141183504    0.027247620214227133    
  0.02878527644765909    0.030788742087667548    0.032493843131520844    0.03316271688741347    0.026703647195370214    
  0.026400473931231495    0.0256780938324903    0.024999348431775377    0.02485257093512193    0.025513401146121127    
  0.026931880183870764    0.02873975196672178    0.030269389728021172    0.030864339432895547    0.03026936958406718    
  0.02873972462461943    0.026931891110987247    0.025513415047645836    0.024852562410792412    0.024999355452181328    
  0.02567809527491414    0.026400473336904977    0.026703647195370214    0.02480051647082894    0.02459715455094993    
  0.02415001979762699    0.023852303279352147    0.024129564630870102    0.02521107339363407    0.02700787559161461    
  0.02912239191958771    0.030864317805974234    0.03153449071468991    0.03086429035815884    0.029122372853095303    
  0.02700788266176194    0.025211053807692865    0.024129556262392066    0.023852321376354218    0.024150028492560264    
  0.024597152215021675    0.02480051647082894    0.026703648393191264    0.026400474102803707    0.02567810013638932    
  0.024999351448967057    0.024852581883295477    0.025513416793560183    0.026931886281849882    0.02873974770533847    
  0.03026941008947103    0.03086431911578497    0.03026937304689707    0.028739768736777905    0.02693190730238923    
  0.025513411821522065    0.02485256120593818    0.024999347449340948    0.02567809074875705    0.02640047779560525    
  0.026703648393191264    0.033162708656183204    0.032493810307339374    0.030788728646837293    0.02878527664238989    
  0.027247629077803186    0.026611841598031486    0.026908533063596935    0.02781144113533744    0.028739735519226206    
  0.02912235525994789    0.028739729188671542    0.027811453904153575    0.026908565263756325    0.026611862247041665    
  0.02724760301199786    0.02878528052516558    0.030788745413719742    0.03249382067622268    0.033162708656183204    
  0.04667101996474358    0.045161573873544525    0.04124512378820678    0.03639528434158408    0.03206560326505882    
  0.029047764876227233    0.02743813647097696    0.026908585896062428    0.026931922213576036    0.027007889663747717    
  0.026931906750897527    0.02690856433505663    0.027438140521524046    0.029047767014002548    0.03206559419113491    
  0.03639529429410511    0.04124511381087395    0.045161559828357296    0.04667101996474358    0.07155784997369924    
  0.0683606178042875    0.06009594003414958    0.049830641190136755    0.04047171256690237    0.03349732434844287    
  0.02904775605622567    0.026611828099821183    0.025513393036747236    0.025211057083262454    0.025513385601287422    
  0.02661184979062457    0.02904775464946153    0.03349734360147567    0.04047170918394981    0.04983061192408353    
  0.06009593145747775    0.06836062831796227    0.07155784997369924    0.11273193773565585    0.10652598211607205    
  0.09062497870028656    0.07110447928511286    0.05350870197233566    0.04047171364032952    0.03206557494023943    
  0.027247602615691816    0.024852562879925873    0.02412954232682407    0.02485254974115587    0.02724760999746537    
  0.03206557814436273    0.04047171278439343    0.05350870852318643    0.07110449038586428    0.09062497891501865    
  0.10652600803192469    0.11273193773565585    0.1715206522395427    0.1608124466695255    0.13352999442257027    
  0.10042948156930005    0.07110453619993093    0.0498306676189451    0.03639529022559141    0.028785305902831824    
  0.02499939182776878    0.023852324258442237    0.02499936420153742    0.02878528575498599    0.03639530303982212    
  0.04983066558203173    0.07110449621734817    0.10042944803998305    0.13352998135362276    0.16081247130764767    
  0.1715206522395427    0.23822130413951412    0.22257736137821602    0.1824184087003715    0.13352994348398473    
  0.0906250011300997    0.06009595050109698    0.04124512118632874    0.030788757803788185    0.02567809568356981    
  0.024150020447921194    0.0256781061764741    0.030788764447382894    0.04124512257064188    0.06009597382836825    
  0.09062500967912591    0.13352994447235103    0.1824184073383443    0.22257744371867472    0.23822130413951412    
  0.29129258762854915    0.27233677934039074    0.22257739742400054    0.16081240313322998    0.10652600672920362    
  0.06836060121922023    0.04516153420293702    0.032493814636226206    0.026400467050373893    0.024597135755375338    
  0.026400467487312177    0.03249380275891447    0.04516156013112448    0.06836060107529217    0.10652601293702497    
  0.16081241147601366    0.22257739165564003    0.2723368065918707    0.29129258762854915    0.3112353046304963    
  0.29129260327644574    0.23822125824809434    0.17152064753747776    0.11273199458343043    0.07155785930069714    
  0.04667101601172962    0.03316271292559345    0.02670365062450713    0.024800508807276495    0.026703647229727557    
  0.03316271841666353    0.046671023987947764    0.07155786709590874    0.11273193961996955    0.17152064483659982    
  0.2382212995123078    0.29129267270086906    0.3112353046304963    0.4334051496769983    0.4193826395421773    
  0.3635669753683763    0.26717304166859107    0.17000963036459205    0.10091874183890201    0.06066595997711666    
  0.03983636564342552    0.03032268052539057    0.027619322816454208    0.030322681845847303    0.03983633846063358    
  0.06066595773053062    0.1009187562234017    0.17000957550841853    0.2671730402756744    0.3635669839411604    
  0.41938256200740465    0.4334051496769983    0.41938270168484487    0.40226513111021955    0.34319805459629077    
  0.25018575126519266    0.15974338780735153    0.09587943720356695    0.05851728782446446    0.039054900814628285    
  0.0301085005577997    0.027553809050541486    0.030108478339997666    0.03905489243723928    0.058517291942417324    
  0.09587943325585414    0.15974334981510202    0.2501856936645683    0.343198111828322    0.40226522593116315    
  0.41938270168484487    0.36356691972093624    0.3431980646574678    0.2847605855075876    0.20566136778815924    
  0.13355519490077594    0.08308136014299292    0.0531094007643603    0.03718934373475545    0.029732835066286416    
  0.02756986062410343    0.029732850940474915    0.03718934715325349    0.05310941188100743    0.08308136362260102    
  0.13355516400595815    0.20566137914139346    0.28476059329144154    0.3431981894387547    0.36356691972093624    
  0.2671730771030326    0.25018584701091523    0.20566141385504966    0.15036199646722506    0.10173029748139711    
  0.06751274708882986    0.046666371746366564    0.03528153756804747    0.02981878761037018    0.028204334283086593    
  0.029818780589115454    0.03528150788600135    0.04666640096885782    0.06751275471264871    0.10173023502889807    
  0.15036199126064237    0.20566140622783186    0.2501858331626212    0.2671730771030326    0.17000956188735364    
  0.15974338389922124    0.13355517331157374    0.10173024387647654    0.07373173509266777    0.05369837437263349    
  0.04121754798582209    0.03432185144446995    0.031025264910562195    0.030052639929230157    0.031025270943984305    
  0.034321835800807915    0.04121754349373694    0.053698388033299606    0.07373171539232551    0.1017301954141905    
  0.13355512972433242    0.1597434403213495    0.17000956188735364    0.10091872481874996    0.09587940733017408    
  0.08308134376246148    0.06751271758898632    0.053698369016034864    0.043829203189981895    0.0379003984958762    
  0.0349461732925889    0.03378409019890053    0.03350290027034102    0.03378408625096443    0.03494617968766957    
  0.037900399390359454    0.04382921988137457    0.053698368506671104    0.06751271200466423    0.0830813355522269    
  0.09587944027760874    0.10091872481874996    0.06066596008160563    0.05851731029258165    0.053109435723983064    
  0.04666636899220142    0.041217571968313875    0.037900435317623174    0.036783791856311684    0.037164228341882856    
  0.03802362739507936    0.03843469137032193    0.03802361099296285    0.03716420147573855    0.036783815743390263    
  0.037900426479902265    0.04121756769409985    0.04666638048930288    0.0531094312137759    0.05851733519436265    