#     DFTpy    
  CRYSTAL 
    
  PRIMVEC    
  6.590896551724137    0.0    0.0    
  0.0    6.590896551724137    0.0    
  0.0    0.0    6.590896551724137    
  PRIMCOORD    
  8    1    
  Si    0.0    0.0    0.0    
  Si    1.6477241379310343    1.6477241379310343    1.6477241379310343    
  Si    0.0    3.2954482758620687    3.2954482758620687    
  Si    1.6477241379310343    4.9431724137931035    4.9431724137931035    
  Si    3.2954482758620687    0.0    3.2954482758620687    
  Si    4.9431724137931035    1.6477241379310343    4.9431724137931035    
  Si    3.2954482758620687    3.2954482758620687    0.0    
  Si    4.9431724137931035    4.9431724137931035    1.6477241379310343    
  BEGIN_BLOCK_DATAGRID_3D    
  3d_datagrid_density    
  BEGIN_DATAGRID_3D#0    
  29    29    29    
  0.0    0.0    0.0    
  6.590896551724137    0.0    0.0    
  0.0    6.590896551724137    0.0    
  0.0    0.0    6.590896551724137    
  0.08258614701346051    0.1429567365753579    0.33150159221856906    0.43832807602811547    0.32353888795016067    
  0.17931823592763887    0.09372724128562655    0.05218312877284905    0.03305737335526358    0.02424408618822416    
  0.020094898696829785    0.018182195966711723    0.017309388257019317    0.01693891877079975    0.016837329358457706    
  0.016938917807026437    0.01730938738504709    0.018182181001351067    0.02009493572488399    0.024244073842989    
  0.03305737168067213    0.05218311328697307    0.09372727739661153    0.17931820438506746    0.32353884009320627    
  0.43832806836158705    0.33150156343549075    0.14295672299180576    0.08258614701346051    0.14295674095580332    
  0.20979914436536146    0.3782627464841775    0.4339927496806886    0.30705141236018174    0.17084625526598443    
  0.09100236706140004    0.051815500013740544    0.033436900981504224    0.024775268072305488    0.02056702990365469    
  0.018521374885045183    0.017523086734009218    0.017069268750224163    0.016938912526071277    0.017069279781033148    
  0.017523083040858763    0.018521392223157917    0.020567032911425392    0.024775287956994577    0.033436884640416685    
  0.05181550940905401    0.09100234945873101    0.17084629224496514    0.30705134229070963    0.4339927860842459    
  0.3782627267211832    0.20979915172129138    0.14295674095580332    0.33150164618025085    0.37826278543789743    
  0.44399371474544563    0.39348052436851194    0.25999054990333    0.14861459101689894    0.08400556888349063    
  0.05098789042338647    0.03459829638812124    0.02633175976353199    0.02195759427332924    0.01955514982670498    
  0.01821174543246285    0.017523101939282658    0.01730938870027076    0.01752309287909507    0.01821175405514412    
  0.019555134438986262    0.021957623137560875    0.026331732230079452    0.0345983240191609    0.05098788189774371    
  0.08400560612061816    0.14861456568345613    0.2599904933058218    0.39348052353516805    0.44399370948582145    
  0.378262769613161    0.33150164618025085    0.4383280392850429    0.4339927926880122    0.3934804802964461    
  0.30002446108460823    0.19660164403894112    0.12067394869365415    0.07529847365539231    0.05031538268106973    
  0.036683729761312886    0.028963243406504982    0.024320044833288597    0.02139321280969474    0.019555141195958147    
  0.018521383731569387    0.018182192663747956    0.018521383280903133    0.019555138700158195    0.021393207468122052    
  0.024320033275172258    0.02896325513951694    0.03668368842667845    0.05031541634362539    0.07529843752499432    
  0.1206739495698788    0.19660164108165468    0.30002443623141395    0.39348050735997625    0.4339927698590806    
  0.4383280392850429    0.3235388408612    0.3070514599392937    0.2599905274728007    0.1966016431478945    
  0.1379229963318234    0.09489920053510191    0.06721741662148732    0.05031527430910547    0.03976450887736346    
  0.032736861265378565    0.027814131487151363    0.024320060941705985    0.021957608861735    0.020567058355779582    
  0.020094893028171464    0.020567047194814583    0.02195760265299473    0.024320048289043456    0.027814135712347376    
  0.03273682976856597    0.03976449979391258    0.05031525751164967    0.06721745386606473    0.09489920985671904    
  0.13792304864138857    0.19660165444786426    0.2599905615171186    0.3070513615717133    0.3235388408612    
  0.17931824060523222    0.17084627632427074    0.1486145850507666    0.12067395233599963    0.0948992399421356    
  0.07493250652742331    0.06083195834614069    0.050988020776739536    0.043579901752381855    0.03759728935528962    
  0.032736857164665976    0.028963235045077085    0.026331781588739847    0.024775236363709485    0.02424413131221963    
  0.0247752441309905    0.026331770977182846    0.028963246623771286    0.032736870047787275    0.0375973099435838    
  0.04357987597367489    0.050988029854176    0.06083193960348843    0.0749325414441288    0.0948991981378038    
  0.12067399184410549    0.14861458059506708    0.1708462650797545    0.17931824060523222    0.09372720609448393    
  0.09100238331874044    0.08400558207321025    0.07529847522140683    0.06721744069191771    0.060831975169360564    
  0.05596721357861092    0.051815414003321306    0.04770814435067575    0.043579918321391305    0.0397644388307129    
  0.03668374728687067    0.034598268479485314    0.033436957254597166    0.03305732028603817    0.03343696175832133    
  0.03459825344237156    0.03668371984562916    0.039764482949554106    0.04357989577084787    0.04770814074895108    
  0.05181536552081249    0.055967217359522856    0.06083195680610227    0.06721743428769386    0.07529849004988602    
  0.08400558292338862    0.09100237600022658    0.09372720609448393    0.052183150486179365    0.051815489575120034    
  0.050987902845177346    0.05031536905292559    0.050315263405538574    0.05098799859232444    0.0518153890993766    
  0.05218325246452785    0.05181540753636043    0.05098797674153975    0.050315303615294    0.0503153223367732    
  0.05098796118031348    0.05181541331996688    0.052183213106106074    0.05181541660886724    0.05098793735930864    
  0.05031534621976894    0.050315313139722664    0.050987989634653515    0.051815374650302705    0.05218326343231483    
  0.051815363451957676    0.050988010639365436    0.05031524870801614    0.05031540137945132    0.050987880486964135    
  0.05181549916811011    0.052183150486179365    0.03305735819786446    0.03343690799921208    0.03459830776298657    
  0.036683723563622164    0.039764480149289405    0.04357991696441487    0.0477081314033327    0.05181541562607391    
  0.055967185085510726    0.060832040211042014    0.06721735135032396    0.0752985779378025    0.08400544662711933    
  0.0910025095923218    0.09372711238689092    0.09100248411813161    0.08400546270954783    0.0752985496767002    
  0.0672173950994845    0.06083201195919246    0.05596717131640566    0.0518153749200072    0.04770816035414813    
  0.043579866934818585    0.039764488058972196    0.03668369068728998    0.0345983073718586    0.033436904941722204    
  0.03305735819786446    0.02424409808983463    0.024775284419846964    0.02633175401867697    0.028963233453390705    
  0.032736860544536374    0.037597281042093936    0.043579909023036094    0.05098795971406614    0.06083203846148443    
  0.07493240996784731    0.09489933431228034    0.12067378843099186    0.14861474963739252    0.17084603434042533    
  0.1793184788197597    0.17084605095556074    0.14861472958443742    0.12067382088171505    0.09489933712457908    
  0.0749324568580646    0.06083200268063803    0.05098799373937987    0.04357988198571285    0.03759731237434279    
  0.032736858453211    0.02896326299006249    0.02633174314273963    0.024775265650161877    0.02424409808983463    
  0.02009490159828178    0.020567054282231573    0.02195760475056555    0.024320050062801465    0.027814125815969166    
  0.03273689025910865    0.03976444900105358    0.050315327736904406    0.06721737181064101    0.09489932994684623    
  0.13792283470442923    0.19660185747975809    0.25999026308655815    0.3070516996846303    0.3235385481172704    
  0.3070516642197124    0.2599902360320587    0.19660181986697392    0.13792286222588612    0.09489931515011568    
  0.06721738739056377    0.05031533098192268    0.03976446710012571    0.03273687026445375    0.027814132599609256    
  0.024320048130861527    0.02195759384723205    0.020567062468493776    0.02009490159828178    0.018182200115009782    
  0.01852137459583618    0.019555152392241794    0.021393197455667923    0.024320049491146994    0.028963222996228905    
  0.036683758690045844    0.050315303767224075    0.07529860436943721    0.12067377434836359    0.19660186436614022    
  0.3000241318090563    0.3934808097431431    0.433992377661186    0.4383284373858544    0.43399237677361646    
  0.3934808345751907    0.30002414604746147    0.19660186709027655    0.12067377448106188    0.07529857036840182    
  0.050315343161017136    0.03668374567445182    0.028963247633366596    0.02432004747055678    0.02139321218138635    
  0.019555143496847675    0.018521381473767532    0.018182200115009782    0.017309376712069818    0.017523117776984027    
  0.018211715525458493    0.019555160526937617    0.021957583913505177    0.02633178713832847    0.03459824727796305    
  0.05098798465239083    0.08400547395065067    0.14861477266735382    0.25999022282382356    0.393480880201202    
  0.4439932768543663    0.3782631586899639    0.33150124549564    0.3782630932703461    0.4439933030217901    
  0.39348085449497244    0.25999028089366716    0.14861477684397623    0.0840054651402469    0.05098795804426028    
  0.03459826150460508    0.026331781240860826    0.021957602051403024    0.019555163314235846    0.018211735223565267    
  0.01752310586180677    0.017309376712069818    0.016938919565319833    0.017069254969040493    0.017523108319503267    
  0.018521362352789263    0.020567047269672605    0.02477521512623726    0.03343697274152312    0.05181540418125535    
  0.09100253250068553    0.1708460414919411    0.3070517163099516    0.4339923889573674    0.37826321336419205    
  0.20979882732820046    0.1429570292129618    0.20979882738839079    0.37826310203818314    0.4339924000941077    
  0.30705173752165293    0.1708460523344927    0.09100250605981976    0.05181542225773372    0.03343694808126909    
  0.024775249165007167    0.020567056294422313    0.018521377619590922    0.017523109551033287    0.017069259419792725    
  0.016938919565319833    0.016837327014489173    0.016938931642628312    0.01730937911265538    0.018182215928371076    
  0.020094878788610226    0.024244136585265523    0.03305730170388058    0.05218324680934332    0.09372711045615723    
  0.1793184441912765    0.3235385473648602    0.43832842125207644    0.3315012076009122    0.14295703677432972    
  0.0825859102270838    0.14295703822223582    0.33150118725408756    0.4383284307545986    0.3235386351138136    
  0.17931841361775963    0.09372711158968021    0.0521832037650285    0.03305731616803891    0.024244131397282546    
  0.020094873723151652    0.01818221033135955    0.017309371918424982    0.01693894062547095    0.016837327014489173    
  0.01693892641017405    0.017069244953206417    0.01752311210657308    0.018521362891978956    0.020567078996381546    
  0.02477522001785306    0.03343696345563786    0.0518154015649995    0.0910025397195077    0.1708460430558784    
  0.3070517151709293    0.4339923459417907    0.37826313517372195    0.20979885935568823    0.1429570446228701    
  0.2097987911232036    0.37826314337959904    0.43399233622243544    0.3070517514781216    0.17084608991103642    
  0.09100247000688136    0.05181540500461248    0.033436951870778574    0.02477523910575494    0.020567046021160152    
  0.018521371869196383    0.017523101086693513    0.017069260119843336    0.01693892641017405    0.017309388121993806    
  0.017523112318895022    0.01821172606713335    0.01955516025523861    0.021957590115016676    0.026331787415616245    
  0.03459825013922805    0.05098797892072785    0.08400545515601332    0.14861473751688775    0.25999019447004407    
  0.39348090738529823    0.4439933093579531    0.37826317046236957    0.33150123287409117    0.3782631551146946    
  0.44399333347326675    0.3934809269951748    0.25999028019225057    0.14861479914328585    0.08400546567100733    
  0.05098796324755715    0.03459824528394449    0.026331773316732483    0.021957601880214762    0.019555159158402127    
  0.018211721906538976    0.017523098412325043    0.017309388121993806    0.018182194485307862    0.01852137766759492    
  0.019555154536853848    0.02139318491349206    0.024320069238750554    0.0289632243412441    0.03668374165512192    
  0.050315298799819955    0.07529861150940516    0.12067375953571605    0.1966018663943537    0.30002414657875587    
  0.393480872934137    0.43399239890066643    0.43832840962858644    0.4339923397155446    0.3934808593882843    
  0.30002421388074396    0.19660186815167136    0.12067380920612744    0.07529855708252743    0.050315332579504615    
  0.03668373276355798    0.028963244415054656    0.024320057951915525    0.02139321082707632    0.01955514409157791    
  0.018521379424066998    0.018182194485307862    0.020094898830423067    0.020567048865208333    0.021957602703587768    
  0.024320052717997122    0.02781410230347524    0.03273689333013803    0.0397644491619002    0.0503153179601114    
  0.0672173510519606    0.09489934909837634    0.13792284308971356    0.19660187049600542    0.25999023409024885    
  0.30705174296569826    0.3235385553699229    0.3070516790995711    0.2599902110600948    0.1966018038918929    
  0.1379228740202953    0.09489930785589355    0.06721737694114749    0.05031532059492152    0.03976446771011493    
  0.03273687777406029    0.027814130302999573    0.02432005854770308    0.021957599236853517    0.02056703504379834    
  0.020094898830423067    0.024244105035966478    0.024775277313105276    0.026331742490415682    0.02896324516355136    
  0.03273687087434034    0.03759726877751295    0.04357990371190484    0.05098797570562874    0.060832059734544024    
  0.07493240938327413    0.09489933671291376    0.12067380893766344    0.1486147921762224    0.17084601906421729    
  0.17931845701691648    0.17084602148695718    0.14861475675183683    0.12067379943667532    0.09489932182687394    
  0.07493247019840085    0.06083200242996722    0.0509879854657634    0.043579884142815405    0.03759729996080666    
  0.03273686035008362    0.028963256684714823    0.026331764540060976    0.024775265257283904    0.024244105035966478    
  0.033057352100064795    0.033436897486618024    0.03459830210585646    0.036683715198727845    0.039764487315738076    
  0.04357989648213956    0.0477081285104878    0.05181539907691554    0.05596717352961466    0.06083204207945288    
  0.06721733914252402    0.07529858123090899    0.08400543450713831    0.09100251192402672    0.09372712589492219    
  0.09100251766953625    0.08400546806407586    0.07529854142839788    0.06721738193258611    0.06083204417146697    
  0.05596719079377022    0.051815381974485944    0.04770815972108662    0.043579880228543894    0.03976447508003258    
  0.03668372060042046    0.034598313821752866    0.03343691196519447    0.033057352100064795    0.05218313836686001    
  0.05181549720089199    0.050987895702629946    0.05031536637145777    0.050315271104845086    0.0509880043196054    
  0.051815383901336984    0.05218324965051003    0.051815404889571356    0.05098796138525722    0.05031530311134891    
  0.05031533108912601    0.05098796527790505    0.05181542639817934    0.05218321728417212    0.05181541777618828    
  0.0509879371287936    0.050315342292888726    0.05031530669230051    0.05098797605386563    0.051815381306482056    
  0.052183248832466105    0.0518153658498749    0.05098803266702448    0.05031525320185228    0.05031538995382133    
  0.05098789566533965    0.0518154898409859    0.05218313836686001    0.09372721790718425    0.0910023829536407    
  0.08400557560040717    0.07529848166529808    0.06721743743134886    0.060831971840737166    0.05596722064799381    
  0.05181540049359195    0.04770813312367022    0.0435799220728303    0.03976446353625921    0.03668375376478366    
  0.03459826014917205    0.033436961634114894    0.03305731913627911    0.03343696425766155    0.03459827066842576    
  0.03668372352683008    0.03976447565933172    0.04357990704505248    0.04770813501278103    0.05181536165435984    
  0.05596724074616371    0.06083195470381141    0.06721742822238544    0.07529847566345015    0.08400559035597417    
  0.09100235437765306    0.09372721790718425    0.1793182403969641    0.17084629888146602    0.14861460106519322    
  0.12067392795136216    0.09489922477357088    0.07493250481996679    0.060831953415276384    0.05098803624296936    
  0.04357988271510401    0.037597274450398746    0.03273686265914737    0.028963234387810476    0.026331778332783932    
  0.024775244820725024    0.024244136963923815    0.024775238028234458    0.02633176888703541    0.028963250476327973    
  0.03273686084228545    0.037597309101303954    0.04357987624029325    0.05098801986301679    0.060831952310645365    
  0.07493252967561825    0.09489918908923621    0.12067398391768636    0.14861457294519506    0.17084626682217394    
  0.1793182403969641    0.3235388265753439    0.3070514013026294    0.2599905047825765    0.19660164980370728    
  0.13792299868073954    0.09489921957153563    0.06721743031286921    0.05031526928305947    0.03976450691935011    
  0.03273685000415835    0.027814121888679634    0.024320060124725207    0.021957586362367606    0.020567058921738206    
  0.02009488986860706    0.020567051233462794    0.0219576102962494    0.02432004280604538    0.027814150339024186    
  0.03273684095981671    0.039764502679158764    0.05031527449072002    0.06721744924471265    0.09489921154564719    
  0.13792304179658302    0.19660162246806792    0.2599905547591924    0.3070513934410864    0.3235388265753439    
  0.43832800361312113    0.4339927982976906    0.3934805175662404    0.30002450820889115    0.19660165793940942    
  0.12067393738218889    0.07529844878576995    0.05031537513059308    0.03668373362382155    0.0289632631188912    
  0.02432005083296058    0.02139321084589075    0.019555145815212116    0.018521368097515478    0.018182200798486977    
  0.018521375358625962    0.019555145626547848    0.021393212180447693    0.024320025506502363    0.02896324940581498    
  0.03668368775413137    0.05031540781394202    0.07529844285878878    0.12067395149268072    0.1966016087045816    
  0.30002449968089695    0.3934804909907668    0.4339927872624569    0.43832800361312113    0.33150161148190416    
  0.37826278195747615    0.44399370352696216    0.3934805242215522    0.2599905811486284    0.1486145701741186    
  0.08400556157224523    0.050987895392671734    0.034598318958407676    0.026331751479764336    0.021957603051186905    
  0.019555153317056477    0.018211733489205684    0.017523111698250406    0.01730939678809548    0.01752308838326015    
  0.018211735862196404    0.019555131087692565    0.021957619408729614    0.02633174504041626    0.03459832062183826    
  0.0509878717105067    0.08400559234731994    0.14861460260403223    0.2599905257385288    0.39348054594243953    
  0.4439937550162907    0.3782627536753167    0.33150161148190416    0.1429567177154553    0.20979915677632718    
  0.378262817795457    0.4339927358818474    0.3070514096211751    0.17084625608432896    0.09100240051726201    
  0.05181550671166343    0.03343691725314207    0.02477527727591512    0.02056702528466373    0.018521397262498848    
  0.017523100213204412    0.017069277014824094    0.016938920427268758    0.017069281054216765    0.01752307983882232    
  0.018521383719231316    0.02056703091921494    0.024775282965375855    0.033436869885162986    0.05181551934199311    
  0.09100235601067821    0.17084628381438816    0.3070513478802622    0.4339927804504014    0.3782627756386587    
  0.20979915477559455    0.1429567177154553    0.08258614701346051    0.1429567365753579    0.33150159221856906    
  0.43832807602811547    0.32353888795016067    0.17931823592763887    0.09372724128562655    0.05218312877284905    
  0.03305737335526358    0.02424408618822416    0.020094898696829785    0.018182195966711723    0.017309388257019317    
  0.01693891877079975    0.016837329358457706    0.016938917807026437    0.01730938738504709    0.018182181001351067    
  0.02009493572488399    0.024244073842989    0.03305737168067213    0.05218311328697307    0.09372727739661153    
  0.17931820438506746    0.32353884009320627    0.43832806836158705    0.33150156343549075    0.14295672299180576    
  0.08258614701346051    0.1429566997905918    0.2097991998099812    0.3782627543789099    0.43399276643088225    
  0.30705141608507763    0.1708462764137214    0.09100237315221647    0.051815502188661954    0.033436909616651245    
  0.024775281368890383    0.02056702430245299    0.018521390205526213    0.01752307860374958    0.017069274310643062    
  0.016938902784586832    0.01706928108014434    0.01752307234741927    0.01852140525958347    0.02056703961242073    
  0.024775284626394153    0.03343687667273409    0.0518155210185502    0.09100234071110877    0.17084630842403853    
  0.307051291084679    0.43399284181886805    0.37826270086998304    0.20979917749919053    0.1429566997905918    
  0.20979919435019032    0.2775572857652088    0.4188222356138281    0.4336956269724656    0.3002776808888981    
  0.17075383996540444    0.09448100175161037    0.055967108031626224    0.03718490643760123    0.027812452732666512    
  0.0228568780593863    0.020128883523686192    0.018533459000022685    0.017587192770257932    0.017069276813082547    
  0.016888572486783243    0.01705550934861116    0.017764072659643013    0.0194695123792516    0.023171669329395135    
  0.030985180443718056    0.04770801187832708    0.08337082412128428    0.15618976961674808    0.28263556307009824    
  0.41573329342746423    0.40667304264673076    0.27302506293245665    0.20979919435019032    0.3782627767985011    
  0.4188222262363938    0.4597514921638912    0.39422594789681303    0.2642247304123645    0.15815417333940712    
  0.09485094860397181    0.06083212302590228    0.042769037600934395    0.03270156206803229    0.026633955769419914    
  0.022770849761792077    0.020211657422594082    0.018533457677015475    0.017523109673440267    0.017055518190402724    
  0.01708636091508435    0.017716294600956358    0.019298847038083423    0.022638663916486924    0.02946884767357158    
  0.043580025141260484    0.0726520959762875    0.13041125687149327    0.23180750751969692    0.3611419752319307    
  0.4343703125268372    0.406673005676571    0.3782627767985011    0.43399281619138314    0.4336956706097606    
  0.3942259583744298    0.30734469769718414    0.21175958411587956    0.13967230253698765    0.09425509757817867    
  0.06721727902947236    0.050734041893941415    0.03988918486204309    0.03223467743967536    0.026700913681316583    
  0.022770834130858498    0.02012889264265048    0.018521372516898314    0.017764090221650087    0.01771628279403359    
  0.018367826344999717    0.019933608420173658    0.022978113553364155    0.028732274600543766    0.03976438493759104    
  0.061076171674664656    0.10104243473726936    0.16946418256505236    0.26591311761617337    0.3611419303269195    
  0.4157333021129315    0.43399281619138314    0.3070513679947259    0.3002776958506345    0.2642247098012928    
  0.21175958644649812    0.1609651252135704    0.12164836392618256    0.09425487624415949    0.07529862871936169    
  0.061076025387675814    0.04945850649764071    0.039854220632508326    0.03223467983414616    0.026633973300322467    
  0.022856866007146755    0.02056704155161215    0.019469489627524223    0.01929886102732685    0.019933606643211914    
  0.021441692858392817    0.02413328372986855    0.028732165452290848    0.03668383659148737    0.050733880803579795    
  0.07508631621406142    0.11428859883165497    0.16946419873532614    0.23180752622532083    0.2826355459832771    
  0.3070513679947259    0.17084625508381068    0.17075385816174515    0.1581541364072402    0.13967230703946443    
  0.12164837455603446    0.10681245887410909    0.09485116173125517    0.08400541441964668    0.07265227238549472    
  0.06076105539505177    0.0494584726680222    0.03988922244029257    0.03270152786259175    0.02781248436525007    
  0.024775259167357892    0.023171698281355308    0.022638630590750573    0.02297813924317725    0.02413327758465784    
  0.0261892012406309    0.029468969624674376    0.03459819644864644    0.04276915863407535    0.055720395792315074    
  0.07508628790638883    0.10104248618005665    0.13041123186296688    0.1561898048652209    0.17084625508381068    
  0.09100235021555785    0.09448101532076494    0.09485099298945178    0.09425506606203231    0.09425490404999992    
  0.09485116460140859    0.09448081487489195    0.09100255389711391    0.08337062432872683    0.07265226358727052    
  0.0610760103908275    0.05073397102831621    0.04276910063183884    0.03718486649548385    0.0334369577719758    
  0.030985139425218303    0.029468894120380194    0.02873223085228493    0.028732204365792702    0.029468969386829677    
  0.030985057287641452    0.03343701605817384    0.03718477978741296    0.04276917538909881    0.05073385814042174    
  0.06107616743890096    0.07265208248333348    0.08337079992714289    0.09100235021555785    0.05181550234438303    
  0.055967087783265125    0.060832121796503213    0.06721729564887692    0.0752986210842471    0.0840054312309461    
  0.09100252879385881    0.0937270845256418    0.0910025092890421    0.08400547954401585    0.07529855173109463    
  0.06721734872339176    0.060832039091646535    0.055967150375315834    0.05181542563317416    0.04770811387747228    
  0.04357991868562157    0.0397644468139008    0.03668378750695957    0.034598212470554515    0.03343700743844145    
  0.03305727678813797    0.03343701736091027    0.03459819579727247    0.03668380609533546    0.03976438038222465    
  0.04358000464319993    0.04770803986502975    0.05181550234438303    0.03343690498426412    0.037184905521392184    
  0.04276905098804992    0.050734014755121674    0.06107600216008629    0.07265226600675737    0.08337062597939696    
  0.09100250359027777    0.09448089375244677    0.09485109434554546    0.09425497171056982    0.0942549752042596    
  0.09485110098393192    0.09448086947520644    0.0910024762974565    0.08337066607404511    0.07265219875656774    
  0.06107606274831674    0.05073395346219614    0.04276912164919365    0.037184795019827147    0.033436999667411565    
  0.030985076465042536    0.02946896444268799    0.028732167783143667    0.028732278461381953    0.029468869387289168    
  0.030985174848372384    0.03343690498426412    0.024775272909325848    0.027812476274231644    0.03270153991850381    
  0.03988920552729839    0.049458484450075973    0.060761077304625405    0.07265222607017303    0.08400547144482695    
  0.09485109998045287    0.1068125366657648    0.12164825899295166    0.1396724480407704    0.15815398011963586    
  0.17075402630836134    0.17084609555423103    0.15618995290379797    0.13041103833857617    0.10104262781478847    
  0.07508619497972849    0.05572046876092729    0.04276911847596824    0.03459823201401507    0.029468945226205356    
  0.0261892126790074    0.024133279510679635    0.02297813542164347    0.022638651412220497    0.023171679596242934    
  0.024775272909325848    0.020567037882563928    0.02285688813718935    0.026633980421020716    0.0322346699073805    
  0.03985423880795341    0.04945847607100967    0.061076046773899044    0.0752985594406855    0.09425501574758403    
  0.12164822266734952    0.16096532760682505    0.21175934176545222    0.26422497805051315    0.3002773751781489    
  0.30705165554635344    0.28263525201001566    0.231807807410657    0.16946397008103742    0.11428876415052013    
  0.07508617501204608    0.05073394226099006    0.0366837851433685    0.02873219665316572    0.024133276709090684    
  0.021441700174585684    0.01993361375533935    0.019298845493693637    0.019469509515578156    0.020567037882563928    
  0.018521380797136288    0.020128895811926232    0.022770822122358605    0.02670093035329989    0.03223464120491827    
  0.03988922963141306    0.05073395927650041    0.06721736967373387    0.0942549652012377    0.13967248759775794    
  0.2117593616210796    0.3073449895950969    0.3942255826392621    0.43369606845203684    0.4339923293373004    
  0.41573369263685905    0.36114155892094824    0.26591340282786635    0.16946396855739956    0.10104257433271469    
  0.0610760796073061    0.03976445722778651    0.02873223212330295    0.02297816077481254    0.019933584540644284    
  0.01836785150932405    0.01771627684979118    0.0177640982915208    0.018521380797136288    0.01752309165958622    
  0.018533447846941963    0.020211653295699086    0.022770818690513093    0.026634001631714116    0.03270151046951109    
  0.04276910728985381    0.060832023618762394    0.09485115555605611    0.15815394989647052    0.2642249496053656    
  0.3942256122464118    0.45975197842326954    0.4188217790617107    0.3782632160197838    0.40667251196610865    
  0.4343706575040918    0.3611415711041195    0.23180780971385687    0.13041108214701555    0.0726522230251504    
  0.043579938383579445    0.029468914473128424    0.022638634815917862    0.019298856299593662    0.017716277945703688    
  0.01708636976377362    0.017055500594707042    0.01752309165958622    0.017069256503958578    0.017587204927522273    
  0.01853342783856914    0.020128905114599027    0.022856845762667687    0.027812501705061835    0.03718485394732515    