#     DFTpy    
  CRYSTAL 
    
  PRIMVEC    
  2.724    0.0    0.0    
  0.0    2.724    0.0    
  0.0    0.0    2.724    
  PRIMCOORD    
  4    1    
  Si    0.0    0.0    0.0    
  Si    0.0    1.362    1.362    
  Si    1.362    0.0    1.362    
  Si    1.362    1.362    0.0    
  BEGIN_BLOCK_DATAGRID_3D    
  3d_datagrid_density    
  BEGIN_DATAGRID_3D#0    
  13    13    13    
  0.0    0.0    0.0    
  2.724    0.0    0.0    
  0.0    2.724    0.0    
  0.0    0.0    2.724    
  0.06821963154012407    0.12979314180384324    0.382515104677909    0.7184807525498923    0.8268914659598104    
  0.7817143909386839    0.7509981531314809    0.7817144124214613    0.8268914848298027    0.7184807442481963    
  0.3825151242012371    0.129793126997393    0.06821963154012407    0.12979314125067673    0.20831759450801307    
  0.4765959508694033    0.7765278973154485    0.8559653434331607    0.8098961981045204    0.7817143793505041    
  0.8098961819461675    0.8559653588108646    0.7765278242437924    0.4765959691865954    0.2083175901658371    
  0.12979314125067673    0.3825150957774852    0.47659593004517004    0.7127597510468558    0.8988603230760084    
  0.9136139724079727    0.8559653485330799    0.8268914713740745    0.8559653444275457    0.9136139205915006    
  0.8988603661790123    0.7127597397055982    0.4765959433857088    0.3825150957774852    0.7184807891912572    
  0.7765278525773355    0.8988604068872746    0.9628107330710373    0.8988603859694528    0.7765279060244352    
  0.7184807872218788    0.7765278540467456    0.8988604198908576    0.9628107366143601    0.8988604099310359    
  0.7765278530130453    0.7184807891912572    0.8268915052653181    0.8559653425106428    0.9136139690509164    
  0.8988603955743907    0.712759676602136    0.4765959577340174    0.3825151107091818    0.4765959568737873    
  0.7127597574586764    0.8988603202820432    0.9136139445397818    0.8559653117974767    0.8268915052653181    
  0.7817144081885703    0.809896208594733    0.8559653733614706    0.7765278655515097    0.47659597235775863    
  0.20831758483135776    0.12979313457933217    0.20831758108055598    0.4765959461593958    0.7765279240244279    
  0.8559653562790606    0.8098961736633956    0.7817144081885703    0.7509981577881971    0.7817144195925058    
  0.8268914763405653    0.7184807615232965    0.3825151188058643    0.1297931309845252    0.06821963250998771    
  0.12979312614871727    0.3825151237202906    0.7184807745357813    0.8268914645548724    0.7817143671899733    
  0.7509981577881971    0.7817144302782825    0.8098961696269503    0.8559653277357601    0.7765278982103407    
  0.476595965437833    0.20831756732101647    0.12979312890607655    0.2083175806157138    0.4765959614196567    
  0.7765277711901988    0.8559654086934934    0.8098962133389278    0.7817144302782825    0.82689150452234    
  0.8559653262270267    0.9136139359320795    0.8988603768929322    0.7127597518463453    0.47659593764607316    
  0.38251512578196384    0.47659596280886724    0.7127597463887029    0.8988603690331508    0.9136139561389476    
  0.8559652972609243    0.82689150452234    0.7184807351048486    0.7765278792841561    0.8988603958767305    
  0.9628107866160084    0.8988604369328006    0.7765278688363778    0.7184808010655771    0.776527863799315    
  0.8988604176032746    0.9628107911541662    0.8988604047094346    0.7765278966716577    0.7184807351048486    
  0.3825151134248492    0.4765959602254159    0.7127597085967237    0.8988603725242709    0.9136138742501366    
  0.8559653530012046    0.8268914677288857    0.8559653637903435    0.9136139698095948    0.8988603553851872    
  0.7127597488411865    0.4765959656448125    0.3825151134248492    0.12979313796571829    0.2083175779533635    
  0.476595976437519    0.776527879974784    0.855965376785308    0.8098961806541253    0.7817144023283569    
  0.809896186944608    0.8559653368931126    0.7765278803309111    0.47659598451108964    0.2083175865982101    
  0.12979313796571829    0.06821963154012407    0.12979314180384324    0.382515104677909    0.7184807525498923    
  0.8268914659598104    0.7817143909386839    0.7509981531314809    0.7817144124214613    0.8268914848298027    
  0.7184807442481963    0.3825151242012371    0.129793126997393    0.06821963154012407    0.12979315386149615    
  0.2083175755550688    0.4765959648674554    0.7765278440838352    0.8559653344239663    0.80989615925312    
  0.7817144348989347    0.8098961847523041    0.8559653688716615    0.7765278556231721    0.4765959585311637    
  0.20831757341627682    0.12979315386149615    0.20831758262613334    0.29822971814645766    0.5665616671601925    
  0.8271043593545809    0.8826268957824493    0.8361504652159867    0.8098961452532741    0.8361504433749143    
  0.8826269464715246    0.8271042849638027    0.5665616872681553    0.29822972400705056    0.20831758262613334    
  0.47659596620285305    0.5665616194231843    0.7777258473825531    0.9303981275356802    0.9358946781893752    
  0.8826269107741154    0.8559653815898365    0.8826269217385327    0.9358946345328114    0.9303981980136431    
  0.7777257948691192    0.5665616811907124    0.47659596620285305    0.7765278857444058    0.827104337158867    
  0.9303982250441725    0.982763785010313    0.9303982488792514    0.8271042996110048    0.7765279507432152    
  0.8271042621958266    0.9303982282427091    0.982763801621534    0.9303982049073741    0.8271043166957385    
  0.7765278857444058    0.8559653707375571    0.8826269271143632    0.9358946124140833    0.9303982516536803    
  0.7777257550225204    0.5665616657157105    0.4765959299078936    0.5665616799888256    0.7777258404226203    
  0.9303981162558838    0.9358946372641922    0.8826268772810124    0.8559653707375571    0.8098961881128656    
  0.8361504807183006    0.8826269344713266    0.8271042906085555    0.5665617169609425    0.2982297318325713    
  0.20831757631032502    0.29822973383304646    0.5665616349173935    0.827104311676566    0.8826269068001747    
  0.8361504446648963    0.8098961881128656    0.7817144260674561    0.8098961859496953    0.8559653382710156    
  0.7765278678428741    0.47659595008114325    0.20831755598955792    0.12979314482812376    0.20831756439578952    
  0.4765959768451566    0.7765278631911855    0.8559653474960311    0.8098961775534448    0.7817144260674561    
  0.8098961991527555    0.8361504194693792    0.882626909573954    0.8271042883808092    0.5665616843895654    
  0.2982297377712088    0.20831758105982892    0.29822972628431055    0.5665616631468242    0.8271042729903201    
  0.8826269901296222    0.8361504801541721    0.8098961991527555    0.8559653530502958    0.8826268827199139    
  0.9358946873727596    0.93039815854314    0.7777258135399969    0.5665616623022182    0.4765959641345089    
  0.5665616784508737    0.7777258449913449    0.930398198200538    0.9358946697647267    0.8826268935411535    
  0.8559653530502958    0.7765279160871376    0.8271043281269548    0.9303982021034889    0.9827638224111094    
  0.9303982529973468    0.8271042842628993    0.7765279125798413    0.827104310149565    0.9303982187954699    
  0.982763868670305    0.9303982189432236    0.8271042853477083    0.7765279160871376    0.4765959429152621    
  0.5665616827891181    0.7777258020504807    0.9303982239498676    0.9358946108771324    0.8826269009000892    
  0.8559653720973679    0.8826269199842458    0.93589468672052    0.9303981267656474    0.7777258363935392    
  0.5665616475117542    0.4765959429152621    0.20831755927956858    0.29822973700809463    0.5665616858455029    
  0.8271043504955857    0.8826269239038317    0.8361504857050851    0.8098961972707838    0.8361504660775013    
  0.8826268880632179    0.827104323086227    0.566561652034282    0.29822971118204644    0.20831755927956858    
  0.12979315386149615    0.2083175755550688    0.4765959648674554    0.7765278440838352    0.8559653344239663    
  0.80989615925312    0.7817144348989347    0.8098961847523041    0.8559653688716615    0.7765278556231721    
  0.4765959585311637    0.20831757341627682    0.12979315386149615    0.3825151283113892    0.47659593442653475    
  0.7127597122610764    0.8988603647273802    0.913613904904144    0.8559653116527101    0.8268915115935412    
  0.8559653338223089    0.9136139345278189    0.8988603072329914    0.7127597090027188    0.4765959338993493    
  0.3825151283113892    0.4765959828305385    0.5665616539808938    0.7777257814617322    0.9303982157163891    
  0.9358946165111673    0.882626901543724    0.8559653597583887    0.882626888626132    0.9358946350966065    
  0.9303981421109759    0.7777258297491785    0.566561652345899    0.4765959828305385    0.7127596965925521    
  0.7777257766518165    0.9107262509482174    0.9893087876589503    0.9795563229252767    0.9358946193180303    
  0.9136139333962955    0.9358946304820316    0.9795562739100991    0.9893088013997583    0.9107262845400452    
  0.7777257718848919    0.7127596965925521    0.8988604138271177    0.9303981853261207    0.9893088022001703    
  1.0163818019614916    0.9893088243149466    0.9303981766186297    0.8988604558851555    0.9303981436415459    
  0.9893088232696489    1.0163818263241182    0.9893088173641288    0.9303981879153699    0.8988604138271177    
  0.9136139246020736    0.9358946048028236    0.9795563545939233    0.9893088402907196    0.9107261918706825    
  0.7777258200319248    0.7127596916614177    0.7777258123048262    0.9107262858801114    0.9893087351919849    
  0.9795563340241671    0.9358945744363393    0.9136139246020736    0.8559653610003912    0.8826268774374735    
  0.9358946366440266    0.9303981698056476    0.7777258295399812    0.5665616644941399    0.47659595203007993    
  0.5665616497392696    0.7777257854121458    0.9303981701635579    0.9358946187082291    0.8826269026126521    
  0.8559653610003912    0.8268915222509005    0.8559653394692428    0.9136139389902045    0.8988603518915026    
  0.7127596963996787    0.4765959302189115    0.3825151548959141    0.47659592788267346    0.7127597759551937    
  0.8988603852454307    0.9136139293028    0.8559653118765232    0.8268915222509005    0.8559653718624959    
  0.8826269000800334    0.9358945831177361    0.9303982148528225    0.7777258026361662    0.5665616532498656    
  0.4765959343114186    0.5665616670152964    0.7777257973920274    0.9303981326422346    0.9358946348391722    
  0.8826269030480105    0.8559653718624959    0.9136139672774848    0.935894552007207    0.9795563477390725    
  0.9893087494716846    0.9107262556412302    0.7777257880594247    0.7127597282607768    0.7777258036557365    
  0.9107262220470073    0.9893088118727588    0.9795563354037858    0.9358945731966504    0.9136139672774848    
  0.898860409922065    0.9303982282243183    0.989308815782008    1.016381830986187    0.989308848256626    
  0.9303981892773511    0.8988604052477541    0.930398196299015    0.9893088518541158    1.0163818550793866    
  0.9893088462370515    0.9303981960414872    0.898860409922065    0.7127597181105887    0.7777258187898302    
  0.9107262092151153    0.9893088038869393    0.9795562765606822    0.935894603983581    0.9136139497531532    
  0.9358945985619821    0.979556414236384    0.9893087400126701    0.9107261922463591    0.7777257754383845    
  0.7127597181105887    0.4765959431344235    0.5665616577462761    0.7777258350758882    0.9303981788866774    
  0.9358946499527778    0.8826269060720673    0.8559653959998724    0.8826268692229444    0.9358946205173224    
  0.930398210044866    0.7777258067733386    0.5665616346857575    0.4765959431344235    0.3825151283113892    
  0.47659593442653475    0.7127597122610764    0.8988603647273802    0.913613904904144    0.8559653116527101    
  0.8268915115935412    0.8559653338223089    0.9136139345278189    0.8988603072329914    0.7127597090027188    
  0.4765959338993493    0.3825151283113892    0.718480785583797    0.7765279121055803    0.8988603533918659    
  0.9628107511753766    0.8988603610127639    0.7765278959151642    0.7184807677309596    0.7765279117690728    
  0.8988603703367111    0.9628107349262316    0.898860372829095    0.776527869348029    0.718480785583797    
  0.776527891248741    0.8271043249347145    0.930398241864244    0.9827638214829649    0.930398185711191    
  0.8271043478556538    0.7765278969149952    0.8271042954713709    0.9303982581013713    0.9827637642976246    
  0.9303982597247281    0.8271043428261864    0.776527891248741    0.8988603910150798    0.9303981639810761    
  0.9893088741462075    1.0163817807182787    0.9893088485374069    0.9303981825946789    0.8988604002147892    
  0.9303981870081581    0.9893088436203955    1.0163818510544953    0.9893088394723697    0.9303981882675587    
  0.8988603910150798    0.9628107596145468    0.9827638402682475    1.016381844903301    1.0299069177820261    
  1.01638185311629    0.9827638661379494    0.9628108143557041    0.9827638045063242    1.0163818524597195    
  1.0299069061522252    1.0163818793635502    0.9827638133264194    0.9628107596145468    0.8988604182176668    
  0.9303982074985652    0.9893088470172643    1.0163818578584671    0.9893087812691583    0.930398235075075    
  0.8988603866861046    0.9303982184140054    0.9893088735422637    1.0163817787467302    0.9893088913723834    
  0.930398157460279    0.8988604182176668    0.7765279005297072    0.8271043588716654    0.9303982313256839    
  0.9827638405605109    0.930398251244298    0.8271043259858221    0.7765278955507472    0.8271043335596612    
  0.9303981822396451    0.9827638557513979    0.9303981938536471    0.8271042965697554    0.7765279005297072    
  0.7184807792301993    0.7765279082259243    0.8988603719186313    0.9628107649126774    0.8988603682940796    
  0.7765279120636317    0.7184807970190328    0.7765278945031324    0.8988603936483495    0.9628107561049085    
  0.8988603522098628    0.7765278624243572    0.7184807792301993    0.7765278979329898    0.8271042869995406    
  0.9303982147613672    0.9827638207905206    0.9303982421702637    0.82710429903564    0.7765279174409107    
  0.82710429187131    0.930398245379162    0.9827637134093763    0.9303982735353192    0.8271043434524169    
  0.7765278979329898    0.8988604031608312    0.9303981621806265    0.9893088461694133    1.0163818228162487    
  0.9893088331226016    0.9303981771338874    0.898860387979837    0.9303982389554074    0.9893088349676339    
  1.0163818601000336    0.9893088359339092    0.9303981678942516    0.8988604031608312    0.9628107387521228    
  0.9827638585010469    1.0163818429600036    1.0299069523712356    1.016381895961651    0.982763824861114    
  0.9628108086828926    0.9827638049655681    1.0163818934482767    1.0299069517813482    1.016381875403471    
  0.9827638350595036    0.9628107387521228    0.8988603855413362    0.9303981958959221    0.9893088381913979    
  1.0163818574704844    0.9893087923680483    0.9303981997879665    0.8988604035443818    0.9303982174726175    
  0.9893088192917454    1.0163817810215006    0.9893088512006117    0.9303982015213464    0.8988603855413362    
  0.7765279043718128    0.8271043460968928    0.9303982476200972    0.9827638366038692    0.9303982325201159    
  0.8271043179944612    0.7765278951126946    0.8271043001484704    0.9303982094115321    0.9827638073667797    
  0.9303982242967433    0.8271043008353152    0.7765279043718128    0.718480785583797    0.7765279121055803    
  0.8988603533918659    0.9628107511753766    0.8988603610127639    0.7765278959151642    0.7184807677309596    
  0.7765279117690728    0.8988603703367111    0.9628107349262316    0.898860372829095    0.776527869348029    
  0.718480785583797    0.8268915026332101    0.8559653505025916    0.9136139283953915    0.8988603233015098    
  0.7127597138292092    0.47659593658301863    0.38251516265907753    0.4765959209829515    0.7127597523801656    
  0.8988603545371651    0.9136138902129868    0.8559653234249717    0.8268915026332101    0.8559653691505569    
  0.8826269179132362    0.9358945598542064    0.9303982553446882    0.7777257642713832    0.5665616676593082    
  0.47659590921070766    0.5665616630605345    0.7777258111718237    0.9303981393573759    0.9358946713223252    
  0.882626918991563    0.8559653691505569    0.9136139110289258    0.9358945736981718    0.9795563450600299    
  0.9893087573644597    0.9107262744239003    0.7777257908656888    0.7127597451748457    0.7777258281098619    
  0.9107262301652197    0.9893088146375677    0.9795563276000734    0.9358946187113377    0.9136139110289258    
  0.8988604027745176    0.9303981984452617    0.9893088032914115    1.0163818330639902    0.9893088463664463    
  0.9303982080220418    0.8988604323352374    0.9303981561948573    0.9893088889637033    1.0163817988988426    
  0.9893088350039488    0.9303981855945177    0.8988604027745176    0.7127597108362097    0.7777258119611035    
  0.9107262560391379    0.9893088464937558    0.9795562679645882    0.9358946302965704    0.9136139045370089    
  0.9358946291053281    0.9795563674699201    0.9893087434917242    0.9107262492880639    0.777725761593555    
  0.7127597108362097    0.47659596899330336    0.5665616514933187    0.7777258013977758    0.9303982042491149    
  0.935894676555796    0.8826269007637213    0.855965343372854    0.8826269172473179    0.9358945921994746    
  0.9303981948873206    0.7777258331640075    0.5665616416585233    0.47659596899330336    0.3825151499192435    
  0.4765959394976228    0.7127597060683346    0.898860382520478    0.9136138952330788    0.8559653109462366    
  0.8268915113769277    0.8559653401423424    0.9136139182250713    0.8988603663672732    0.7127597270320276    
  0.4765959536106889    0.3825151499192435    0.4765959421793395    0.5665616162234037    0.7777257795093846    
  0.9303981652168358    0.9358946328029705    0.882626908261143    0.8559653621153231    0.8826269089681206    
  0.9358946334453803    0.9303981350537005    0.7777258176542181    0.5665616725827094    0.4765959421793395    
  0.7127597202929192    0.7777257440911485    0.9107262700515645    0.9893087907914764    0.9795563360692287    
  0.9358946246369503    0.9136139404948294    0.9358946409723167    0.9795563130858068    0.9893087870043404    
  0.9107262706918787    0.7777258027189948    0.7127597202929192    0.8988604070063524    0.9303982106276795    
  0.9893088167452749    1.0163818310361972    0.9893088253824666    0.9303981784772464    0.8988603834749257    
  0.9303982159391787    0.9893088404636635    1.0163818971055756    0.9893088325801077    0.9303981690800818    
  0.8988604070063524    0.9136139229940177    0.9358946430246903    0.9795563116913621    0.9893088402770766    
  0.9107262077449995    0.7777257684485719    0.7127597374917685    0.7777257913109548    0.9107262900764389    
  0.989308741372268    0.9795563070576047    0.9358945814002173    0.9136139229940177    0.8559653521318782    
  0.8826268925478701    0.9358946390736201    0.9303982455457231    0.7777257756402592    0.5665616750485004    
  0.4765959540895091    0.5665616561686317    0.777725766258693    0.9303981904595516    0.9358946128615317    
  0.8826269077472696    0.8559653521318782    0.8268915026332101    0.8559653505025916    0.9136139283953915    
  0.8988603233015098    0.7127597138292092    0.47659593658301863    0.38251516265907753    0.4765959209829515    
  0.7127597523801656    0.8988603545371651    0.9136138902129868    0.8559653234249717    0.8268915026332101    
  0.7817144123234485    0.8098961920358768    0.8559653589004264    0.7765278519814128    0.47659594100097463    
  0.20831757658741812    0.12979314691207397    0.20831758960508295    0.476595959602412    0.7765278369282905    
  0.8559653738405713    0.8098961807976282    0.7817144123234485    0.8098962257394975    0.8361504429335637    
  0.8826269252871145    0.8271043223936748    0.5665616469880519    0.29822973253595153    0.2083175790740746    
  0.2982297271124291    0.5665616865211683    0.8271042649618355    0.882626969681821    0.8361504241728444    
  0.8098962257394975    0.8559653553849506    0.8826268929345151    0.9358946370957909    0.9303981385759887    
  0.7777258534896994    0.5665616713575128    0.4765959804410623    0.5665616627413206    0.7777258028571373    
  0.9303982273214145    0.9358946422913653    0.8826269087795549    0.8559653553849506    0.7765278908955601    
  0.8271043065477236    0.9303981977492226    0.9827638182727682    0.9303981819453967    0.827104317660208    
  0.7765279117124365    0.8271042622505986    0.9303982245093572    0.9827638215359237    0.9303982458981198    
  0.8271043143764676    0.7765278908955601    0.47659595253125053    0.5665616795672687    0.7777258145854257    
  0.9303982163470278    0.9358946239943645    0.8826269374209309    0.855965350481587    0.8826269217398622    
  0.935894661627541    0.9303981256423159    0.7777258456000724    0.5665616286695907    0.47659595253125053    
  0.20831758972394843    0.2982297186203074    0.5665616735710387    0.8271043035103194    0.8826269242079509    
  0.8361504648864598    0.8098962051812801    0.8361504260511241    0.8826268621075649    0.8271043117409933    
  0.5665616625627163    0.2982297276237057    0.20831758972394843    0.12979313892715008    0.20831759085960103    
  0.47659596510130264    0.7765278796914421    0.8559653808953451    0.809896171555663    0.7817144522836562    
  0.80989617175837    0.8559653725743457    0.7765278982804553    0.47659593462636246    0.2083175731513209    
  0.12979313892715008    0.2083175838339884    0.2982297248026888    0.5665616558035371    0.8271043101845843    
  0.8826269035183119    0.8361505013813488    0.8098961657888633    0.8361504573751143    0.8826269106976253    
  0.8271042878908538    0.5665617168794461    0.29822973014634535    0.2083175838339884    0.47659596093197915    
  0.5665616535006675    0.7777258328458325    0.9303981658486533    0.9358946152230079    0.8826268968486628    
  0.8559653423089354    0.8826269373487464    0.9358946356156255    0.9303981772255813    0.7777258197081462    
  0.5665616508473654    0.47659596093197915    0.7765279353558573    0.8271043100956992    0.9303982027305504    
  0.9827638214351149    0.9303982273318245    0.8271043102478487    0.7765279323585298    0.8271043082059112    
  0.9303982233432627    0.9827638559222779    0.9303982229835559    0.8271043024627268    0.7765279353558573    
  0.8559653371610456    0.8826269532460576    0.9358945955658179    0.9303981997769567    0.7777257790752008    
  0.5665616628951087    0.4765959610651379    0.5665616563095291    0.7777258652133819    0.9303981268337397    
  0.9358945975331687    0.882626876296401    0.8559653371610456    0.8098961927504261    0.8361504602415598    
  0.8826269442185497    0.8271043365558916    0.5665617072066704    0.2982297238627829    0.20831759433144534    
  0.29822970589116415    0.5665616491399768    0.8271043347888813    0.8826268721886336    0.8361504484147121    
  0.8098961927504261    0.7817144123234485    0.8098961920358768    0.8559653589004264    0.7765278519814128    
  0.47659594100097463    0.20831757658741812    0.12979314691207397    0.20831758960508295    0.476595959602412    
  0.7765278369282905    0.8559653738405713    0.8098961807976282    0.7817144123234485    0.7509981476075884    
  0.7817143955516395    0.8268914534558315    0.7184807531662887    0.3825151108399123    0.12979314167619146    
  0.06821963012137841    0.12979314501815267    0.38251512990387054    0.7184807380382539    0.8268914875162503    
  0.7817143489785607    0.7509981476075884    0.7817144319475567    0.8098962127087113    0.8559653567893012    
  0.7765278918818153    0.4765959530124815    0.20831758306518963    0.129793129502179    0.20831757678997373    
  0.47659596406059923    0.7765278342975351    0.8559653800466261    0.809896213355897    0.7817144319475567    
  0.8268914473745446    0.8559653148608681    0.913613973008062    0.8988603276146788    0.7127597537155832    
  0.4765959518328834    0.3825151136081651    0.4765959413089294    0.7127597183938368    0.8988603699948776    
  0.9136139637661793    0.8559653229970665    0.8268914473745446    0.7184807764362073    0.7765278522204193    
  0.89886039186694    0.9628107349302115    0.8988603943754796    0.7765279075939411    0.7184807919690661    
  0.7765278631181756    0.8988604207643963    0.962810751652763    0.8988604046409034    0.776527843199278    
  0.7184807764362073    0.3825151288896539    0.47659594875980354    0.7127597388525149    0.898860389069052    
  0.9136138915489843    0.8559653597642802    0.8268914651375164    0.8559653535382389    0.913613999885157    
  0.8988603166377059    0.712759740884714    0.4765959312636378    0.3825151288896539    0.12979313751730237    
  0.20831758110696666    0.47659597082753613    0.7765278690766126    0.8559653706167463    0.8098961953268704    
  0.7817143865431626    0.8098961972728169    0.8559653269609336    0.7765279341908146    0.4765959652749575    
  0.208317572156024    0.12979313751730237    0.06821962870917944    0.1297931524215155    0.38251511426687806    
  0.7184807713445885    0.8268914651850957    0.7817143809927619    0.7509981650384129    0.7817143762485598    
  0.8268914602707194    0.718480774544425    0.38251511083553896    0.12979312883452748    0.06821962870917944    
  0.12979313944026175    0.20831756772948232    0.4765959312151125    0.7765279065058965    0.8559653619704101    
  0.8098961714657558    0.7817143874879914    0.80989618837781    0.8559653649864698    0.7765277687073445    
  0.47659599409018055    0.20831759175993234    0.12979313944026175    0.38251512951612093    0.47659593376024906    
  0.7127597354203784    0.8988603717978726    0.9136139652978986    0.8559653342588612    0.8268914884209054    
  0.8559653693043207    0.9136139359989642    0.8988603805032954    0.7127597355320641    0.4765959181613606    
  0.38251512951612093    0.7184807332418953    0.7765278884283868    0.8988603944761101    0.9628107758786432    
  0.8988604347560145    0.7765278691191925    0.7184807973984029    0.7765278671066578    0.8988604152844312    
  0.9628107857014775    0.8988603921116419    0.7765278990419568    0.7184807332418953    0.8268914677734311    
  0.8559653748871425    0.9136139266926648    0.8988603691523628    0.7127596814250394    0.4765959556001255    
  0.38251510952153184    0.47659595432874574    0.7127597582774118    0.8988603375047921    0.9136139568355431    
  0.8559653503820194    0.8268914677734311    0.7817144261590326    0.8098961893338789    0.8559653878253637    
  0.7765278777318172    0.47659597664034864    0.2083175773890395    0.12979314720249982    0.20831757777016127    
  0.47659594255103077    0.7765278662995143    0.8559653780107687    0.8098962007544792    0.7817144261590326    
  0.7509981476075884    0.7817143955516395    0.8268914534558315    0.7184807531662887    0.3825151108399123    
  0.12979314167619146    0.06821963012137841    0.12979314501815267    0.38251512990387054    0.7184807380382539    
  0.8268914875162503    0.7817143489785607    0.7509981476075884    0.7817144545314433    0.8098961832724603    
  0.8559653582711699    0.776527848449248    0.476595948638008    0.2083175661396274    0.12979314978184173    
  0.20831756786040365    0.4765959695679502    0.7765278505594639    0.8559653588162248    0.809896163243953    
  0.7817144545314433    0.8098962112408835    0.8361504484192752    0.8826269309965237    0.8271043735689741    
  0.5665616375470242    0.2982297351072865    0.20831755356634538    0.2982297247195474    0.5665616752327719    
  0.8271042778745772    0.8826269437289851    0.8361504422806302    0.8098962112408835    0.8559653833180676    
  0.8826268569507965    0.9358946539336198    0.9303981222461198    0.777725859893388    0.5665616467021302    
  0.4765959694452556    0.5665616720157842    0.7777258340517014    0.9303982147688434    0.935894617380312    
  0.8826269509555581    0.8559653833180676    0.77652789401906    0.8271043469681058    0.9303982200789654    
  0.9827637984724454    0.9303982360169804    0.8271043144760276    0.7765279482061586    0.8271042720039137    
  0.93039823149585    0.9827638296371027    0.9303982147891732    0.8271043116179594    0.77652789401906    
  0.47659594612175804    0.5665616637961363    0.7777257948240474    0.9303982210355628    0.9358945581335462    
  0.8826269184059411    0.8559653258664209    0.8826269662936328    0.9358946755988458    0.930398120138769    
  0.7777258254869656    0.5665616262209536    0.47659594612175804    0.20831756844178217    0.2982297507760529    
  0.5665616841206914    0.827104299675445    0.8826269593510292    0.8361504558487701    0.8098962131477456    
  0.8361504522399228    0.8826268785293807    0.8271043231034496    0.566561652603092    0.2982297307085672    
  0.20831756844178217    0.12979314572690623    0.20831757768599193    0.4765959323834875    0.7765278652799572    
  0.8559653415725098    0.8098961387855838    0.7817144202654231    0.8098961793420271    0.8559653677561817    
  0.7765278706902385    0.4765959537876413    0.20831757940822151    0.12979314572690623    0.20831757642749152    
  0.2982297163855061    0.566561661503516    0.8271042858976843    0.8826269272722902    0.8361504568611396    
  0.809896196871194    0.836150428031245    0.8826269230256858    0.8271042844466067    0.5665617093065503    
  0.2982297496274588    0.20831757642749152    0.47659595163168295    0.5665616480277316    0.777725859399736    
  0.9303981671183108    0.9358946401606513    0.8826269219503216    0.8559653480865964    0.8826269519193802    
  0.9358946491224944    0.9303981974545145    0.7777258302232821    0.566561644286332    0.47659595163168295    
  0.7765278959200037    0.8271043154651905    0.9303982025000036    0.9827638203623995    0.9303982406759475    