#     DFTpy    
  CRYSTAL 
    
  PRIMVEC    
  1.3735258891948183    -2.3790166255966456    0.0    
  1.3735258891948183    2.3790166255966456    0.0    
  0.0    0.0    2.585419774344827    
  PRIMCOORD    
  1    1    
  Si    0.0    0.0    0.0    
  BEGIN_BLOCK_DATAGRID_3D    
  3d_datagrid_density    
  BEGIN_DATAGRID_3D#0    
  13    13    11    
  0.0    0.0    0.0    
  1.3735258891948183    -2.3790166255966456    0.0    
  1.3735258891948183    2.3790166255966456    0.0    
  0.0    0.0    2.585419774344827    
  0.0551769149450741    0.09678680889381208    0.24255411927078876    0.379579460403222    0.36290044097305546    
  0.2954380973286538    0.2674594797034688    0.29543807247366033    0.3629004495996241    0.379579429136574    
  0.24255411643510194    0.09678680693202542    0.0551769149450741    0.09678680749195208    0.0967832190322571    
  0.19494387959647363    0.34666137202188    0.382944310787463    0.3184482319533271    0.26741855288761457    
  0.26741217022844793    0.3184573964597754    0.38294757460047685    0.3466042748921814    0.19498472811423065    
  0.09678680749195208    0.24255407955132743    0.19494389318325922    0.24260183818988898    0.3466235378130222    
  0.38592873155938645    0.3301558356136221    0.26691100976428345    0.24341647785156975    0.2669120710261024    
  0.33013702247688426    0.38599756675652597    0.3466043423112113    0.24255407955132743    0.379579429418199    
  0.3466613679699025    0.3466235273263969    0.37956288286797685    0.3829168098361237    0.3302073607042497    
  0.26641411865765985    0.23006388780822254    0.2300467562140752    0.2664446137403419    0.33013705239562346    
  0.3829475363453719    0.379579429418199    0.3629004345597468    0.3829443544829119    0.3859288058996443    
  0.38291681649713866    0.362946551116761    0.3184643289803152    0.26686790433707624    0.23005661246144457    
  0.21738717274358724    0.23004675491249976    0.2669120464469728    0.3184574598158028    0.3629004345597468    
  0.29543805877008494    0.318448254850874    0.3301557856174416    0.33020736092395847    0.31846429281177846    
  0.29538699393896245    0.2674129129486867    0.24345652736912235    0.23005659523881705    0.2300638672995665    
  0.24341646213130105    0.2674121703224892    0.29543805877008494    0.2674594512888643    0.26741854254402964    
  0.2669109818052387    0.26641408799041544    0.2668678861232857    0.26741290054781136    0.2675078617648365    
  0.26741290889693914    0.2668678869191204    0.2664140859635416    0.26691098905471666    0.2674185203722971    
  0.2674594512888643    0.29543804198879814    0.2674122060241432    0.2434164532245354    0.23006389454875203    
  0.23005658662899636    0.24345652036202597    0.2674129117671163    0.29538693720348475    0.3184643212866032    
  0.330207384766154    0.3301558305439901    0.3184482093865644    0.29543804198879814    0.3629004481150262    
  0.3184574456762566    0.2669120664757687    0.23004671629832785    0.21738717621115408    0.23005661698276475    
  0.2668678610449772    0.31846431817897086    0.36294654084433714    0.382916779879457    0.3859287815114585    
  0.38294437026219946    0.3629004481150262    0.37957942610494716    0.3829475372322138    0.33013704040527914    
  0.26644460868792447    0.23004671235693974    0.23006391286623132    0.2664141120594607    0.3302074048380194    
  0.3829168335397375    0.37956289169366964    0.34662351535783353    0.3466613055418444    0.37957942610494716    
  0.242554066648953    0.3466042679464898    0.38599758377707105    0.3301370343753268    0.26691208909636477    
  0.24341646905449948    0.2669110195214303    0.33015581808557193    0.3859288286531423    0.3466235270326635    
  0.24260183519254733    0.19494388846496044    0.242554066648953    0.09678678306996227    0.19498479477396047    
  0.34660422735921387    0.38294754020858435    0.31845736976252953    0.2674121745638855    0.26741853381231895    
  0.31844822216482305    0.38294434507058694    0.3466613037101777    0.19494388578071856    0.09678320358265897    
  0.09678678306996227    0.0551769149450741    0.09678680889381208    0.24255411927078876    0.379579460403222    
  0.36290044097305546    0.2954380973286538    0.2674594797034688    0.29543807247366033    0.3629004495996241    
  0.379579429136574    0.24255411643510194    0.09678680693202542    0.0551769149450741    0.11190494668849267    
  0.16112788458598537    0.2955875768096895    0.3831100595098369    0.34156863505277013    0.27406669538045086    
  0.2478599635643193    0.2740666579257871    0.34156864172449736    0.38311003175828195    0.2955875399500308    
  0.16112785866876017    0.11190494668849267    0.16112784259381702    0.1610941908242654    0.25610959121119425    
  0.36783848996215923    0.36668472999833984    0.29618595333121966    0.24779976715794122    0.24778896815079002    
  0.29619881702071377    0.3666789696158333    0.36780636504312725    0.25612767410753595    0.16112784259381702    
  0.29558754665226544    0.25610960147224954    0.2956551102894773    0.3678057197724581    0.3727924785183533    
  0.3079594006697804    0.24738609609322296    0.22560799172622678    0.24738634034122978    0.30794912054817664    
  0.372834879127239    0.3678064151806194    0.29558754665226544    0.3831100617400971    0.36783851053312105    
  0.36780576581540947    0.3830774033707089    0.36666377496315505    0.30799690198367446    0.2470275823683672    
  0.21336917862838595    0.21335714044596615    0.2470479422051746    0.30794912790661283    0.3666789317598642    
  0.3831100617400971    0.34156861028939267    0.3666847967967144    0.3727925364393088    0.3666638285702683    
  0.3416213998252956    0.29619774197958165    0.2473565477778981    0.21336326024622354    0.20173453127957586    
  0.2133571137765075    0.24738635908500126    0.2961988806944203    0.34156861028939267    0.2740666820948364    
  0.29618597513986783    0.3079594039012572    0.30799688577445516    0.2961977090758625    0.27401531681925767    
  0.2477922992000756    0.22563679449029495    0.21336325384241175    0.21336914784668737    0.2256080082281963    
  0.2477889468942431    0.2740666820948364    0.24785992855641548    0.24779977914752171    0.24738606955698317    
  0.24702754440623942    0.24735652483436993    0.2477922622748198    0.24791032888178263    0.24779227748100435    
  0.24735650723220753    0.24702755802251336    0.24738608033348414    0.24779973786914153    0.24785992855641548    
  0.27406667616469255    0.2477889986597826    0.225608007295106    0.21336916866509215    0.21336326178195628    
  0.2256368112388094    0.24779227550437932    0.274015302391978    0.29619777375732026    0.3079969141600198    
  0.3079594244645891    0.29618591821985635    0.27406667616469255    0.3415686358962627    0.2961988891875567    
  0.24738636952388054    0.21335710711482136    0.20173454986923595    0.21336327490995707    0.24735653373425778    
  0.29619772645741355    0.3416214323676053    0.3666638023747214    0.3727925316189556    0.36668485112780386    
  0.3415686358962627    0.3831100355169933    0.36667896459210514    0.3079491473190472    0.2470479341370089    
  0.2133570825992434    0.2133691807118261    0.24702756280332042    0.30799692478138907    0.36666382503441697    
  0.38307738124954693    0.3678057009308678    0.36783844703702984    0.3831100355169933    0.2955875473661307    
  0.36780639622309114    0.37283492266137697    0.3079491157967046    0.24738635256738958    0.2256080132297669    
  0.24738609426737526    0.3079593852493733    0.37279252970969057    0.36780571453594985    0.295655097027387    
  0.2561095876523229    0.2955875473661307    0.16112784548784972    0.25612770926720735    0.36780634531810846    
  0.3666789513768714    0.2961988127471163    0.24778894973611465    0.24779974461936197    0.2961859157461083    
  0.3666847917654778    0.3678384770248793    0.2561095815120123    0.16109417129451942    0.16112784548784972    
  0.11190494668849267    0.16112788458598537    0.2955875768096895    0.3831100595098369    0.34156863505277013    
  0.27406669538045086    0.2478599635643193    0.2740666579257871    0.34156864172449736    0.38311003175828195    
  0.2955875399500308    0.16112785866876017    0.11190494668849267    0.30762654271869794    0.3386786727126721    
  0.3838999758607711    0.36074803237195346    0.28452382186693215    0.22246034396083797    0.20091276868074212    
  0.2224603466086171    0.2845237748413238    0.36074799612214653    0.3838999554612796    0.3386786415459035    
  0.30762654271869794    0.33867862772175444    0.3386457612650556    0.3758925221283773    0.3780207406451177    
  0.31502664507432265    0.24180979528610214    0.20102669668792625    0.20102425147931396    0.24181265256130557    
  0.31502373840120385    0.378015683596706    0.3758912737683167    0.33867862772175444    0.38389997857456043    
  0.3758925829438769    0.3839364937613835    0.37800973006406713    0.32542676340735477    0.25307989630733607    
  0.20114765990173225    0.18347724103884938    0.20114726624745216    0.2530802585301565    0.32543337108112635    
  0.3780157182610131    0.38389997857456043    0.36074801785582444    0.37802074730540425    0.3780097602717443    
  0.36072923942182933    0.31502164716311876    0.2530909868584659    0.20115334136497232    0.17384793304555585    
  0.17384546191766737    0.2011565543412543    0.2530802665722868    0.3150236981220892    0.36074801785582444    
  0.2845237852526406    0.31502667956989644    0.32542684714520514    0.3150216365921085    0.28454603384780064    
  0.2418105283360075    0.20114034573613712    0.17384588348715344    0.16453101779592272    0.17384545858171407    
  0.2011472493359057    0.2418126305657345    0.2845237852526406    0.22246033303620208    0.24180979200082783    
  0.25307990756744914    0.2530910016253506    0.24181050386281644    0.22244231574710485    0.20102457171294916    
  0.18348556562137386    0.17384584528913646    0.1738479009463895    0.18347724437719748    0.20102420670716456    
  0.22246033303620208    0.20091274377770083    0.2010266921300601    0.20114765857757963    0.20115332275455086    
  0.20114036442985908    0.20102456855358994    0.20093137107000486    0.20102454946447876    0.2011403690059247    
  0.20115334328862602    0.20114764926508943    0.2010266888648505    0.20091274377770083    0.22246030697463334    
  0.20102423010893394    0.183477254313879    0.17384794460542172    0.17384586086061268    0.18348556730117987    
  0.20102458198555628    0.22244231020105001    0.24181052881899856    0.25309098539235464    0.25307992110772715    
  0.24180979865414695    0.22246030697463334    0.2845238058648431    0.24181268413330398    0.20114727451620645    
  0.17384543408615516    0.1645309907699774    0.17384584501297579    0.201140358379021    0.2418105347979236    
  0.2845460588166857    0.3150216627847617    0.3254268297412352    0.31502671046132574    0.2845238058648431    
  0.3607480471570754    0.3150237343442635    0.25308027525014126    0.20115652179295285    0.17384542742186854    
  0.17384792798202683    0.2011533065009478    0.25309106148370086    0.31502169230361116    0.3607292486927137    
  0.37800975740865544    0.37802069851479025    0.3607480471570754    0.3838999367750423    0.3780156922141738    
  0.3254333717589161    0.25308029297891776    0.20114725831198152    0.1834772469666553    0.20114763489447213    
  0.253079896347306    0.3254267776203426    0.37800973650561426    0.3839364552352304    0.3758925495722535    
  0.3838999367750423    0.33867863995869485    0.3758913397208233    0.3780156799062793    0.31502372929253125    
  0.2418126017979852    0.20102420619680658    0.20102670165561215    0.2418097810729691    0.3150266433180909    
  0.3780207497759439    0.37589252778595983    0.33864573594356473    0.33867863995869485    0.30762654271869794    
  0.3386786727126721    0.3838999758607711    0.36074803237195346    0.28452382186693215    0.22246034396083797    
  0.20091276868074212    0.2224603466086171    0.2845237748413238    0.36074799612214653    0.3838999554612796    
  0.3386786415459035    0.30762654271869794    0.4413539351393213    0.42644950473793497    0.37508438956802925    
  0.29443993169435106    0.2172405719342631    0.168204777828722    0.15221708764700453    0.16820479155959703    
  0.2172405503485174    0.29443990024771255    0.37508439612385014    0.4264494636906744    0.4413539351393213    
  0.42644946873259904    0.4264509857399468    0.39256584425902297    0.3241755072799512    0.2445059178848361    
  0.18317501149127013    0.15244443501383628    0.1524450444221011    0.18317462133785264    0.24450558482006454    
  0.32417623112545796    0.3925666093108669    0.42644946873259904    0.37508438446993553    0.3925658945611938    
  0.3750834830009232    0.32417900867305155    0.2548495314443872    0.19239136097070428    0.15284532731351347    
  0.13979828738219885    0.15284543433866027    0.19239140232283033    0.25485015114743825    0.32417627761175605    
  0.37508438446993553    0.29443991113872625    0.3241754930933359    0.32417902487689804    0.29443609711011337    
  0.24450632497498534    0.19239031251873015    0.15301795016979153    0.13280774630005573    0.1328080694220341    
  0.1530170400040362    0.19239141876722737    0.24450553802602273    0.29443991113872625    0.2172405288041086    
  0.24450596704263147    0.25484958009822345    0.24450631484463284    0.21724189556070406    0.1831747523284175    
  0.15284602248868118    0.13280739998024835    0.1259198147100868    0.13280806400082693    0.15284541912338157    
  0.18317461335872712    0.2172405288041086    0.16820476492222894    0.18317500743811177    0.19239137317073485    
  0.19239031684617985    0.1831747260976799    0.16820405904236282    0.15244388470717407    0.13979888358226247    
  0.13280737101087525    0.1328077245447448    0.1397982707740432    0.15244502554421344    0.16820476492222894    
  0.15221706756323944    0.15244445141806093    0.15284534208630046    0.15301793434553349    0.15284602914822412    
  0.1524438869718014    0.1522192087520498    0.15244388246062368    0.1528460384235668    0.15301794500126323    
  0.1528453187084698    0.15244442976884925    0.15221706756323944    0.16820474817570913    0.15244503338056872    
  0.1397982833463501    0.1328077600578319    0.13280737527469869    0.13979887441048022    0.152443894221754    
  0.1682040807925299    0.1831747495593679    0.19239031189730008    0.19239138280126725    0.18317499965703865    
  0.16820474817570913    0.21724053764602252    0.18317463592405195    0.15284544581039797    0.1328080397287057    
  0.12591979911483486    0.1328073830865656    0.15284602962742416    0.18317476147475195    0.21724193227394858    
  0.24450633637081212    0.25484956947960563    0.2445059568009059    0.21724053764602252    0.2944399245104869    
  0.24450557486172383    0.1923914081379284    0.1530170241146727    0.1328080544268408    0.1328077359448059    
  0.1530179307776355    0.19239035906053606    0.24450635551050504    0.29443610058172776    0.3241790177031928    
  0.32417547210307235    0.2944399245104869    0.37508435800725837    0.3241762469159754    0.2548501282089229    
  0.19239142657872588    0.15284542708891877    0.13979827735866088    0.15284532558702785    0.1923913934724977    
  0.254849576749812    0.3241790095721174    0.37508348155204446    0.3925658669016643    0.37508435800725837    
  0.426449497634928    0.39256665037021216    0.3241762295243026    0.2445055657851449    0.1831745890635322    
  0.15244501918445327    0.1524444512240922    0.18317499626622993    0.24450593489525344    0.3241755091121839    
  0.39256586997805737    0.42645096299835006    0.426449497634928    0.4413539351393213    0.42644950473793497    
  0.37508438956802925    0.29443993169435106    0.2172405719342631    0.168204777828722    0.15221708764700453    
  0.16820479155959703    0.2172405503485174    0.29443990024771255    0.37508439612385014    0.4264494636906744    
  0.4413539351393213    0.40464292599866475    0.3777149550324287    0.3103089529188547    0.23237065325315254    
  0.16926904711856974    0.13154468729822194    0.11941703823606703    0.13154468009113462    0.16926905901416225    
  0.23237061887117663    0.31030890538804773    0.37771494275537026    0.40464292599866475    0.37771493122989946    
  0.37771503955986374    0.3306738070306587    0.2590607098294264    0.19088901440868833    0.14299421134910137    
  0.11962096856107926    0.1196212933750032    0.14299420774562804    0.19088866741072408    0.2590624763356376    
  0.33067193908168985    0.37771493122989946    0.31030888643502913    0.3306738249036156    0.31030725082573385    
  0.25906233995436295    0.19931039577850904    0.15016946981649695    0.12007899090342869    0.11021314075739103    
  0.12007857980398949    0.15016989239073486    0.19930895728699216    0.25906250098821637    0.31030888643502913    
  0.23237063696067156    0.25906071687974896    0.25906235356921226    0.23237040640524903    0.1908895264706015    
  0.15016837429522711    0.12033653827853379    0.10515086206213554    0.10515127835922944    0.12033625583273645    
  0.15016989925011212    0.19088864891355684    0.23237063696067156    0.16926904867232934    0.19088904442710872    
  0.1993104351039403    0.19088952229065692    0.16926848480283946    0.14299373400512694    0.12008004928655802    
  0.10515112644544237    0.10005113377119856    0.10515127327363591    0.12007858141373154    0.14299423940582517    
  0.16926904867232934    0.13154468380232723    0.14299423997442903    0.1501694727383305    0.15016838107650823    
  0.14299369873321308    0.13154568647651735    0.1196212531693059    0.11021189936349023    0.10515111652907853    
  0.10515085169338051    0.11021313798134384    0.11962129110291853    0.13154468380232723    0.11941702833815532    
  0.1196209800328534    0.12007900067435026    0.12033650917184485    0.1200800468443253    0.11962123340139891    
  0.11941608153010205    0.11962125685142642    0.12008003957495049    0.12033651799402831    0.12007900821985508    
  0.11962093711460221    0.11941702833815532    0.13154467897439623    0.119621298212586    0.110213129266855    
  0.10515086288038872    0.10515111781691604    0.11021190839597081    0.1196212376517386    0.13154568657174437    
  0.14299374314735155    0.15016837694424212    0.150169489489044    0.14299420445548242    0.13154467897439623    
  0.16926906060889926    0.1429942488425931    0.12007858134887847    0.10515125755479306    0.10005114683283353    
  0.10515112090110167    0.12008004161680977    0.1429937241460498    0.1692684930763414    0.19088950516002692    
  0.19931042679940728    0.19088907655981227    0.16926906060889926    0.23237064586768605    0.1908886828468847    
  0.15016991869557483    0.12033622624322055    0.10515125467495283    0.1051508445400705    0.12033653940627538    
  0.15016838544259234    0.19088952299048007    0.23237040618826546    0.2590623268378284    0.25906068539918053    
  0.23237064586768605    0.310308887551696    0.2590624730243048    0.19930896348201352    0.15016990421921542    
  0.12007858823087382    0.11021315225295662    0.12007900646117531    0.1501694700550457    0.19931040592085797    
  0.25906232032981746    0.31030724800508047    0.33067379855221213    0.310308887551696    0.37771491900348175    
  0.33067195600583493    0.2590624489252965    0.1908886519562907    0.14299419703087982    0.1196212647524787    
  0.11962095947472987    0.14299420511686098    0.19088904335440451    0.2590606817020472    0.3306738240327456    
  0.3777150212537688    0.37771491900348175    0.40464292599866475    0.3777149550324287    0.3103089529188547    
  0.23237065325315254    0.16926904711856974    0.13154468729822194    0.11941703823606703    0.13154468009113462    
  0.16926905901416225    0.23237061887117663    0.31030890538804773    0.37771494275537026    0.40464292599866475    
  0.3707550506249353    0.3447900154951125    0.2811543238317475    0.20964959638138325    0.15285003427642277    
  0.11902515351753384    0.10812512094578375    0.11902514891171433    0.15285003245643936    0.20964957471823276    
  0.2811543212531997    0.34479003431930305    0.3707550506249353    0.3447900159959058    0.34478866920979745    
  0.30019372905294506    0.23394197894753982    0.17226985574879472    0.12932659571120989    0.10834127845238521    
  0.10834043300008574    0.1293269193956414    0.17226926344928956    0.23394293952778164    0.3001920667494837    
  0.3447900159959058    0.28115427992135905    0.3001937592511666    0.2811539731672613    0.2339427780303979    
  0.17987197091287827    0.1358470364014224    0.10890358061118856    0.10004481707365863    0.10890437634670841    
  0.13584662511155313    0.1798723513507387    0.2339429976834011    0.28115427992135905    0.20964958188818686    
  0.23394196738984    0.23394276577039208    0.20964894104985038    0.17227060292391908    0.13584640336705367    
  0.10925747800825826    0.09573893544718662    0.09573812432457657    0.10925745567821911    0.13584665542653201    
  0.17226923373214975    0.20964958188818686    0.15285002832925412    0.17226988254032538    0.17987201581061726    
  0.17227059422687507    0.15284928737239456    0.12932590574296218    0.10890473588812956    0.09573780667469584    
  0.09128920036922401    0.09573811562036881    0.10890436378384513    0.12932694571598685    0.15285002832925412    
  0.11902513650123515    0.12932661938621445    0.13584701589033413    0.13584640758085822    0.1293258834387894    
  0.11902718182956804    0.10834026226532002    0.10004545473249542    0.09573779487949755    0.09573891679974797    
  0.10004480980955469    0.10834042921364682    0.11902513650123515    0.10812509675578595    0.10834127028827635    
  0.10890356442210183    0.10925746218464354    0.10890472910914165    0.1083402528595732    0.1081244151739569    
  0.10834026435860922    0.10890471810485604    0.10925746134707619    0.1089035727047828    0.10834125471806808    
  0.10812509675578595    0.11902512737405216    0.10834044786831754    0.10004479930847064    0.09573893523041467    
  0.09573778961927279    0.10004544034691583    0.10834026026866483    0.11902715540009849    0.12932589538586786    
  0.1358464153913855    0.13584703690736744    0.12932658943565428    0.11902512737405216    0.15285003360529603    
  0.12932695394092225    0.10890437051596749    0.09573810389414733    0.09128920186174956    0.09573779886246156    
  0.10890470838709582    0.12932590670661578    0.15284928422613475    0.17227056798034177    0.17987200407219894    
  0.17226989010247812    0.15285003360529603    0.20964957443696566    0.17226923718693832    0.1358466324234753    
  0.10925745200404716    0.0957380998983613    0.09573894810394488    0.1092574776047218    0.13584643927530857    
  0.17227060004697473    0.20964895132488157    0.23394276431947958    0.23394192136029907    0.20964957443696566    
  0.2811542735054212    0.23394293793170678    0.17987235683826136    0.13584663462316723    0.10890437741019124    
  0.10004480160502828    0.10890358714852952    0.1358470398121943    0.17987203188674092    0.23394276344919115    
  0.2811539813904872    0.30019374857888576    0.2811542735054212    0.34478999239380603    0.30019215187693754    
  0.23394290477573476    0.17226923600482907    0.12932689797527383    0.10834042537218609    0.10834126920128666    
  0.12932661391344166    0.1722698782425958    0.23394191344287654    0.3001937594201078    0.3447886534525657    
  0.34478999239380603    0.3707550506249353    0.3447900154951125    0.2811543238317475    0.20964959638138325    
  0.15285003427642277    0.11902515351753384    0.10812512094578375    0.11902514891171433    0.15285003245643936    
  0.20964957471823276    0.2811543212531997    0.34479003431930305    0.3707550506249353    0.4046429041433325    
  0.3777149888876548    0.31030893809093263    0.23237063548741604    0.16926906247658918    0.13154467603608921    
  0.1194170529620815    0.13154466922909397    0.16926906254142113    0.23237060624209235    0.31030891553506484    
  0.37771493904057984    0.4046429041433325    0.3777149276641466    0.37771504555853097    0.33067380527770346    
  0.2590607048683869    0.1908890070782097    0.142994220797938    0.11962096696931702    0.11962128757300072    
  0.14299420845903052    0.19088866921988568    0.25906245962264984    0.3306719099217543    0.3777149276641466    
  0.31030890860431826    0.3306738337107102    0.3103072469878246    0.25906234734144135    0.19931038802713352    
  0.15016947157362934    0.12007900046487231    0.11021313892531565    0.12007857211362041    0.1501698877399308    
  0.1993089613139931    0.25906250436775163    0.31030890860431826    0.23237064071545444    0.2590607132707262    
  0.2590623794411709    0.23237042111536224    0.1908895092683687    0.15016837147953632    0.12033654883109056    
  0.10515086415525078    0.10515128883837284    0.12033624507228806    0.15016990163367516    0.19088864676475967    
  0.23237064071545444    0.16926903973375995    0.19088904907420656    0.19931043005603022    0.19088953039364587    
  0.16926846729729308    0.1429937284142182    0.12008006262706272    0.10515112734013429    0.10005113928158006    
  0.1051512634250323    0.12007857566506532    0.1429942416281867    0.16926903973375995    0.13154466577217191    
  0.1429942429546642    0.15016947499685004    0.1501683675065981    0.1429937086720266    0.1315456921725062    
  0.1196212636846681    0.11021189888204964    0.10515112436880396    0.10515084181847834    0.11021314457198693    
  0.1196212724046181    0.13154466577217191    0.11941703237596936    0.11962098214718918    0.12007898344109197    
  0.12033651502377855    0.12008004815436182    0.11962122197353346    0.11941608465002003    0.11962125054808713    
  0.12008002590736444    0.1203365217103068    0.12007899248837679    0.11962094535909618    0.11941703237596936    
  0.1315446674832228    0.1196213029603696    0.11021314292273647    0.1051508591187202    0.10515112344846796    
  0.11021189884171309    0.11962124318109213    0.13154568315451984    0.1429937479286567    0.15016837733742042    
  0.15016948385783135    0.1429942022675736    0.1315446674832228    0.16926904976716778    0.1429942582360127    
  0.1200785791676583    0.1051512623648397    0.10005114826947774    0.1051511226314688    0.12008004688348552    
  0.14299372474643018    0.16926848664559632    0.19088950766274285    0.1993104164921246    0.19088908974339755    
  0.16926904976716778    0.2323706193372205    0.19088867166230356    0.15016991216366932    0.12033623768148    
  0.10515124655042492    0.10515085897604937    0.12033653902320196    0.15016839393164924    0.190889530495859    
  0.23237039745792926    0.25906232506912    0.25906066838794145    0.2323706193372205    0.31030892135778404    
  0.25906248324794223    0.19930898666934352    0.1501698968860595    0.12007857421743827    0.11021314524299429    
  0.12007900986095447    0.15016946448539137    0.1993104201329811    0.2590623311643947    0.31030724202098414    
  0.33067380671773405    0.31030892135778404    0.37771494104098174    0.3306719471480854    0.2590624405205237    
  0.19088865574098907    0.14299420496046253    0.11962126558981247    0.11962095655492189    0.14299421415176314    
  0.19088905669956854    0.259060688910376    0.3306738169100876    0.37771501760647613    0.37771494104098174    
  0.4046429041433325    0.3777149888876548    0.31030893809093263    0.23237063548741604    0.16926906247658918    
  0.13154467603608921    0.1194170529620815    0.13154466922909397    0.16926906254142113    0.23237060624209235    
  0.31030891553506484    0.37771493904057984    0.4046429041433325    0.4413539578659977    0.4264495044786194    
  0.3750843857331148    0.29443991565621536    0.21724056120150545    0.16820478070612283    0.1522170913404392    
  0.1682047893687985    0.21724052562583412    0.29443989067274495    0.37508437556249297    0.42644946374022247    
  0.4413539578659977    0.42644944115623284    0.42645096950720063    0.3925658467388407    0.3241754996548072    
  0.244505921765025    0.1831749984749761    0.15244444128454213    0.15244505816594986    0.18317461562722454    
  0.2445055772253746    0.32417624194455275    0.3925666008298843    0.42644944115623284    0.3750843865072061    
  0.3925659083325541    0.3750835119691648    0.32417900126916016    0.2548495348571002    0.19239136482566455    
  0.15284534249190296    0.1397982778374854    0.1528454388864489    0.19239139070195338    0.2548501412561814    
  0.32417628407609334    0.3750843865072061    0.2944399031182704    0.32417550139568685    0.3241790358228287    
  0.2944360919618037    0.24450633849064382    0.19239030915134175    0.1530179515290379    0.1328077472190008    
  0.13280806898080155    0.15301704922620504    0.19239140112279723    0.24450553012532153    0.2944399031182704    
  0.21724053121944856    0.24450594672114756    0.2548496016977855    0.2445063302355174    0.21724189863318652    
  0.18317475506689157    0.1528460205408554    0.13280741233467824    0.12591981850291292    0.1328080659543406    
  0.1528454227934963    0.18317458836365935    0.21724053121944856    0.16820477825969682    0.18317500355364555    
  0.1923913787519179    0.1923903136982767    0.18317473780097707    0.16820407073626992    0.1524438944245827    
  0.13979888239092245    0.13280738193190936    0.13280771505901798    0.13979828345924653    0.15244501212948044    
  0.16820477825969682    0.15221707002153861    0.1524444419716347    0.15284533938555614    0.15301793484005338    