#     DFTpy    
  CRYSTAL 
    
  PRIMVEC    
  1.3419804012648435    -2.324378237752378    0.0    
  1.3419804012648435    2.324378237752378    0.0    
  0.0    0.0    4.537346989103448    
  PRIMCOORD    
  2    1    
  Si    1.3419804012648435    0.7747927459174593    1.134336747275862    
  Si    1.3419804012648437    -0.7747927459174593    3.4030102418275856    
  BEGIN_BLOCK_DATAGRID_3D    
  3d_datagrid_density    
  BEGIN_DATAGRID_3D#0    
  13    13    21    
  0.0    0.0    0.0    
  1.3419804012648435    -2.324378237752378    0.0    
  1.3419804012648435    2.324378237752378    0.0    
  0.0    0.0    4.537346989103448    
  0.13111787190169605    0.138526252658161    0.1602160212134017    0.19334207299945888    0.23101531255056715    
  0.2617546697410239    0.27364142531782915    0.26175465542635024    0.23101533380030462    0.19334209894862295    
  0.16021601358770107    0.1385262570038407    0.13111787190169605    0.13852625017010434    0.1385253405076905    
  0.15311524552077202    0.18069901992597662    0.21650488931557635    0.25151632360891135    0.2735387772007925    
  0.27353793020184997    0.25151574161317625    0.21650550552774053    0.18070094964039166    0.15311230086769945    
  0.13852625017010434    0.1602159954558378    0.1531152413834074    0.16021448033120497    0.18069922834853314    
  0.2112662498348533    0.24526657946586672    0.27275127278707195    0.2834100541560468    0.2727533255582286    
  0.24526587022594598    0.21126355279050144    0.18070094818897459    0.1602159954558378    0.19334207747632645    
  0.18069902813551914    0.18069924394898315    0.19334404271727917    0.2165053389714158    0.24526452023486534    
  0.2720683861440226    0.2884192551403018    0.28841477650035263    0.2720702983031462    0.24526584416652622    
  0.21650548024261249    0.19334207747632645    0.2310152854155507    0.21650483654557134    0.2112662480343663    
  0.21650533686682735    0.23101413197628615    0.25151471399724457    0.2727561324497759    0.2884140485528905    
  0.29407724139851077    0.2884148042928914    0.2727532808614034    0.2515157553362506    0.2310152854155507    
  0.2617546463572702    0.2515162985656257    0.24526657555986878    0.24526450270626948    0.25151469538140886    
  0.26175857924924656    0.2735356909589392    0.28341140140837934    0.2884140608548278    0.2884192631716512    
  0.2834100258273343    0.27353794149297966    0.2617546463572702    0.2736413953145409    0.2735387820542866    
  0.27275126678592176    0.27206839544488054    0.2727561672838203    0.2735357067752974    0.2736422807035963    
  0.27353568263858447    0.2727561609390444    0.2720684213865099    0.27275129835580547    0.27353875587890103    
  0.2736413953145409    0.2617546725618114    0.2735379454307574    0.2834100606490926    0.2884192808357675    
  0.2884140622539659    0.2834114372737268    0.2735357078540978    0.261758546009364    0.2515146988066531    
  0.2452645339709885    0.24526657339757885    0.25151629644200774    0.2617546725618114    0.2310153325642792    
  0.25151572536348016    0.2727532768774535    0.2884147830583971    0.2940772693868232    0.28841409302244    
  0.2727561177590213    0.25151471196711767    0.23101411581323408    0.2165053424996833    0.21126623895143126    
  0.21650483305638957    0.2310153325642792    0.19334208999558605    0.21650547732348346    0.24526585842486673    
  0.27207027879506546    0.2884147927288023    0.28841926523500316    0.2720683920974945    0.24526451070261696    
  0.2165053482249308    0.19334406160138565    0.18069925088553918    0.18069901482862957    0.19334208999558605    
  0.16021600117988966    0.18070094641420098    0.21126354411517706    0.2452658804931245    0.27275333393760887    
  0.2834100773806516    0.2727512649886299    0.24526655315254714    0.2112662195345757    0.18069926270419476    
  0.16021446953875967    0.1531152413844789    0.16021600117988966    0.13852623623305416    0.15311230685510618    
  0.18070094726207114    0.21650546015838826    0.25151575160736256    0.2735379739833677    0.2735387510866859    
  0.2515162738506758    0.2165048523425795    0.18069903349145366    0.15311522994070084    0.13852532377988516    
  0.13852623623305416    0.13111787190169605    0.138526252658161    0.1602160212134017    0.19334207299945888    
  0.23101531255056715    0.2617546697410239    0.27364142531782915    0.26175465542635024    0.23101533380030462    
  0.19334209894862295    0.16021601358770107    0.1385262570038407    0.13111787190169605    0.14025777485492638    
  0.14808968546359338    0.17104660926602483    0.20607578087736636    0.24565859384376384    0.2776813369357375    
  0.29000551192027313    0.2776805725704342    0.24566087998044314    0.2060766254289842    0.1710447805500546    
  0.14809012705941693    0.14025777485492638    0.14809012779679334    0.1480912579202067    0.160794266296707    
  0.18441518211192434    0.2145568931995979    0.24357540608524908    0.2616147562997186    0.261614891046443    
  0.2435743974695655    0.21455571507308727    0.184415928187914    0.1607949871947221    0.14809012779679334    
  0.171044768391533    0.16629542588459498    0.17104466843592703    0.18441599025040756    0.20377603515717566    
  0.22476388649095505    0.24135131891016734    0.2476666281029985    0.24135278954994674    0.2247633176237599    
  0.2037762054642535    0.18441593548189233    0.171044768391533    0.20607660918942955    0.20128573467449146    
  0.20128452255597393    0.20607751834919236    0.21455622654624137    0.22476261415905424    0.2340589851323047    
  0.23960761657925417    0.2396051602072408    0.23406009045215315    0.22476330468761466    0.2145557008668305    
  0.20607660918942955    0.2456608347356077    0.24694248135706276    0.24729921103724578    0.24694261133584947    
  0.24565998649528925    0.2435740591540194    0.24135426583110195    0.23960526736387963    0.23892652059402245    
  0.23960519616483036    0.24135275010031892    0.24357443299717577    0.2456608347356077    0.2776805843956569    
  0.29087850674111515    0.2975863741225824    0.2975885739403944    0.2908774897476014    0.2776817330124943    
  0.2616148228546793    0.24766563840925962    0.23960527994650382    0.23960765129012337    0.24766658884237142    
  0.2616149213823079    0.2776805843956569    0.29000550753431    0.3178805222218046    0.33599620799766744    
  0.34165482461541236    0.33599433035294357    0.31788214168716006    0.2900038053930884    0.26161483606521935    
  0.24135430368074645    0.2340590055918274    0.24135133525563024    0.2616147666950382    0.29000550753431    
  0.27768133989681826    0.3178816276619879    0.3501285867472538    0.3657598614798024    0.3657617527513327    
  0.3501276892916163    0.3178821383258374    0.27768169258048786    0.24357403330052443    0.22476260172338053    
  0.2247638932547483    0.24357537797659384    0.27768133989681826    0.2456585882779636    0.2908769158107597    
  0.33599571547915946    0.36576104816553723    0.37530672515466895    0.3657617728128545    0.33599428881714816    
  0.29087749961550624    0.2456599562469008    0.21455621701290087    0.20377601212804472    0.21455685274191091    
  0.2456585882779636    0.20607577749630704    0.2469462911330261    0.29758710946150535    0.34165443997913214    
  0.3657610709760788    0.3657598348125873    0.34165485662874756    0.2975885850248289    0.24694261671844986    
  0.2060775525388782    0.18441600835220226    0.184415167074231    0.20607577749630704    0.17104661160972245    
  0.20128432169791982    0.24729689421705478    0.2975871626455496    0.33599571864578287    0.3501285862071514    
  0.3359961660643664    0.2975863466700222    0.24729919452377236    0.20128454531100995    0.17104466460686082    
  0.16079425436077008    0.17104661160972245    0.14808966390419026    0.16629560811515542    0.20128430970302863    
  0.2469462857038558    0.2908769355013999    0.31788168449909404    0.31788048647285927    0.2908785181959622    
  0.24694248196544374    0.20128572982685353    0.16629540813544214    0.14809124880997118    0.14808966390419026    
  0.14025777485492638    0.14808968546359338    0.17104660926602483    0.20607578087736636    0.24565859384376384    
  0.2776813369357375    0.29000551192027313    0.2776805725704342    0.24566087998044314    0.2060766254289842    
  0.1710447805500546    0.14809012705941693    0.14025777485492638    0.16635213203216948    0.175445136632298    
  0.20196652611301916    0.24184084713964532    0.28529744693326164    0.3187544923355782    0.33116647611473526    
  0.3187540295572973    0.28529906846460423    0.24183967652411306    0.20196504763965584    0.17544396053567385    
  0.16635213203216948    0.17544395465839496    0.17544365978847293    0.1874231063547712    0.20951097676009728    
  0.2371252727127929    0.2628379972033839    0.2783495965922568    0.2783517081411185    0.26283941739798655    
  0.23712284517521484    0.2095108164642028    0.1874266077632087    0.17544395465839496    0.20196504019332498    
  0.1992774174368887    0.20196818703101552    0.20951262741391305    0.22031488530108778    0.23167640015448748    
  0.2402414953104701    0.24337791144781518    0.24023884647064161    0.2316753866162855    0.22031870253331887    
  0.2095108008073411    0.20196504019332498    0.2418396352358001    0.24459299817125968    0.24459032813878867    
  0.24183745205385224    0.23712610025456274    0.23167425074330691    0.22697726184434586    0.224296302784176    
  0.22429902555117381    0.22697772549386167    0.23167536612838324    0.23712283625559105    0.2418396352358001    
  0.285298995296889    0.30105125711846    0.3065817131736946    0.30105265350322175    0.2852960181789305    
  0.26284130775695863    0.24023906754786203    0.22429992007100774    0.21870059361083027    0.22429901249291195    
  0.24023881734899113    0.26283944939723547    0.285298995296889    0.318754064243056    0.34967661559833924    
  0.3639489782491202    0.36395228674714214    0.3496812607056947    0.3187501926836039    0.27835310274790415    
  0.24337495599388043    0.22429992239746735    0.2242963124944182    0.2433778760938218    0.2783517470400533    
  0.318754064243056    0.33116647781172764    0.37542114632126433    0.3940301682420403    0.396457625428072    
  0.3940173440389939    0.37542834391241753    0.331163450915591    0.2783530990830303    0.24023910297068088    
  0.22697728497039368    0.2402415316069947    0.2783496012807066    0.33116647781172764    0.3187544945433453    
  0.37542406387533594    0.40076499381729913    0.3981337606251239    0.39815194124210107    0.40075786058761786    
  0.3754283439073272    0.31875014790503353    0.26284127116142597    0.23167426753758255    0.23167642532698904    
  0.26283799164068006    0.3187544945433453    0.28529745339305523    0.3496804873806444    0.39401946127273973    
  0.3981526010435451    0.3913340896902901    0.3981519702228724    0.394017282487283    0.34968127498516277    
  0.2852959744529592    0.23712610579990104    0.2203148719616577    0.237125220126341    0.28529745339305523    
  0.24184085464325386    0.30104670509022785    0.3639564226829491    0.3964464752777166    0.3981526035539213    
  0.3981337273768658    0.3964576381621958    0.3639523137781712    0.30105265661868974    0.24183747734408373    
  0.2095126659194742    0.2095109743427982    0.24184085464325386    0.20196653210035992    0.2445929676079226    
  0.3065813308346898    0.3639564739115903    0.3940195018445739    0.4007649885458053    0.3940301031307269    
  0.3639489773137052    0.30658168185188706    0.2445903527806389    0.2019681627170029    0.18742309351618971    
  0.20196653210035992    0.1754451247711819    0.19927555855274715    0.24459293585623032    0.3010466821355937    
  0.34968050876764195    0.37542409071622984    0.37542111337549927    0.3496765837267758    0.3010512421858655    
  0.2445929827876448    0.19927742511381272    0.17544366078831033    0.1754451247711819    0.16635213203216948    
  0.175445136632298    0.20196652611301916    0.24184084713964532    0.28529744693326164    0.3187544923355782    
  0.33116647611473526    0.3187540295572973    0.28529906846460423    0.24183967652411306    0.20196504763965584    
  0.17544396053567385    0.16635213203216948    0.20300135604330832    0.21391307146045413    0.24535255154328078    
  0.2907364122819889    0.3355530156348846    0.3648350008626187    0.37411999664021206    0.36482694728129167    
  0.33557758352281397    0.2907332860484473    0.24534111625568258    0.21391411328086204    0.20300135604330832    
  0.21391411263361593    0.21391733357205922    0.22627161971019374    0.248458475736554    0.2749434253844349    
  0.29781672776030677    0.3105440837536893    0.31055899131413645    0.297823197613499    0.27492018477300845    
  0.24845821784491331    0.22628726368470953    0.21391411263361593    0.24534110665002826    0.24406451067713958    
  0.24535409187150953    0.2484653752993038    0.25225887989316503    0.25578960447796656    0.25799388521752986    
  0.2586266974587208    0.2579812468489194    0.2557832467773967    0.2522867410229981    0.24845821793987014    
  0.24534110665002826    0.29073323712108384    0.29910986291605557    0.29909464185649015    0.29072669687342295    
  0.27494255052608385    0.2557839212972343    0.2393401882915149    0.23015479916249712    0.2301524507417329    
  0.2393546681762759    0.255783222709263    0.27492016334362146    0.29073323712108384    0.3355775277685776    
  0.35853804942332507    0.3653725446406727    0.358544957408949    0.3355542111052139    0.2978264532848719    
  0.25799138270841904    0.2301517476482342    0.2205576249408182    0.23015244316117334    0.25798123446039417    
  0.297823218696069    0.3355775277685776    0.36482699999822604    0.39264784298423205    0.39462794947894264    
  0.39464362772249073    0.39267030340720566    0.36482510229749127    0.3105421009146501    0.2586335310934674    
  0.23015175221291445    0.23015482246885646    0.25862667306371256    0.31055899515748286    0.36482699999822604    
  0.37412000762047265    0.3985689599587527    0.3716268262213728    0.3506068408387758    0.3715836024200244    
  0.3985749570252647    0.37413718344547264    0.31054208535472944    0.25799141916052576    0.23934019132973222    
  0.25799390592003263    0.31054409165541313    0.37412000762047265    0.36483499181471896    0.3985822812993672    
  0.35177801045010504    0.2885179049600702    0.28855271719222086    0.3517790231341653    0.39857495994640785    
  0.3648250432448185    0.29782640342483097    0.25578392618355233    0.2557896381810408    0.2978167079006262    
  0.36483499181471896    0.33555301936450427    0.3926702096553452    0.37158569710295186    0.28855228324273025    
  0.24680338414345368    0.28855272929252335    0.3715835635630682    0.39267032520682305    0.33555416121347037    
  0.2749425434312326    0.2522588585261219    0.27494337660531787    0.33555301936450427    0.29073640968156395    
  0.35853737710886185    0.3946327346494178    0.35060758543877335    0.2885523078810972    0.28851789774994213    
  0.350606863508643    0.3946436693769657    0.3585449464753126    0.2907267236795164    0.24846540682366833    
  0.24845846819254847    0.29073640968156395    0.24535254006137508    0.2990907772228102    0.3653922751030622    
  0.39463279468730333    0.37158572097976844    0.3517780173203018    0.3716267876240962    0.39462793349197756    
  0.36537251397337006    0.29909467911062426    0.24535404249638498    0.2262716248455564    0.24535254006137508    
  0.21391305503654756    0.24407267663093726    0.29909077673203266    0.35853738186189715    0.39267022856962003    
  0.3985823363605192    0.3985689094123351    0.39264783502540235    0.35853800924950485    0.2991098405368548    
  0.24406450020353224    0.21391733762974421    0.21391305503654756    0.20300135604330832    0.21391307146045413    
  0.24535255154328078    0.2907364122819889    0.3355530156348846    0.3648350008626187    0.37411999664021206    
  0.36482694728129167    0.33557758352281397    0.2907332860484473    0.24534111625568258    0.21391411328086204    
  0.20300135604330832    0.236868272273119    0.24930332982731696    0.28471017908611496    0.3333426621730804    
  0.37444120161047517    0.39275773772558054    0.39568718630279975    0.39274051323478626    0.3744766971285358    
  0.333346373141656    0.28468279528616974    0.24930823150934425    0.236868272273119    0.24930823648078004    
  0.24930908824310044    0.26222162930965015    0.2847989868646899    0.31043775391543327    0.33035952077002906    
  0.33981809453582335    0.3398498192920484    0.33037251037148346    0.3103982770223267    0.2847999754252588    
  0.2622459957665226    0.24930823648078004    0.2846827837599492    0.2842334007798408    0.2847116031748016    
  0.28480355732325713    0.2835986163082523    0.2816876085712957    0.279390123625693    0.27815690359865614    
  0.2793607332463029    0.2816827540260761    0.28363647177884166    0.2847999573079899    0.2846827837599492    
  0.33334635518099137    0.3444954849290442    0.344463684840015    0.3333348461993961    0.31043743255346923    
  0.28168220144642486    0.2567813705871938    0.24269956679120844    0.2426972314722911    0.25680822633994027    
  0.28168272459251703    0.3103982429854031    0.33334635518099137    0.374476635360914    0.3950022476790369    
  0.39868286000516356    0.3950192383566831    0.3744408963228813    0.3303687844004072    0.2793892016328946    
  0.24269249136981355    0.22987270301701856    0.24269724911198148    0.2793607023635053    0.3303725321454558    
  0.374476635360914    0.3927405555277954    0.3964508175176853    0.3719787348905897    0.37199842695276436    
  0.39647381275972154    0.3927545464075993    0.3398080700358821    0.2781720088517752    0.2426925105843175    
  0.24269959837502675    0.27815688518905307    0.33984984350780184    0.3927405555277954    0.39568717823887156    
  0.37095102624065596    0.284629163412924    0.24202720908004904    0.2845901026336648    0.3709386982572188    
  0.3957317078063017    0.339808072379077    0.2793892142314541    0.25678139883525014    0.2793901519021149    
  0.33981809768714355    0.39568717823887156    0.39275770381541386    0.3709719258841666    0.2418236803064488    
  0.1452932822478634    0.14530414481824058    0.24184844654441562    0.37093868325856    0.39275452546140527    
  0.3303687707298586    0.2816821934637237    0.28168760516080477    0.33035949501674655    0.39275770381541386    
  0.37444118546089467    0.39647397046281035    0.2845887504114258    0.14530407983488988    0.0980814694950189    
  0.14530416778644345    0.2845900579369935    0.3964738493188331    0.37444087668972975    0.31043746691763513    
  0.2835986223199025    0.3104377189248315    0.37444118546089467    0.3333426928974754    0.39501612346169546    
  0.3719666479200259    0.24205335892980706    0.1453040836834798    0.14529326020112557    0.24202723787286154    
  0.37199842394162447    0.39501922111215876    0.3333348667004081    0.28480359121722804    0.28479897464239123    
  0.3333426928974754    0.2847101894235695    0.3444553115319015    0.3987248537772842    0.37196670468035403    
  0.2845887696018889    0.24182369984525498    0.2846291255352287    0.3719787128154955    0.39868285482015076    
  0.3444637112705215    0.28471160818202773    0.2622216215499098    0.2847101894235695    0.24930330741271045    
  0.28424742634353345    0.34445530062829516    0.3950161174255479    0.3964739841419639    0.37097195776039127    
  0.37095098045005787    0.3964508252460257    0.3950022338927654    0.3444954785534731    0.2842333952672504    
  0.2493090732534714    0.24930330741271045    0.236868272273119    0.24930332982731696    0.28471017908611496    
  0.3333426621730804    0.37444120161047517    0.39275773772558054    0.39568718630279975    0.39274051323478626    
  0.3744766971285358    0.333346373141656    0.28468279528616974    0.24930823150934425    0.236868272273119    
  0.2511087574963875    0.26406134110502993    0.3007991347581964    0.35004190847961547    0.3879905976580193    
  0.39974798323810934    0.39916682266012854    0.39972969588087853    0.3880139729398835    0.3500536491927636    
  0.3007653040624005    0.2640665781981471    0.2511087574963875    0.26406656920678645    0.2640717552483396    
  0.27703370237202074    0.29955802170667084    0.32468331844173287    0.3432143591274669    0.35109688291050734    
  0.351136025741566    0.34322552521736804    0.3246532738111697    0.2995521512837757    0.27706756306052843    
  0.26406656920678645    0.3007652977474794    0.3007181266542092    0.30079830228265103    0.29955654171011153    
  0.2964424995508901    0.292641438245859    0.28877856090159126    0.28685328320754394    0.28874367610840673    
  0.2926383904315871    0.2964755623282243    0.29955214748636694    0.3007652977474794    0.3500536222346782    
  0.3620862456660922    0.3620507962486682    0.35004019796202684    0.32468447892633    0.2926438783550659    
  0.2647325688371272    0.2487752951933704    0.24877109010794818    0.2647665370154343    0.29263835898561824    
  0.32465323207103586    0.3500536222346782    0.38801390892185683    0.40555167450231966    0.4070725072912243    
  0.4055713546650547    0.3879896361594947    0.3432131240621536    0.2887794065336396    0.24876515597275545    
  0.23462978114665484    0.24877112575455249    0.2887436459275244    0.3432255554859059    0.38801390892185683    
  0.3997296845362011    0.3890269679857412    0.35186788205426184    0.35188553355687335    0.3890332129199404    
  0.39975812878667266    0.3510830046007532    0.2868726674659247    0.24876515912142208    0.2487752956483052    
  0.2868532605450131    0.3511360238192983    0.3997296845362011    0.39916679561677526    0.3488777476841064    
  0.24102755319876148    0.1935562056183713    0.24101033466065347    0.3488483751649021    0.39922330265221057    
  0.35108301586892604    0.28877943212190105    0.2647326144657544    0.2887785943847246    0.35109684055298157    
  0.39916679561677526    0.3997479719626416    0.34889851637434843    0.19295547673253696    0.09666917091329867    
  0.09665696441660399    0.1929965577970835    0.3488483785477644    0.39975807276811837    0.34321310688257844    
  0.29264389977448513    0.2926414433711725    0.34321435622083585    0.3997479719626416    0.3879905940923648    
  0.38903418116570804    0.24100799922605837    0.09665733011842689    0.056055485426104584    0.09665697454390448    
  0.24101027749404033    0.38903323283884894    0.3879896087558767    0.3246844688666918    0.296442519270141    
  0.32468327588298895    0.3879905940923648    0.3500419359187037    0.4055765422507933    0.35183992769044004    
  0.19359743443196126    0.09665732882638435    0.09666915930606608    0.19355621336835202    0.3518855463194597    
  0.4055713366097137    0.3500402241593993    0.29955655704802375    0.2995580112026565    0.3500419359187037    
  0.300799107840722    0.3620367401441649    0.4071276830529779    0.3518399320330497    0.24100802817276773    
  0.1929554796000943    0.24102754279326466    0.35186784286087314    0.40707246705001787    0.3620508475636366    
  0.30079828338040254    0.27703370062544597    0.300799107840722    0.2640613050532156    0.3007368742907512    
  0.36203673965569333    0.4055765315454408    0.38903422302997076    0.34889853366705825    0.34887770086073183    
  0.3890269327538844    0.40555167022823135    0.3620862254802536    0.30071811016694344    0.2640717233056844    
  0.2640613050532156    0.2511087574963875    0.26406134110502993    0.3007991347581964    0.35004190847961547    
  0.3879905976580193    0.39974798323810934    0.39916682266012854    0.39972969588087853    0.3880139729398835    
  0.3500536491927636    0.3007653040624005    0.2640665781981471    0.2511087574963875    0.2368682798334089    
  0.24930333990941214    0.28471018811806587    0.3333426790186444    0.3744411952337634    0.3927577081046564    
  0.39568718679307985    0.3927405208135425    0.37447668844688564    0.3333463796628843    0.2846827828603794    
  0.24930824365136517    0.2368682798334089    0.24930824312502597    0.2493090964630725    0.26222163241462987    
  0.2847989837470429    0.3104377562941349    0.330359534640079    0.339818101462094    0.3398498233287044    
  0.33037249779878575    0.31039827248979573    0.2847999791662274    0.2622459827049909    0.24930824312502597    
  0.2846827867828931    0.28423339861185204    0.2847115995505505    0.2848035612709238    0.28359862392318413    
  0.28168759711055696    0.2793901238964953    0.2781569035122031    0.27936072848262145    0.2816827462193598    
  0.28363647916836543    0.2847999787971959    0.2846827867828931    0.3333463559256743    0.3444954846843662    
  0.34446368162160723    0.33333483807720327    0.31043743806937035    0.281682196048996    0.25678138858704036    
  0.2426995687485515    0.24269722732387866    0.2568082333445363    0.28168273492850415    0.3103982324280331    
  0.3333463559256743    0.3744766551018416    0.39500223271516627    0.3986828587848315    0.3950192287004273    
  0.3744408963779597    0.33036877723100155    0.27938919297068354    0.24269249409879015    0.22987271925084926    
  0.24269724415755423    0.27936069740198044    0.3303725442018173    0.3744766551018416    0.3927405380429367    
  0.39645081021901124    0.3719787382639582    0.37199840428153885    0.39647380628738926    0.39275454907565727    
  0.3398080883069135    0.27817200729733393    0.24269250341864962    0.2426995931971913    0.2781568685397537    
  0.33984984301614823    0.3927405380429367    0.39568717243402773    0.3709510116039958    0.2846291543461708    
  0.24202720135270725    0.28459009069455876    0.37093869441794514    0.3957317191444211    0.3398080698409324    
  0.27938922017054263    0.25678139693586577    0.279390164270781    0.3398181035481605    0.39568717243402773    
  0.3927577071517592    0.3709719276134061    0.2418236866172868    0.1452932763209003    0.14530415466378238    
  0.241848442143533    0.3709386840057831    0.39275451114847154    0.3303687629456335    0.2816821982097978    
  0.281687595653286    0.3303595029060107    0.3927577071517592    0.3744411857897244    0.3964739643284047    
  0.28458875670531864    0.1453040693966492    0.09808147769975686    0.14530416572128682    0.2845900642411648    
  0.3964738167607974    0.3744408841196208    0.31043745986807963    0.2835986102415905    0.31043771963606864    
  0.3744411857897244    0.3333426949361076    0.39501612598924024    0.3719666547952401    0.2420533764740852    
  0.14530407724992117    0.14529326312806262    0.24202723591889613    0.37199841205044815    0.3950192227831245    
  0.33333487218945906    0.2848035871348735    0.28479895374351505    0.3333426949361076    0.28471018826808    
  0.3444553036960844    0.3987248455397969    0.3719667101266354    0.28458875595738914    0.2418236933815074    
  0.28462913026475023    0.3719787202812236    0.3986828540288398    0.34446369396111576    0.284711621287808    
  0.26222161609753786    0.28471018826808    0.2493033057424589    0.28424742928196206    0.34445529699559674    
  0.3950161218092141    0.396473974768653    0.3709719608976598    0.37095098064992954    0.39645081330485193    
  0.3950022133859089    0.34449546361777905    0.28423338565326434    0.24930908789737133    0.2493033057424589    
  0.2368682798334089    0.24930333990941214    0.28471018811806587    0.3333426790186444    0.3744411952337634    
  0.3927577081046564    0.39568718679307985    0.3927405208135425    0.37447668844688564    0.3333463796628843    
  0.2846827828603794    0.24930824365136517    0.2368682798334089    0.20300136344267572    0.21391307887052396    
  0.24535254647533528    0.29073641351311785    0.3355530145298838    0.36483501018646974    0.3741200111877359    
  0.3648269472391942    0.33557758669020177    0.2907332810284702    0.24534113550979517    0.2139141110403394    
  0.20300136344267572    0.21391411333988117    0.21391732802535618    0.2262716217058065    0.24845847321922934    
  0.2749434300226789    0.2978167174521347    0.3105440900857132    0.3105589709279943    0.297823207183897    
  0.2749201755390045    0.24845822124742784    0.22628725374681233    0.21391411333988117    0.24534111395373986    
  0.244064522610402    0.24535406946186603    0.24846537620370152    0.25225887677825093    0.25578960630913644    
  0.25799388095352516    0.25862668989617554    0.25798124537870276    0.2557832579148387    0.25228673016411357    
  0.24845820727047932    0.24534111395373986    0.29073323169147547    0.2991098386484618    0.29909465679032604    
  0.29072668485208847    0.2749425500106724    0.25578391062340394    0.23934018904666432    0.2301548089934264    
  0.23015246402793527    0.23935467105115438    0.2557832381132835    0.2749201676001661    0.29073323169147547    
  0.3355775177322261    0.35853803461306316    0.3653725292403435    0.35854492629668894    0.335554182290253    
  0.29782645029330257    0.2579913778605656    0.23015174689565848    0.22055761572494034    0.23015245649536206    
  0.25798123123494987    0.29782322074238515    0.3355775177322261    0.3648270121042109    0.3926478373967246    
  0.3946279676595756    0.394643611447298    0.39267032280784275    0.36482508023865173    0.3105420895181738    
  0.2586335385663117    0.2301517519008478    0.23015481415799904    0.2586266588524163    0.3105589861605133    
  0.3648270121042109    0.3741200142805859    0.3985689450367606    0.37162682642101835    0.35060683337159665    
  0.3715836051536291    0.3985749706842043    0.3741371764779757    0.31054208856539905    0.25799140824958156    