#     DFTpy    
  CRYSTAL 
    
  PRIMVEC    
  6.733999999999999    0.0    0.0    
  0.0    6.733999999999999    0.0    
  0.0    0.0    3.7099999999999995    
  PRIMCOORD    
  4    1    
  Si    0.0    0.0    0.0    
  Si    3.3670000000000004    3.3670000000000004    1.8549999999999998    
  Si    0.0    3.3670000000000004    0.9274999999999999    
  Si    3.3670000000000004    0.0    2.7824999999999993    
  BEGIN_BLOCK_DATAGRID_3D    
  3d_datagrid_density    
  BEGIN_DATAGRID_3D#0    
  29    29    17    
  0.0    0.0    0.0    
  6.733999999999999    0.0    0.0    
  0.0    6.733999999999999    0.0    
  0.0    0.0    3.7099999999999995    
  0.09721036574439298    0.16939963927078153    0.38507850458799603    0.47654364104888125    0.3221729114428082    
  0.16431801551749572    0.08346471004062468    0.05279385404422752    0.049075091588206415    0.06597290347966837    
  0.10742756200151334    0.17748626892387978    0.2641140224686547    0.3352312942290468    0.36181122928058596    
  0.3352312786530813    0.2641140490143224    0.17748627434116865    0.10742757136413773    0.0659728905496865    
  0.04907508963678346    0.05279384152441746    0.08346472324645582    0.16431801754122896    0.32217293931914714    
  0.4765437016520588    0.3850784386982621    0.16939961418720093    0.09721036574439298    0.16939962660171698    
  0.24790638277127927    0.43327675102640034    0.46349426018432255    0.29980664773780485    0.1529579458174621    
  0.07867249600252647    0.0503574582507724    0.046935677660827096    0.06261907450611089    0.10085257159053217    
  0.16525435612373732    0.245330555068743    0.3120516765609903    0.3373586079718312    0.31205167906725867    
  0.24533048387548742    0.1652543834162086    0.10085256278307544    0.06261906077493794    0.046935683571010224    
  0.05035744945294196    0.0786725138747621    0.15295794992850095    0.2998066006124292    0.4634943107402816    
  0.43327663402661326    0.24790637073341412    0.16939962660171698    0.3850784332487519    0.43327663687289114    
  0.4855656695947227    0.3988234373146529    0.2395859546806559    0.1241179595525321    0.06645400059211856    
  0.04400861366108529    0.041281310092705525    0.05385493586724775    0.08402748455423178    0.13413674883566426    
  0.1966586000016876    0.25008513452336706    0.27092971970405955    0.25008518598271573    0.19665855687635522    
  0.1341367412700457    0.08402748788261265    0.05385494116720261    0.04128132053406588    0.04400860839233575    
  0.06645398014547785    0.12411796890630104    0.239585971251134    0.39882340115097104    0.48556556065585943    
  0.43327665965469353    0.3850784332487519    0.47654372382248766    0.46349434307933984    0.39882349245447596    
  0.28001726677518407    0.16461292006119063    0.08955769199899237    0.05137750191472845    0.03594359426897212    
  0.03405626456265334    0.042875451370820265    0.06350179583702739    0.09672036753887628    0.1375020230726039    
  0.17258788197014152    0.1864901161517643    0.17258788247523563    0.1375020051821863    0.09672038908849304    
  0.06350177726268313    0.04287545681146802    0.034056271431961535    0.035943595610266436    0.05137751006414854    
  0.08955770253998935    0.1646129177616098    0.28001717829361195    0.3988235811371308    0.46349429720095586    
  0.47654372382248766    0.32217288936260013    0.2998066586642874    0.23958602203771318    0.16461292543605704    
  0.10114692299636165    0.05982716254798714    0.037690203298838675    0.028302887608170294    0.02716473094047938    
  0.0326802790391614    0.045108671102016246    0.06424955385478084    0.08693711218625182    0.10610326448634558    
  0.11364680217130244    0.1061032450168226    0.08693710762258944    0.06424956203849198    0.04510866891535941    
  0.03268028175964312    0.027164738355770962    0.028302889319414434    0.03769020417925794    0.059827173715375666    
  0.10114692885231953    0.16461291664793515    0.2395860125389303    0.29980659993736414    0.32217288936260013    
  0.16431799161338323    0.1529578975710623    0.12411795206776308    0.0895576698332071    0.059827171898787744    
  0.03938110842263097    0.027635421399314478    0.02234451917192059    0.021669804723360022    0.0248132428409156    
  0.031610525702035014    0.04154235518719683    0.05280586368294091    0.06201284642379464    0.06557050844787841    
  0.062012849188085126    0.052805858505423506    0.04154235207526006    0.03161052978984227    0.024813239985230936    
  0.021669810240594646    0.02234451143759973    0.027635416426685787    0.03938111449607919    0.05982715508289071    
  0.08955767333357254    0.12411797036696036    0.15295793558588852    0.16431799161338323    0.0834647102078826    
  0.07867249411337968    0.0664539989611624    0.05137748682458402    0.0376901941770784    0.02763542132938681    
  0.021422248841568046    0.018397513398813212    0.017923711568991713    0.019599424953931497    0.023123072366683844    
  0.02801420323100594    0.03329774070453733    0.037468885550705114    0.03905886203815993    0.03746887901604861    
  0.03329774863052922    0.02801420448698358    0.02312306216888983    0.019599419028154423    0.01792371058051901    
  0.018397508182919207    0.021422244567946745    0.02763542674817192    0.0376901934500311    0.05137749163267621    
  0.0664539716489707    0.07867251105516727    0.0834647102078826    0.05279384659798978    0.05035745385903856    
  0.04400862843933055    0.03594358507756647    0.028302892046505056    0.022344512639358785    0.018397508523959882    
  0.016314098756663765    0.01582789481428042    0.016662192166558686    0.01852756344180747    0.021052843947976477    
  0.023670060490264738    0.02567808944611984    0.02644751884808911    0.025678077719891793    0.023670062256702734    
  0.021052840582679103    0.018527561273394718    0.016662185699098744    0.015827894560377455    0.01631409701980633    
  0.01839750851879344    0.02234451744690311    0.028302882276534495    0.03594358555007622    0.04400861081049144    
  0.050357445731246175    0.05279384659798978    0.04907507509894744    0.04693569747382308    0.04128133045255563    
  0.03405626889884456    0.02716473259029582    0.02166981093034092    0.01792370563012637    0.01582789819838424    
  0.015111805739542135    0.01548619955732676    0.01665979757215725    0.01831161616944835    0.020017880608299208    
  0.021315246944865123    0.021811222516136423    0.021315249033106165    0.020017867005375434    0.01831162086793242    
  0.016659796740725385    0.015486196915967868    0.015111809986259512    0.015827896893538522    0.01792370685060404    
  0.021669813517310742    0.027164723527415842    0.034056276414036205    0.041281321498467936    0.0469356794263282    
  0.04907507509894744    0.06597289850464749    0.06261903507575096    0.05385495671186542    0.042875431193619896    
  0.032680270706419705    0.024813233735264454    0.01959942859410301    0.01666218785754156    0.015486194298204421    
  0.015635983048651565    0.016724711301337868    0.018366056201034927    0.020112794921007527    0.021449808658288667    
  0.02195095272559433    0.02144981915106533    0.020112792870409825    0.018366054154389577    0.016724721399255457    
  0.015635978433403315    0.015486199173069648    0.016662181898767787    0.019599423881942853    0.02481323598436118    
  0.03268027487304208    0.042875442853102484    0.05385493199758361    0.06261906135899736    0.06597289850464749    
  0.10742754770332401    0.10085259533463733    0.08402747889675494    0.06350177581159387    0.045108666810643426    
  0.03161053844947905    0.02312306885191113    0.018527562335956503    0.016659796561677265    0.01672471758308107    
  0.018151652048960024    0.020401452184625236    0.02284219247200729    0.024730518551023116    0.02543653019114943    
  0.02473050688016428    0.022842179142217398    0.020401460785597167    0.018151643712893413    0.016724721442609364    
  0.016659796570365506    0.018527566188822057    0.02312306573365233    0.03161054030969368    0.04510866164356917    
  0.0635017842920569    0.08402750322026428    0.10085256228693194    0.10742754770332401    0.1774863019812508    
  0.1652543934541942    0.1341367979976724    0.09672034675601449    0.06424957300409276    0.04154235726342771    
  0.028014217433639764    0.021052840123640646    0.018311626577317264    0.018366062524856428    0.02040146636430303    
  0.023692260519515222    0.027320620604752967    0.030174662760238797    0.031255649780889135    0.03017465221279105    
  0.0273206308973416    0.023692249472751652    0.020401464668102946    0.018366066735484254    0.01831162706198846    
  0.02105284276484695    0.028014211019167554    0.041542359813776866    0.06424957422966752    0.09672034703443688    
  0.1341367641451764    0.16525439005883064    0.1774863019812508    0.2641140022071415    0.2453305534688838    
  0.19665855740436167    0.13750197952675536    0.08693708475137452    0.052805869516327306    0.03329773650273281    
  0.023670060514925036    0.020017863816751393    0.020112802169653228    0.022842170440584366    0.027320637392473084    
  0.03236383268893273    0.036401275633667525    0.0379394553560183    0.03640129671627732    0.032363795435634536    
  0.02732062629466852    0.022842175146438947    0.020112799409845623    0.020017876326725807    0.02367005350619666    
  0.03329773124958881    0.05280587954691309    0.08693708370770317    0.13750203200696556    0.19665853538122655    
  0.24533054992176045    0.2641140022071415    0.33523126755844523    0.312051638072083    0.25008520218158964    
  0.17258785383585803    0.10610327830556554    0.06201283371880439    0.03746888858350501    0.02567808168242679    
  0.02131525549786851    0.021449816872780733    0.024730525857617303    0.030174651920920354    0.03640128106304745    
  0.04144675447121681    0.043384398385019035    0.041446758685335996    0.03640128174362868    0.030174643647871528    
  0.024730523067066447    0.021449819851720807    0.021315250847049383    0.025678076854542767    0.03746889481652614    
  0.062012853100467606    0.10610325181862089    0.17258787831646097    0.25008514870851395    0.31205167555164    
  0.33523126755844523    0.3618111217582835    0.3373586342546687    0.2709297429925284    0.1864901202576889    
  0.11364679238123342    0.06557051802501027    0.03905884255810151    0.026447527248055082    0.021811210541282287    
  0.021950957865646926    0.025436546576432347    0.031255639650048746    0.037939423862663864    0.04338440368905019    
  0.04548089533807439    0.043384403066657806    0.037939437088708346    0.03125564189904448    0.02543653933249664    
  0.02195095905790758    0.021811213183816874    0.026447520652308543    0.03905884307934958    0.06557052084279348    
  0.11364679458290294    0.18649011402652008    0.2709297242081561    0.337358575022153    0.3618111217582835    
  0.3352313789698584    0.3120516410561614    0.2500852143074573    0.172587864093448    0.1061032911683655    
  0.06201283605077641    0.037468886687063635    0.025678082811033752    0.021315253019900116    0.021449815150214397    
  0.024730519758753306    0.03017465031839915    0.03640128815343722    0.04144674647571078    0.04338441979971704    
  0.041446743737360923    0.03640126693365888    0.03017465325680686    0.024730531246012565    0.021449813492760792    
  0.021315258483082505    0.02567807500820427    0.03746889247509383    0.06201284781429696    0.106103259196598    
  0.1725879013285865    0.2500851758105826    0.3120516552919694    0.3352313789698584    0.2641139928079888    
  0.24533052596175908    0.19665854008080785    0.1375020123155257    0.08693708057628645    0.05280587972847496    
  0.03329774273291086    0.02367006151714393    0.02001786405042997    0.020112799762631212    0.022842162733412594    
  0.027320644971541616    0.03236382266966106    0.036401293052115084    0.03793942148324407    0.03640130974207778    
  0.03236379402309321    0.027320626602359146    0.022842171879596973    0.020112795324730523    0.02001787294755631    
  0.02367006448841058    0.03329772958996232    0.05280587567611171    0.08693708706065563    0.1375020251784881    
  0.19665850903694157    0.24533056712529916    0.2641139928079888    0.177486275408007    0.16525441364452179    
  0.13413679637255382    0.09672035936063282    0.06424958517270879    0.04154235554149964    0.02801421409157155    
  0.021052842105285192    0.018311627761314408    0.01836606157576005    0.02040147110047388    0.02369224120356701    
  0.027320640989110898    0.030174646499980144    0.03125564848148459    0.030174646933050834    0.027320642715879927    
  0.023692257239664435    0.020401465053161934    0.018366056988712562    0.018311627724611628    0.021052847293213814    
  0.028014220082756953    0.04154235853607496    0.06424957507545305    0.09672033819509701    0.1341368031513549    
  0.16525435502647834    0.177486275408007    0.1074275357632878    0.10085257757157726    0.0840274959506157    
  0.06350178709260036    0.04510865122548967    0.03161054295095103    0.023123064945599688    0.01852757050512853    
  0.01665978885116529    0.016724726283530524    0.01815164692121305    0.0204014605525485    0.02284217002183878    
  0.024730530160585067    0.025436545996398014    0.024730519001081478    0.022842167696541873    0.02040146451124395    
  0.01815164495881741    0.016724718913439608    0.016659792810056532    0.018527567748145485    0.023123060144003272    
  0.031610548445960396    0.045108650700103614    0.06350179154545113    0.08402748818852432    0.10085258640327986    
  0.1074275357632878    0.06597292187313639    0.0626190258518475    0.053854944816897794    0.04287543173636115    
  0.032680280150781955    0.02481322867666474    0.019599425289687458    0.016662185586064946    0.015486192496145485    
  0.01563598120716503    0.016724715206462338    0.018366057586153377    0.02011279696120115    0.021449804586385762    
  0.021950959721487497    0.021449817421214393    0.020112788303492227    0.018366058800838875    0.01672472726386767    
  0.015635976775942948    0.015486199384346738    0.016662180648429545    0.019599427651112142    0.024813230660801478    
  0.032680281361705234    0.042875437079293685    0.053854945511356105    0.06261905464750228    0.06597292187313639    
  0.04907507912642307    0.046935688045644824    0.041281312953419316    0.034056268749437096    0.027164725407785494    
  0.02166981108884153    0.017923702611502352    0.01582790030801281    0.015111802307493939    0.015486203711555895    
  0.01665979499596772    0.018311623799818315    0.020017871655703384    0.021315258749886486    0.021811215229915984    
  0.021315248133244567    0.020017870854204176    0.018311629681358393    0.01665979261426557    0.015486196207280032    
  0.015111802842323495    0.015827898593701362    0.01792370487946392    0.021669820440392187    0.02716472466778486    
  0.03405627765478193    0.04128130690238813    0.04693569922427524    0.04907507912642307    0.052793858704714855    
  0.05035745484632529    0.04400863142073284    0.035943572771076994    0.02830289787556885    0.022344510605522217    
  0.018397508610805947    0.016314092655244847    0.01582789794919092    0.01666218251103292    0.0185275685228815    
  0.02105284205866773    0.02367005687896973    0.02567807701683788    0.026447524987945496    0.02567808122652328    
  0.023670062244919063    0.021052837173369452    0.018527566072424975    0.01666218205955821    0.01582789587485162    
  0.01631409453804735    0.018397513466225864    0.02234451263698505    0.028302884579024523    0.03594357624385395    
  0.04400861128670089    0.05035743429427225    0.052793858704714855    0.08346470263953924    0.07867250825167046    
  0.06645397285487371    0.05137749316217468    0.037690197077377315    0.02763542413487246    0.021422238839421452    
  0.018397516631393458    0.01792370304439923    0.019599431609341654    0.02312305969787599    0.028014209349389644    
  0.033297736894958456    0.03746888795408617    0.03905885129743507    0.03746889431108955    0.033297727276365374    
  0.028014213675065583    0.023123064616722144    0.019599427396726616    0.017923709066285026    0.018397511310883363    
  0.02142224612132788    0.02763542823818466    0.0376901884579707    0.05137751152360389    0.06645397111854062    
  0.07867250829178989    0.08346470263953924    0.16431799504820038    0.1529579219207827    0.12411797016905111    
  0.08955764463755682    0.05982717398408553    0.03938111353162058    0.027635426692327304    0.022344516735688522    
  0.021669805310799938    0.024813234857083505    0.03161053180851536    0.041542343871851024    0.052805865382087654    
  0.06201282943299482    0.06557051165542613    0.062012859745087454    0.05280586527485915    0.04154235102809684    
  0.031610537191941    0.024813235183731637    0.021669810626263365    0.022344508707394663    0.027635425432587648    
  0.039381107417280285    0.059827167556137935    0.08955765622408213    0.12411796213528245    0.15295791364103697    
  0.16431799504820038    0.32217294715704425    0.2998066946771833    0.23958600164085672    0.16461291371848233    
  0.1011469419537959    0.059827176039657676    0.03769019532417579    0.02830289245316448    0.027164732869274    
  0.032680275008492986    0.0451086656662899    0.06424955414732236    0.08693713161008021    0.10610325735566814    
  0.11364681696973115    0.10610323905445397    0.086937104001001    0.06424958294302201    0.04510866248661508    
  0.032680288372299436    0.027164731689517094    0.02830289781044654    0.037690197699622445    0.05982718949475109    
  0.10114692215513772    0.16461291262635683    0.23958600765294447    0.29980670537371773    0.32217294715704425    
  0.47654372487049534    0.4634943116892185    0.39882347362830967    0.2800172285707756    0.16461293301416616    
  0.08955767682746432    0.05137750783193932    0.035943596105284074    0.034056264530658555    0.042875458712808956    
  0.06350179192716926    0.0967203335773553    0.13750201347243624    0.17258794208466263    0.18649009227777877    
  0.17258792334860043    0.1375020458126746    0.09672034535614647    0.0635017927795079    0.04287544702667028    
  0.03405626539179317    0.03594358966985215    0.05137749825202369    0.08955767344215369    0.1646129305364107    
  0.2800172237215469    0.39882353011641736    0.46349437528575216    0.47654372487049534    0.3850785027285639    
  0.4332765289052699    0.48556556476490514    0.398823428310857    0.23958593902953326    0.12411795590055424    
  0.06645397951709042    0.044008615579759366    0.04128132027427847    0.05385494130227109    0.08402747554017923    
  0.13413674495950512    0.19665855070485996    0.2500851282482239    0.2709297332015    0.2500851562922803    
  0.1966585240189135    0.13413677143258035    0.08402748516511892    0.053854946341247656    0.04128131501768465    
  0.044008607952840714    0.06645397403853387    0.12411797410920025    0.23958598056361508    0.39882348177997984    
  0.48556558906463687    0.4332767233883267    0.3850785027285639    0.16939962773505973    0.24790638489375677    
  0.4332766444895601    0.4634941904294535    0.2998066775075555    0.1529579420804856    0.07867250429764168    
  0.050357465719055645    0.04693568304907159    0.06261906452195848    0.10085257118665775    0.16525435568675906    
  0.2453305544960523    0.31205173917742657    0.3373585467254041    0.31205171655590563    0.24533052253036322    
  0.16525443178568036    0.10085257970454319    0.06261906952521347    0.046935683693582746    0.050357460408917296    
  0.07867251064824886    0.15295796221950103    0.2998066036604287    0.4634942802048253    0.4332766109659329    
  0.2479063746914931    0.16939962773505973    0.09721036574439298    0.16939963927078153    0.38507850458799603    
  0.47654364104888125    0.3221729114428082    0.16431801551749572    0.08346471004062468    0.05279385404422752    
  0.049075091588206415    0.06597290347966837    0.10742756200151334    0.17748626892387978    0.2641140224686547    
  0.3352312942290468    0.36181122928058596    0.3352312786530813    0.2641140490143224    0.17748627434116865    
  0.10742757136413773    0.0659728905496865    0.04907508963678346    0.05279384152441746    0.08346472324645582    
  0.16431801754122896    0.32217293931914714    0.4765437016520588    0.3850784386982621    0.16939961418720093    
  0.09721036574439298    0.16467891322089193    0.24374799141563266    0.4338366297526692    0.4693494501259562    
  0.30485547995475465    0.1547063419818638    0.07741464164271862    0.04620018667187033    0.03827812585775481    
  0.044800272926622094    0.06481221564887246    0.09884309570858674    0.14161009704586106    0.17892610866137695    
  0.19384099775337918    0.17892605623221314    0.14161011748832758    0.09884308897296093    0.06481222161184239    
  0.04480026562207987    0.03827812375961985    0.046200180553085335    0.07741465516592203    0.15470634057510532    
  0.3048554804397162    0.4693494566387682    0.4338365549733232    0.24374798002621992    0.16467891322089193    
  0.24280196509168825    0.31861143707992007    0.46641758162969266    0.4505244949054782    0.2830123516362203    
  0.14404917404124    0.07305298209823792    0.044188833328766504    0.03683490289243777    0.042929850277194495    
  0.061512349599614706    0.09291826647706775    0.13223130504619532    0.1664560173548245    0.1801060939166016    
  0.16645600543543992    0.13223127576022392    0.09291828998785757    0.06151234988229565    0.04292985688213406    
  0.036834912709032185    0.044188827506734696    0.07305300141829145    0.14404918606955222    0.2830122996111456    
  0.4505245130742003    0.46641753647604833    0.31861141223921513    0.24280196509168825    0.42887598700816537    
  0.4625713670849614    0.4809838359802563    0.378009801591487    0.225103446549472    0.11695824669348065    
  0.06189986277484655    0.03895928530829357    0.0330239241193379    0.03799085272952935    0.0529586762354185    
  0.07778874135932812    0.1083997067337108    0.13481548798093898    0.14532486739753375    0.13481548178592068    
  0.10839969173458129    0.07778874869844836    0.052958687860033896    0.0379908402314076    0.03302393037574029    
  0.038959289136092944    0.06189985476181683    0.11695826006488974    0.22510343449890796    0.37800980283975927    
  0.4809837524382095    0.4625714454987854    0.42887598700816537    0.46064845224155193    0.4431856646680321    
  0.37459644140487613    0.26129206268121874    0.15442994917277697    0.08460032778283774    0.048141873993975466    
  0.032293801687303    0.028095270185869284    0.031664101442097956    0.04223015300123717    0.059248177210646076    
  0.07964918539581214    0.09695824495520959    0.1037975487269225    0.09695823654545607    0.07964912519053784    
  0.05924818621972176    0.042230152774475796    0.031664104450664914    0.028095268567437194    0.032293800144534104    
  0.04814188013321132    0.08460033227496003    0.1544299416217337    0.26129208628691347    0.37459651288476414    
  0.44318560481882613    0.46064845224155193    0.2982849573513845    0.27736211937353156    0.22201567252007365    
  0.1536317598234895    0.09538884962826664    0.05691087837763731    0.03568419691465678    0.025939358967783422    
  0.023288210022187745    0.025609137422487917    0.03226339760330937    0.04256367439226876    0.054500221943392844    
  0.0643707983573161    0.06820828287701303    0.0643707804805885    0.05450022378604699    0.04256368748479734    
  0.032263392393315354    0.025609137529496825    0.023288212302178455    0.025939357617099885    0.0356841902299865    
  0.05691089401046925    0.09538886988474468    0.15363175996896677    0.22201568128577093    0.27736213985056407    
  0.2982849573513845    0.15354635394169894    0.14312754000716327    0.11674812662963505    0.08498843940184216    
  0.05734648709192894    0.03802604870405636    0.026595351695465994    0.020988719829019703    0.019395945159270338    
  0.0207942979157852    0.024657955593463742    0.030366202851303502    0.03673030643668689    0.04184427993439018    
  0.04379720176271909    0.041844282916486716    0.03673030141004043    0.030366204823409126    0.02465796002919266    
  0.02079429556836248    0.01939595133258426    0.02098871350643272    0.02659535366245438    0.038026057028061944    
  0.05734648917813644    0.0849884494966601    0.11674811092438955    0.1431275716598898    0.15354635394169894    
  0.08186655839063764    0.07725143932100756    0.06544245380255222    0.050822668373262714    0.03744358987816798    
  0.027465545425470594    0.021128738134988553    0.017795701676709744    0.016772295303344405    0.017557548578167645    
  0.01973642317285675    0.022833152950332395    0.026145143006578605    0.028736530418196255    0.02972642581467177    
  0.02873651960819937    0.02614514235154028    0.022833160426589196    0.019736418521941333    0.017557543696884986    
  0.016772293031131112    0.017795695612524937    0.02112873937691929    0.02746555392838008    0.037443587654223134    
  0.0508226725004849    0.06544244034512545    0.07725146560073409    0.08186655839063764    0.05733251588326765    
  0.05459833342875487    0.047462433080855994    0.038436377480363805    0.029927275322563875    0.023269652564953783    
  0.018803436837193637    0.01631812751495208    0.015449751407763418    0.015843789374080756    0.017165157312564423    
  0.019054477147057335    0.0210207297094628    0.022531897054841002    0.023115103969142164    0.022531896001951372    
  0.021020727620802416    0.01905448137472401    0.017165154389973125    0.015843783912014856    0.01544975173814013    
  0.01631812452860251    0.018803436550731304    0.02326965484741204    0.02992726695134694    0.03843638185955684    
  0.04746240083637343    0.05459831912240399    0.05733251588326765    0.06155770878713183    0.05854174122414675    
  0.05063508589659434    0.04065942435046125    0.031318038425861554    0.024049447111174602    0.019178368931453967    
  0.01641214064889197    0.0153073825296883    0.01546037520746438    0.016511440763570626    0.018097131575969535    
  0.019769977297837617    0.021052164185821967    0.021542720992840308    0.021052168478213264    0.01976995791508641    
  0.01809713516634028    0.016511437287704635    0.015460367402489444    0.015307386808274455    0.01641213601232401    
  0.01917836999288    0.02404945382823774    0.03131802568694064    0.0406594366419917    0.05063507275643585    
  0.05854174163333581    0.06155770878713183    0.0948169272768011    0.08925149194027397    0.07493142233724716    
  0.057319715945208405    0.04140442939225022    0.029604114860999495    0.02207599489491927    0.017922270961322956    
  0.016191000093574083    0.016195212817699273    0.017414719879041803    0.019361667544192277    0.02148643018032555    
  0.023134343199512596    0.023750168826008968    0.02313434680412661    0.02148643111341545    0.0193616723365516    
  0.01741472306162082    0.01619520791220188    0.016191006058543646    0.01792226766238018    0.022075989259522984    
  0.02960411279063884    0.041404433993311014    0.057319731279153324    0.07493139977913743    0.0892515076374771    
  0.0948169272768011    0.16969946920636017    0.1580892113990244    0.12855672327148476    0.09301091214945574    
  0.06210234161042036    0.04041407000010531    0.02740614274800164    0.020637206977385796    0.01789329551241138    
  0.01779453378687113    0.01953496429336474    0.022438200629296846    0.02569447038206205    0.028266313473607568    
  0.02923255985589508    0.02826631152539611    0.025694459481731404    0.022438203329927846    0.019534964584074218    
  0.017794540319927103    0.017893298448537532    0.020637205687279784    0.027406141950181012    0.04041408103156482    
  0.062102334794266356    0.09301091298594363    0.12855672304220947    0.1580891774304848    0.16969946920636017    
  0.2908101861194241    0.27044473094378485    0.21682317093588244    0.15076188394581003    0.09418330179615991    
  0.056227117562537406    0.03473585135747216    0.024188232646384096    0.020095568271463825    0.019917698414681332    
  0.022443240031954116    0.02678325857713669    0.03175707015357646    0.0357675299752248    0.03729704842032265    
  0.0357675141055174    0.031757085434797744    0.026783260669710405    0.022443235442310694    0.01991769349079802    
  0.02009557134470561    0.024188233578062244    0.03473584061966844    0.056227122182469655    0.09418330422555024    
  0.1507618833876625    0.21682321909219499    0.27044471916019047    0.2908101861194241    0.4166082567577066    
  0.39303965899542176    0.3213664126829663    0.2216047867996069    0.13283666448585782    0.07444702425161423    
  0.042757451422914025    0.027885261396108724    0.022321276294293396    0.022084587905404903    0.02547595661259655    
  0.031421961011671135    0.038395966759933155    0.04411665256875336    0.04631977976232852    0.04411666239273279    
  0.03839596901344006    0.031421955817817704    0.025475959756392778    0.022084583049546837    0.022321287208283053    
  0.027885258750859555    0.04275744904394079    0.07444704853471139    0.13283668557067002    0.2216048615072905    
  0.32136638185387084    0.3930396658561634    0.4166082567577066    0.48237284810951414    0.4671320509248611    
  0.3998464891283466    0.28101871381649873    0.16582367328537628    0.08957631798025902    0.049170453160164836    
  0.03074771584587326    0.02401053111406326    0.023727963225468513    0.02780241012626527    0.035045270391228386    
  0.0436689669644122    0.05083139685801494    0.05360790778511838    0.05083141620972443    0.043668944876820354    