#     DFTpy    
  CRYSTAL 
    
  PRIMVEC    
  2.6422879038148244    -4.576576897631942    0.0    
  2.6422879038148244    4.576576897631942    0.0    
  0.0    0.0    8.734651034692291    
  PRIMCOORD    
  4    1    
  Si    2.6422879038148244    1.5255256325439803    0.5503659943704421    
  Si    2.6422879038148244    -1.5255256325439814    4.917691511716587    
  Si    2.6422879038148244    1.525525632543981    3.8169595229757025    
  Si    2.642287903814825    -1.525525632543981    8.184285040321848    
  BEGIN_BLOCK_DATAGRID_3D    
  3d_datagrid_density    
  BEGIN_DATAGRID_3D#0    
  23    23    41    
  0.0    0.0    0.0    
  2.6422879038148244    -4.576576897631942    0.0    
  2.6422879038148244    4.576576897631942    0.0    
  0.0    0.0    8.734651034692291    
  0.012499345180303219    0.012963032693763057    0.014453983866086921    0.0172680005188995    0.02193163856091597    
  0.02927859982217382    0.04032243125126376    0.05589850258540578    0.07571593239852147    0.09686909221478834    
  0.113723263915218    0.12023344332126225    0.11372326926956806    0.09686907864962696    0.07571594807572125    
  0.05589851152384821    0.04032243233026792    0.029278596681889875    0.021931646062948833    0.0172680021881634    
  0.014453980177205148    0.012963040181787077    0.012499345180303219    0.0129630326578015    0.012963040230160403    
  0.013941765676909513    0.01611603977626761    0.01994603756733579    0.026202458344246126    0.03603147762475054    
  0.050685302076943516    0.07073586359661886    0.09456756388422276    0.11716873433070996    0.13131166281763076    
  0.13131563183151687    0.1171658818383646    0.09455698101349583    0.07074475569040464    0.05068874301485991    
  0.0360275436071387    0.026202763509684226    0.019946161204025394    0.016115933831060563    0.01394172954716886    
  0.0129630326578015    0.014453983999863943    0.013941761783192475    0.014453866380297343    0.016116088135691813    
  0.01937269565919102    0.02506496047788719    0.0345660452635526    0.04987393253814312    0.07284198165094567    
  0.1032780168994224    0.13667140718177112    0.16374114784663418    0.17428528875730165    0.1637434396144443    
  0.1366868402087031    0.10327588332971016    0.07283002633734968    0.04987567404482878    0.03456885019868598    
  0.025064331618675075    0.01937288610792019    0.016115948958054713    0.014453983999863943    0.017267995553007457    
  0.016116039015596724    0.016116088916544945    0.017267914639945304    0.019946187488800643    0.025064052333042423    
  0.03428383249193001    0.05031940197334859    0.07669750750071641    0.11573905627304483    0.16450227839133102    
  0.21129099735061516    0.23989414516285487    0.23988395420044464    0.21127084656827783    0.16450812111150848    
  0.11574650685614402    0.07669995468736934    0.05031934752281473    0.03428102208068872    0.025064329083607496    
  0.019946162218973124    0.017267995553007457    0.02193164495645968    0.01994603705202886    0.019372695744155774    
  0.01994619715459626    0.021931703813191667    0.026203163999815836    0.03456621767687601    0.05031948840041693    
  0.07853928517617233    0.12461152586706242    0.18881220264297313    0.25751580087561904    0.3063411487114273    
  0.32257728682989506    0.306373006114234    0.2575085281959477    0.1888001775081529    0.12461758724751876    
  0.07853488581852913    0.050319362373364304    0.03456884636598732    0.026202761988816697    0.02193164495645968    
  0.029278594050634797    0.026202458045389065    0.025064960295716327    0.025064054647096917    0.02620316829746421    
  0.02927708833819521    0.03603169816251218    0.04987376391289684    0.07669832085119525    0.12461612804046504    
  0.19846027908431182    0.2843024820220168    0.34424957568901415    0.36234102230204085    0.3623296872451379    
  0.3442626389679313    0.2843297981606983    0.19844967859653814    0.12461757890591597    0.0766999693449254    
  0.049875669912392485    0.036027553699588044    0.029278594050634797    0.040322427231225234    0.036031473418292104    
  0.03456603380125953    0.03428383717168656    0.03456621066321423    0.0360316831250152    0.040319633302549805    
  0.050689172365112764    0.0728346473251227    0.11574537724898279    0.1887957020397592    0.28432567530603764    
  0.3530744474053922    0.3567465728853355    0.34360843806120767    0.35673472866969597    0.3530801217769378    
  0.28432973851177556    0.1888001112481202    0.11574647987311865    0.07283000585203864    0.050688751073867507    
  0.040322427231225234    0.0558985075572789    0.05068531977245233    0.049873938616151935    0.05031943054474508    
  0.050319478773627    0.04987376571494568    0.05068918122058416    0.05589798414308026    0.07073843622005592    
  0.1032798823496366    0.16450293749660397    0.2575176498043686    0.3442618277593109    0.35673050829005043    
  0.320009491524294    0.3200297712855418    0.35673468852748885    0.34426260083120763    0.2575084777435166    
  0.16450812875623297    0.10327588038844378    0.0707447691199482    0.0558985075572789    0.07571593128255164    
  0.07073587138800294    0.07284198374468512    0.07669750422839774    0.078539276264845    0.0766983217315646    
  0.07283464393593378    0.07073844117972704    0.07572131104303612    0.0945573112068441    0.1366849519668258    
  0.2112734141738656    0.3063679894182625    0.3622964610828907    0.3436468066751403    0.32000944804277337    
  0.34360850361471107    0.3623296702513264    0.3063729854742449    0.21127085239506796    0.1366868480996341    
  0.09455699897781443    0.07571593128255164    0.09686908834836058    0.09456756670127828    0.10327800363161797    
  0.11573906376586365    0.1246115380067348    0.12461609962716705    0.11574538501297592    0.10327985623753613    
  0.09455731173765558    0.09687344521255556    0.11716391488950403    0.16374776975854427    0.23988405084161946    
  0.32260275534710997    0.36229646495719703    0.3567304334271033    0.35674657359611023    0.3623409923167977    
  0.3225772456782652    0.23988399685946324    0.1637434376798672    0.1171659029737165    0.09686908834836058    
  0.11372325204723734    0.11716872527023539    0.1366713769184634    0.16450226618255978    0.18881213337614977    
  0.19846027344134115    0.18879573368542465    0.1645028952664071    0.13668491885960285    0.11716385397462464    
  0.11372613911117924    0.13131328497460074    0.1742872289415164    0.23988400376056151    0.3063680066052755    
  0.34426183763565926    0.353074402836435    0.3442495440838069    0.30634118918346603    0.23989409836289594    
  0.17428523583654532    0.13131560610441942    0.11372325204723734    0.12023346057635173    0.1313116482232129    
  0.1637411824508018    0.21129099691162495    0.25751577560642863    0.28430249795150236    0.28432568735891023    
  0.2575176493528194    0.21127340584616974    0.16374781142385103    0.1313133163625294    0.12023352295900194    
  0.13131331426329831    0.16374780442344078    0.21127339500331832    0.2575176681178251    0.28432569536855323    
  0.28430248942087033    0.25751581201953755    0.2112910200798808    0.1637411734073399    0.13131169605382675    
  0.12023346057635173    0.11372324657466701    0.13131561285969479    0.17428531305571715    0.2398940702713028    
  0.30634112987050927    0.3442495272170163    0.3530743905205283    0.34426179076408336    0.3063679715246255    
  0.23988403400035202    0.17428721620914928    0.13131329811452128    0.11372613744010866    0.11716388650913588    
  0.13668492587566503    0.16450290760503014    0.1887957202311657    0.19846027305019692    0.18881212809630715    
  0.16450226441781063    0.136671376376135    0.11716874909554438    0.11372324657466701    0.09686907531196173    
  0.11716587262048381    0.16374341426907651    0.23988394792265902    0.32257726075630566    0.3623410293837502    
  0.35674655024541874    0.35673039245597543    0.362296494316115    0.3226027351413197    0.23988406495775919    
  0.16374780685177365    0.11716389773745743    0.09687345325307832    0.0945573200410024    0.10327986673443186    
  0.11574535211167353    0.12461612872569003    0.12461151808049217    0.11573906686140827    0.10327799267233229    
  0.09456758665433523    0.09686907531196173    0.07571593794745626    0.09455698809539691    0.13668687372882055    
  0.21127090105606391    0.30637295647753887    0.3623296747319717    0.3436085542806785    0.3200094446316021    
  0.34364683031588883    0.3622964363268324    0.30636802279096204    0.21127340523243837    0.1366849513414616    
  0.09455731654638652    0.07572130428071032    0.07073844723816214    0.0728346509662424    0.07669832432391119    
  0.0785392908915528    0.07669749167154837    0.07284197918847458    0.07073588199691964    0.07571593794745626    
  0.05589850700873136    0.07074476787141792    0.10327587645856705    0.16450813612095533    0.2575084707379776    
  0.34426258764902057    0.35673470128260104    0.3200297644703798    0.3200094326362941    0.35673047732522767    
  0.3442618648699567    0.2575176295802265    0.16450290773699466    0.10327988943256197    0.07073845051508638    
  0.05589799405248474    0.05068917924242139    0.04987375546170551    0.05031947389692373    0.050319409808066845    
  0.049873938584233925    0.05068532749207461    0.05589850700873136    0.04032242891531893    0.05068873437610479    
  0.07283000794201533    0.11574650059889177    0.1888001505179948    0.284329746307911    0.35308016752133353    
  0.3567346399066996    0.3436084753332099    0.3567465498610719    0.3530743768316448    0.28432566872267445    
  0.18879576682216243    0.11574534924186061    0.07283463395124366    0.050689187875973124    0.04031961605570151    
  0.03603168305394114    0.03456621154223171    0.0342838292401998    0.03456603549592308    0.03603148156440333    
  0.04032242891531893    0.029278597257232884    0.03602754024915977    0.04987566392680261    0.07669997850523441    
  0.12461760151591857    0.19844971434277908    0.2843298062754584    0.3442625810324019    0.36232972524485324    
  0.36234102381166394    0.34424952329928116    0.284302437498861    0.19846028695054377    0.12461611509640366    
  0.076698319547574    0.04987377721251363    0.036031682038481096    0.029277086863503648    0.026203165632958696    
  0.02506405221720626    0.025064959678382997    0.02620246998339444    0.029278597257232884    0.021931645452443353    
  0.026202758744604118    0.03456884271782343    0.05031936264492303    0.0785349030724439    0.1246175811578581    
  0.18880016774808775    0.2575084522074345    0.30637297828263177    0.3225772973249602    0.3063411760812099    
  0.2575157874679343    0.18881216708794551    0.12461154927574113    0.07853931204962908    0.05031948751872601    
  0.03456621301225124    0.026203175318452593    0.021931696567005842    0.01994620007849596    0.019372696347919095    
  0.019946040943856738    0.021931645452443353    0.017267998088970612    0.019946155854480827    0.025064331630311142    
  0.034281016610122284    0.050319352661549605    0.07669996573236226    0.11574648993943741    0.1645081023608337    
  0.21127086136310957    0.23988395762127632    0.2398941297064524    0.21129100852970903    0.1645023067903659    
  0.11573907146391242    0.07669749771290826    0.05031941279724374    0.03428383791430244    0.02506405713430812    
  0.01994619380826312    0.017267911476579044    0.016116081664298412    0.01611604590447791    0.017267998088970612    
  0.014453984167460014    0.01611594112540715    0.019372891825640483    0.025064338325764924    0.034568851663074315    
  0.04987566653012294    0.07283002606347715    0.10327588535792204    0.1366868662527122    0.16374342906370773    
  0.17428532092739588    0.1637411427354849    0.13667139205134118    0.1032779989306386    0.0728419788789228    
  0.049873938097418254    0.034566040881620796    0.025064964134647434    0.01937269524339162    0.016116091675819972    
  0.014453862598305568    0.013941773394576876    0.014453984167460014    0.012963034754140929    0.013941726265934673    
  0.01611594375947835    0.01994616188198209    0.0262027611637694    0.03602754293043511    0.05068874550872284    
  0.07074474402054588    0.0945569779473216    0.11716587421384765    0.1313156136126927    0.13131167006706784    
  0.11716875573318924    0.09456756451779431    0.07073585796945119    0.05068530420561625    0.03603147397319725    
  0.026202467119791444    0.019946041214050792    0.016116044027924038    0.013941755383709169    0.012963049531684593    
  0.012963034754140929    0.012499345180303219    0.012963032693763057    0.014453983866086921    0.0172680005188995    
  0.02193163856091597    0.02927859982217382    0.04032243125126376    0.05589850258540578    0.07571593239852147    
  0.09686909221478834    0.113723263915218    0.12023344332126225    0.11372326926956806    0.09686907864962696    
  0.07571594807572125    0.05589851152384821    0.04032243233026792    0.029278596681889875    0.021931646062948833    
  0.0172680021881634    0.014453980177205148    0.012963040181787077    0.012499345180303219    0.012346081857676123    
  0.012805970216234447    0.014279233864427684    0.01704853050664777    0.021624578208805555    0.028821464606857024    
  0.03961036113373099    0.05481276170564648    0.07410819391600174    0.09460915798077695    0.11092459091961929    
  0.11723012884491672    0.11093221100737344    0.09461016627598186    0.0740862214303344    0.05481790741396375    
  0.03962065121475953    0.02881881093357689    0.021624393738713492    0.017048276667291126    0.014279353709875011    
  0.01280590586764574    0.012346081857676123    0.01280590055511459    0.012805851025900688    0.013736091714667912    
  0.01578670460556722    0.01934579655187575    0.025067337038387674    0.033892348577139644    0.046738838981341006    
  0.06397234671910904    0.08418230174691162    0.10313352664646193    0.11492281851850868    0.11492416218267541    
  0.10312665103338635    0.08417912726077312    0.06399179304033371    0.04673637551155172    0.033882628214050824    
  0.025069348264143396    0.019346214063973147    0.015786682034053406    0.013736002746003076    0.01280590055511459    
  0.014279359362113452    0.013812055511127932    0.014279202963322274    0.01578687250809413    0.01869352147230541    
  0.023648917407286064    0.031653985337225035    0.04413068155880019    0.06228082731652493    0.08568740600115492    
  0.1108861867123523    0.13110657973313555    0.1389573217243753    0.13110684057662828    0.1108939761838931    
  0.0856898497717909    0.06226216055338215    0.04413269522049626    0.03166295318619037    0.023646934678037874    
  0.01869347983009759    0.015786696229973977    0.014279359362113452    0.017048273223845837    0.01604714674731132    
  0.01604714352238743    0.017048297811551403    0.019345914603644786    0.02364562099599653    0.031136613229386215    
  0.043642377874380765    0.06346770367560668    0.09193132308980717    0.12677862948096894    0.1602409933510313    
  0.18105255613898333    0.18105047690275758    0.16023821496003793    0.12677534062602486    0.09192929630176074    
  0.06348352251536171    0.04364174838343417    0.03112767121101655    0.023646930342541457    0.019346217003252557    
  0.017048273223845837    0.021624388895565654    0.02001261216321652    0.01954290137164901    0.020012731072610195    
  0.021624735424044285    0.025070614771881824    0.03165382293889122    0.04364198294795881    0.06435124360962159    
  0.09701122488003407    0.1418844942519852    0.19156199530950072    0.2306172225540434    0.2452062642753347    
  0.2306236002337468    0.19156050058346588    0.14188663895610965    0.09701632564507207    0.06433547003483221    
  0.04364176198066663    0.03166294805665878    0.025069349915703025    0.021624388895565654    0.028818811081611384    
  0.026559322012186214    0.025761955780299342    0.025761582386858228    0.026558968170287994    0.028817449147439868    
  0.0338927174869596    0.04413159096626561    0.06346847979706723    0.09702136790617902    0.1481356611519834    
  0.21168762324525534    0.26898441595858597    0.30049362632141    0.30049411054811614    0.26898992548548484    
  0.21169300447434106    0.14813250669848324    0.09701631631596223    0.06348353260553655    0.044132687303101124    
  0.03388263594155636    0.028818811081611384    0.03962063780846017    0.036986651447352935    0.036391022955996576    
  0.03637882385891054    0.03639200265695776    0.03698732650409719    0.03960973467370605    0.04673798576213361    
  0.06227825527242017    0.0919230856692495    0.14188348590937214    0.2116912880213743    0.28274922871734637    
  0.32742677275992693    0.34017710376767035    0.3274224671488772    0.28275278855696867    0.21169298734638095    
  0.14188660161709066    0.09192927421518843    0.06226214426184836    0.04673638400458902    0.03962063780846017    
  0.05481790747078019    0.05278812532359333    0.05392821337614876    0.055372140173147434    0.055371520654784304    
  0.053926771127785315    0.052803259682042976    0.05481435392296175    0.0639749170912443    0.08569641728812272    
  0.12677677422220907    0.19156289908876065    0.26898747884324903    0.3274202603471621    0.3494995372243675    
  0.34950166936359306    0.32742246852258017    0.26898993723528225    0.19156049378497964    0.12677534154345635    
  0.08568983944890979    0.06399181354581374    0.05481790747078019    0.07408620327390394    0.07468939872207958    
  0.08080893147194877    0.08742043657249107    0.09025483131263062    0.08742152721455218    0.08078804027006513    
  0.07469354246413117    0.07410662443951747    0.08417280274146825    0.11089086438051557    0.16023852613398487    
  0.2306211487642829    0.30048648345683454    0.3401821532630228    0.34949954505799175    0.34017708563436017    
  0.30049409020963563    0.2306235711465026    0.16023822380209424    0.11089397396323343    0.08417915800768326    
  0.07408620327390394    0.09461014819589417    0.10094848395788902    0.11708882340213918    0.1358065310799086    
  0.14840025349161726    0.14840319571464355    0.13583848127207557    0.11708416409843768    0.10092328146305897    
  0.09461784004003684    0.10312985969120754    0.1311081261829309    0.1810504597091094    0.24521108309127587    
  0.3004864927523804    0.32742022163416223    0.32742675676369354    0.30049357948229055    0.24520620805944573    
  0.18105049221557823    0.13110681506797478    0.1031266896675737    0.09461014819589417    0.110932206874174    
  0.12600666397580193    0.15734296273181692    0.196520861112561    0.2287703060456948    0.24102988913590323    
  0.22871425247012916    0.19652560567693936    0.1573815945156428    0.1259957819109533    0.11093034681826261    
  0.11492375198389024    0.138958519145516    0.18105043661568923    0.23062111458912374    0.2689874217466076    
  0.28274914134357476    0.2689843471268809    0.23061720444760364    0.1810525469390928    0.1389572737208173    
  0.11492416677682053    0.110932206874174    0.11723009186453781    0.1417133432989476    0.19003171903106317    
  0.25344828128815805    0.3076407186513282    0.33336919446977137    0.3334421332997813    0.30764428083214773    
  0.253395310904819    0.19004579951798234    0.14172178246190256    0.11722813461439646    0.1149237720859129    
  0.13110813897387935    0.16023852530468097    0.19156295103030416    0.21169133900521042    0.21168763259212506    
  0.19156200345477625    0.16024104099031036    0.13110660734411778    0.11492282841208873    0.11723009186453781    
  0.11092456681985678    0.14172487481948048    0.20271566907119146    0.28676013017579494    0.3520327102216504    
  0.3621672430207731    0.35318563837873446    0.3621939912099095    0.3521058069334549    0.2867386056488428    
  0.2027130326025948    0.1417217481710784    0.11093036752199334    0.10312983513494843    0.11089085510193464    
  0.12677678851572638    0.14188348563201986    0.1481356497410913    0.141884468869377    0.12677864133581973    
  0.11088615070596726    0.1031335392552164    0.11092456681985678    0.09460915735417022    0.12600626750180552    
  0.19003349311133602    0.2867387757576407    0.36239739768090623    0.3392141827821494    0.27420655212826794    
  0.2741715490806111    0.3391056138389269    0.36246567906023697    0.2867386427004515    0.19004577077727458    
  0.12599578301215317    0.09461784623738471    0.08417280209254553    0.08569639918528255    0.09192310003656418    
  0.09702138302657536    0.0970112119729695    0.0919313234066474    0.08568740413602081    0.08418231397521794    
  0.09460915735417022    0.074108186628432    0.1009182940211274    0.15738625320697644    0.2533844852202934    
  0.35212355772307063    0.33917273341261617    0.2278809547632641    0.17427991868159023    0.22797084597601686    
  0.33910561747171136    0.352105791213379    0.253395294766436    0.1573816462634649    0.10092328911616932    
  0.07410662328285919    0.06397492080889819    0.062278260603695186    0.06346847903603847    0.06435124018548091    
  0.06346769905880557    0.06228082020463446    0.0639723566840119    0.074108186628432    0.05481274550434332    
  0.07469735794740776    0.11707867674686392    0.1965387214961732    0.3076236589363871    0.3621789693387188    
  0.2741944811577387    0.1743227954783228    0.17427995033216753    0.27417156863545034    0.36219399811082725    
  0.3076442830133603    0.19652563371052195    0.1170841787627058    0.07469354482712418    0.05481435875784703    
  0.04673799851462054    0.044131594432789786    0.043641967840769916    0.04364238330516076    0.04413068921152619    
  0.046738850766984766    0.05481274550434332    0.03961035272395587    0.05280232563937234    0.0807886969940555    
  0.13583566520943355    0.22872490773968485    0.33345694730804687    0.3531749493531642    0.2741944388038764    
  0.2278809270427657    0.2742064904707991    0.35318567889552255    0.33344207542145876    0.22871425714639643    
  0.1358384529834755    0.08078802870010675    0.05280326008860529    0.03960971861508345    0.033892706585010604    
  0.03165380593793905    0.031136604339938156    0.03165398369580616    0.033892350051064064    0.03961035272395587    
  0.028821463340476812    0.036982118028820996    0.05393318359424807    0.0874122081550643    0.14841548225355314    
  0.24098976502043967    0.3334569939488722    0.3621790239859337    0.3391727465087417    0.33921424309038867    
  0.36216726640613456    0.33336918762562867    0.24102992459290823    0.14840318409323017    0.08742152760405245    
  0.05392678148319222    0.03698732192588068    0.02881744989401611    0.025070617795568746    0.023645623106905343    
  0.02364892090449234    0.025067352858990647    0.028821463340476812    0.02162458521645713    0.02655905248503626    
  0.03639203309699757    0.055371972587881575    0.09025487122283353    0.14841549448098737    0.22872496257497021    
  0.3076236957223182    0.3521235892776037    0.36239749071308874    0.35203274929460654    0.3076407511937302    
  0.22877031830788133    0.14840027735107683    0.09025486419480208    0.05537153278169983    0.03639200227991628    
  0.026558973963787688    0.021624725758181768    0.019345921047726814    0.018693520061601607    0.019345799260396514    
  0.02162458521645713    0.017048525693909987    0.02001249057620136    0.02576179746936743    0.036377815989081394    
  0.05537194844766322    0.0874121804543505    0.13583565892406554    0.1965387093343238    0.25338446146061544    
  0.28673876786222796    0.286760145626833    0.2534482754099871    0.19652087789176118    0.13580652529610612    
  0.08742043051475533    0.055372125983534894    0.03637881955475107    0.02576158313107256    0.020012729718551222    
  0.017048290523261907    0.015786864516629463    0.01578671362168675    0.017048525693909987    0.014279233761228674    
  0.01604713957812615    0.019542970240577065    0.02576179881108428    0.03639203720205768    0.0539331901569992    
  0.08078870988133646    0.11707868354724683    0.1573862594286665    0.19003348206551038    0.2027157108073501    
  0.19003171359199378    0.15734299965909745    0.11708882723545763    0.08080892890098312    0.05392821546045192    
  0.03639103047914054    0.02576195989320396    0.01954290103016335    0.016047144150863446    0.014279196658208305    
  0.013736096245161098    0.014279233761228674    0.012805973778189388    0.013811898627140605    0.01604713859668717    
  0.020012494617809178    0.026559052400191015    0.036982113211577405    0.052802337854762856    0.07469734313843851    
  0.1009182961720518    0.12600626093727363    0.14172487276694265    0.1417132987636852    0.12600668496467876    
  0.1009484790365973    0.07468939624238521    0.052788116770886045    0.03698665118830762    0.026559329353027003    
  0.020012619940371568    0.016047151835371604    0.013812052074034995    0.012805857511012268    0.012805973778189388    
  0.012346081857676123    0.012805970216234447    0.014279233864427684    0.01704853050664777    0.021624578208805555    
  0.028821464606857024    0.03961036113373099    0.05481276170564648    0.07410819391600174    0.09460915798077695    
  0.11092459091961929    0.11723012884491672    0.11093221100737344    0.09461016627598186    0.0740862214303344    
  0.05481790741396375    0.03962065121475953    0.02881881093357689    0.021624393738713492    0.017048276667291126    
  0.014279353709875011    0.01280590586764574    0.012346081857676123    0.011918073613232702    0.012361498164638078    
  0.013775533852820137    0.016417320803548893    0.020747958258495017    0.027509498295184443    0.0375692970818413    
  0.05166799557254792    0.06941547191876668    0.08809748454000342    0.10289931353251631    0.1086124766629595    
  0.10291324162597107    0.08810093302532519    0.06938185147821296    0.05167345643104715    0.03758715676687191    
  0.027505255563561523    0.02074736573649629    0.016416946160485918    0.013775734079322529    0.012361351291161395    
  0.011918073613232702    0.012361344554959013    0.012361005242804252    0.013225864520195073    0.015109275115716383    
  0.018309143791633096    0.02334579233474508    0.030947918908981985    0.04170233434536083    0.05577466676040174    
  0.071978303533076    0.08694905022198991    0.09617960687312542    0.09618025829195945    0.08693832639306615    
  0.07197489507234574    0.055802310601517656    0.04169898199104912    0.030932123413130296    0.023349313839354242    
  0.01830978126387768    0.015109587643659982    0.013225514288476455    0.012361344554959013    0.013775738687714766    
  0.013358171199288909    0.013775606609619526    0.01510974295978837    0.017614599966664316    0.02174949431526231    
  0.028184158017633777    0.03782449289289406    0.0513103075547827    0.0681217052774973    0.08578197728436757    
  0.09973630097441154    0.10511347297656917    0.0997354389913751    0.08579171590411137    0.06812548329843117    
  0.051285466514108285    0.03782661262635956    0.02819848039974618    0.02174662298458842    0.017613931476946624    
  0.015109600337067543    0.013775738687714766    0.01641694316990859    0.015572247865130132    0.015572383226770167    
  0.016416828969421125    0.018309068052627286    0.021744257590453363    0.02750117128823732    0.0366422273164452    
  0.050477941317026    0.06958938280093369    0.09223767985935097    0.1135814083759488    0.12679940057384384    
  0.1267993485007226    0.11358173379776228    0.09222964177195248    0.06958514608246412    0.05050069613249487    
  0.03664176772562153    0.02748678246872956    0.021746620173846265    0.018309785275662835    0.01641694316990859    
  0.020747362071293796    0.019514543534314293    0.019148490836298396    0.019514569176496556    0.020748479987688077    
  0.023351082865860098    0.02818411420158623    0.03664202080994501    0.05061435906376669    0.07169800526735637    
  0.09972124864521659    0.13041502339537547    0.15499775279446035    0.164440859282249    0.15499982115584204    
  0.13041373124227054    0.09972843826056026    0.07170359071884089    0.05059168740366051    0.036641776786698936    
  0.02819848098655949    0.02334931345490315    0.020747362071293796    0.027505258208305502    0.026046136514624826    
  0.025571765268521368    0.025571507082148028    0.02604488962891216    0.027503340946981553    0.030948166613819068    
  0.037825078462208235    0.05047881572647979    0.07170967877954733    0.10301911311244184    0.14190819029737203    
  0.17913856079960705    0.20202522851634253    0.20202596969561076    0.179139501624877    0.14191106152181576    
  0.10301294249666507    0.07170358362061832    0.05050070738622043    0.03782661109784918    0.030932131967118928    
  0.027505258208305502    0.0375871563039331    0.03650120425048758    0.03668209000548471    0.03689710812860133    
  0.03668400718963247    0.03650284301367008    0.037568783470464426    0.0417014763466461    0.05130832929819492    
  0.0695779475155749    0.09972236970295087    0.14191134503282443    0.1886389846045831    0.22520087737098324    
  0.23886071679063278    0.22519954385526691    0.18863951203856105    0.1419110353232561    0.09972839046495917    
  0.06958512482591456    0.05128544152702249    0.04169898138852682    0.0375871563039331    0.05167346282647902    
  0.052450102764576824    0.055235365213675176    0.05746090306823248    0.05745781801748623    0.055233532206963566    
  0.05247412187945686    0.05166923156407082    0.05577778594594226    0.0681327865005098    0.09223593533331692    
  0.13041317341991282    0.17913820804216332    0.22519770582885087    0.2523916038538525    0.25239363476360155    