#     DFTpy    
  CRYSTAL 
    
  PRIMVEC    
  1.5361802708099943    -2.6607422786278274    0.0    
  1.5361802708099943    2.6607422786278274    0.0    
  0.0    0.0    2.8915879055172407    
  PRIMCOORD    
  1    1    
  Si    0.0    0.0    0.0    
  BEGIN_BLOCK_DATAGRID_3D    
  3d_datagrid_density    
  BEGIN_DATAGRID_3D#0    
  15    15    13    
  0.0    0.0    0.0    
  1.5361802708099943    -2.6607422786278274    0.0    
  1.5361802708099943    2.6607422786278274    0.0    
  0.0    0.0    2.8915879055172407    
  0.06728292901442927    0.11112346554228246    0.2586891984175082    0.39226698390437265    0.35476560244842026    
  0.24868551556930527    0.17762687214808437    0.15535560384932387    0.17762686303053077    0.24868552376703276    
  0.3547655861931432    0.3922669770639344    0.258689229007833    0.11112344678678743    0.06728292901442927    
  0.11112344125716536    0.11114419191933907    0.21103713093290818    0.3617343447749627    0.38658791090315453    
  0.2904343074379751    0.199709653068439    0.15594112006813918    0.155934934631279    0.1997143808896399    
  0.29043452813044546    0.38659343615638747    0.3616969438130014    0.2110749264923551    0.11112344125716536    
  0.25868923394825566    0.2110371709079061    0.258690730196085    0.36172849787712946    0.39324803387998064    
  0.3134539973435962    0.2164450237575673    0.157344429376711    0.139033233611844    0.15734536468799373    
  0.2164432526344727    0.3134424438387993    0.39329300979568454    0.36169695889452386    0.25868923394825566    
  0.3922669881078507    0.36173434014844036    0.3617285071800075    0.3922643123526016    0.3865736764225668    
  0.31347392004556845    0.22276821958224907    0.15862628534671772    0.12859893304420617    0.12860347957347182    
  0.15862245362759683    0.2227797784157707    0.31344238272459324    0.38659341121183616    0.3922669881078507    
  0.35476562331738193    0.3865879144397588    0.3932480230056707    0.3865736774027443    0.35477463222830036    
  0.2904483591990444    0.21642348903324465    0.15862488188632906    0.12507583841539266    0.11434735015368122    
  0.1250733926496271    0.15862246424712478    0.21644328189090145    0.29043447837380737    0.35476562331738193    
  0.24868552312027628    0.2904343390878181    0.3134539926622033    0.31347391937524954    0.29044837200794377    
  0.24866647428476346    0.19970787277809998    0.15736150621460046    0.1286022211401025    0.1143429663268258    
  0.11434734451194205    0.1286035054137279    0.15734535146880968    0.19971438898632465    0.24868552312027628    
  0.1776268623561488    0.1997096522900854    0.21644500011235515    0.22276819171808004    0.21642348361727823    
  0.19970784915092205    0.1776425185143986    0.15593836936947297    0.13901751443218668    0.12860219353190233    
  0.1250758072780966    0.1285989403653182    0.13903324879096451    0.15593494479169231    0.1776268623561488    
  0.15535560356347672    0.1559411456734638    0.15734440745380399    0.15862626220334955    0.15862488642953707    
  0.1573614671471008    0.15593837336203623    0.1553429238909693    0.15593836396591193    0.15736147928045682    
  0.1586248832377914    0.15862627580280755    0.1573444195133168    0.15594111218519172    0.15535560356347672    
  0.1776268697408272    0.15593494760865262    0.1390332216852666    0.12859893124285057    0.12507581257759712    
  0.12860222400281618    0.1390175189871825    0.15593836018754867    0.17764250330038336    0.19970784622422036    
  0.21642349427090818    0.22276822252458287    0.21644500799746105    0.1997096446475404    0.1776268697408272    
  0.2486855270707954    0.19971441739233853    0.15734536076964922    0.1286034786194828    0.11434736206339    
  0.11434295128904454    0.12860222419817247    0.15736149773433805    0.19970785468987184    0.24866651329611303    
  0.29044837478539    0.31347394641353826    0.31345398382577355    0.2904343299154049    0.2486855270707954    
  0.3547656055020814    0.2904344997599531    0.21644329676180035    0.15862245072201123    0.1250734029354957    
  0.11434735957664328    0.12507582168685757    0.15862488028210592    0.21642349569833869    0.29044839738412165    
  0.3547746409411627    0.3865736859899581    0.3932479900836137    0.3865879258407036    0.3547656055020814    
  0.39226700631579103    0.3865934275568201    0.3134423975786512    0.22277975291119784    0.15862245251135318    
  0.12860347541216277    0.12859893539791492    0.15862627519542113    0.222768224420928    0.31347393795633993    
  0.3865736652843065    0.39226435672200544    0.3617284668024892    0.36173430167444476    0.39226700631579103    
  0.25868923915330105    0.36169698991346627    0.39329303511763036    0.3134424166962257    0.21644328535841187    
  0.15734535096814123    0.13903323832332523    0.1573444260999845    0.21644503357324144    0.31345402502812164    
  0.3932479868259732    0.3617284982915061    0.2586907360568338    0.21103714844353208    0.25868923915330105    
  0.11112344352267414    0.21107490429776574    0.3616969463761896    0.386593427991871    0.2904344940140542    
  0.19971439209124198    0.1559349526014589    0.15594113133350274    0.19970965000328186    0.29043430027717176    
  0.3865878909949018    0.36173435121925035    0.2110371639558205    0.11114419522120234    0.11112344352267414    
  0.06728292901442927    0.11112346554228246    0.2586891984175082    0.39226698390437265    0.35476560244842026    
  0.24868551556930527    0.17762687214808437    0.15535560384932387    0.17762686303053077    0.24868552376703276    
  0.3547655861931432    0.3922669770639344    0.258689229007833    0.11112344678678743    0.06728292901442927    
  0.12146613009970408    0.1714506205866877    0.3083128977287299    0.3967640785382771    0.3365943608223916    
  0.23326329004115465    0.1671588916057161    0.14653775923928647    0.1671588870806671    0.23326329865146658    
  0.3365943846924845    0.39676405621178223    0.3083129196897262    0.17145060514604085    0.12146613009970408    
  0.17145061487033586    0.17145005369967395    0.2679837779209996    0.3825852780536282    0.3726832516649781    
  0.27277541335369565    0.1876717582597699    0.1471312277114016    0.14712985785075589    0.18767119603805216    
  0.27277921260221155    0.3726839338072681    0.3825564042912587    0.2680105021089863    0.17145061487033586    
  0.3083129121347275    0.26798381070510047    0.30833912970578087    0.382571292506632    0.3821893164158294    
  0.294997593892289    0.20325387141300588    0.14855259443103294    0.1315939465235515    0.14855360932096098    
  0.20325370476078528    0.29498831149063925    0.38222486097565994    0.3825564051611009    0.3083129121347275    
  0.39676408238289956    0.38258521811368157    0.38257130294377384    0.39674681970156567    0.37267309433874724    
  0.29501672974937615    0.2091371733115147    0.14983089155520277    0.12206079078770357    0.12206621146967069    
  0.149824584749576    0.20914879076567328    0.2949882893135068    0.37268392762072655    0.39676408238289956    
  0.33659441439691    0.37268327088494285    0.38218930355912595    0.37267312336794106    0.3366167673163547    
  0.27278345309892077    0.2032372435579586    0.14982666839847708    0.11886387692635907    0.10893405478698147    
  0.11886291785543045    0.1498246090789241    0.20325372478101117    0.27277919850179166    0.33659441439691    
  0.2332632993932542    0.2727754580829754    0.2949975945163993    0.29501674251880416    0.2727834578160852    
  0.23324013693635734    0.18766871632605567    0.14856918377216446    0.12206266851031816    0.10893405391057802    
  0.10893404410151485    0.12206622929365933    0.1485536076495865    0.18767117490629268    0.2332632993932542    
  0.16715888525237588    0.18767173927918418    0.20325385408514143    0.20913716685096476    0.20323724041360267    
  0.1876687002965303    0.16717970786691816    0.14712837148469607    0.13158208639249605    0.12206264921728564    
  0.11886385453006067    0.12206080337113148    0.1315939548892702    0.1471298692041369    0.16715888525237588    
  0.14653774778691453    0.14713125096011245    0.14855257171888772    0.1498308840502659    0.1498266753097106    
  0.14856914621466003    0.1471283608690836    0.14652369272188762    0.14712836712210775    0.14856915687409422    
  0.1498266641927499    0.1498308917686419    0.1485525930066176    0.14713122222110298    0.14653774778691453    
  0.16715886876003103    0.1471298631503413    0.13159394137486238    0.12206079291683491    0.11886386054303166    
  0.12206266628637441    0.1315820895156387    0.14712836640961974    0.16717969083335418    0.18766870877416672    
  0.20323726446595136    0.20913718304791704    0.20325387839671755    0.18767175072324005    0.16715886876003103    
  0.23326334152586614    0.1876712026031089    0.14855360667913015    0.12206620336413139    0.10893405646287495    
  0.10893404068413491    0.12206267481222867    0.14856917288475607    0.18766871285909353    0.2332401320850212    
  0.2727834564158806    0.2950167483431491    0.29499758155304023    0.27277542950672745    0.23326334152586614    
  0.33659439477219844    0.27277916907997457    0.2032537276225867    0.14982459709264542    0.1188629322598188    
  0.10893405150523378    0.11886387757449125    0.14982667409359104    0.2032372574790796    0.2727834878930705    
  0.3366167464701117    0.37267312523885937    0.38218929133388724    0.37268324750605164    0.33659439477219844    
  0.3967640644637631    0.37268392388934046    0.29498829209063204    0.20914877928401326    0.14982459984802102    
  0.12206620907044774    0.122060797253771    0.14983089186326448    0.20913717426289696    0.29501672081938823    
  0.37267308552017825    0.3967468517946166    0.38257127877389757    0.3825852335905746    0.3967640644637631    
  0.30831293888060307    0.3825564313615141    0.3822249077330842    0.2949882909997123    0.20325371185208818    
  0.14855359815242536    0.13159395877892724    0.14855258777396937    0.20325386956775082    0.2949976197817732    
  0.38218929388778355    0.3825713017985665    0.3083391256508601    0.26798378443870485    0.30831293888060307    
  0.1714506241962079    0.2680104793599536    0.38255639910386113    0.3726839391097825    0.27277920165064673    
  0.1876711890255516    0.14712986929423705    0.14713123867133865    0.18767173699378864    0.2727754003982709    
  0.3726832471494331    0.3825852904977275    0.2679837909013671    0.17145006830450915    0.1714506241962079    
  0.12146613009970408    0.1714506205866877    0.3083128977287299    0.3967640785382771    0.3365943608223916    
  0.23326329004115465    0.1671588916057161    0.14653775923928647    0.1671588870806671    0.23326329865146658    
  0.3365943846924845    0.39676405621178223    0.3083129196897262    0.17145060514604085    0.12146613009970408    
  0.2976702332184316    0.3329113919417168    0.3908890846310185    0.37445880323609576    0.28328900243792104    
  0.19371637887858917    0.14092930719270794    0.12452841158378752    0.1409293059029935    0.1937163853865614    
  0.28328900120929096    0.37445878604626615    0.39088910183518283    0.33291136135175997    0.2976702332184316    
  0.3329113603378834    0.3328888960535209    0.3791297214695685    0.39189357794506    0.3226005333208664    
  0.22635093090632982    0.15729367477780076    0.12508497843221858    0.12508730288786296    0.15729019424392127    
  0.22635624872033358    0.3225956541892612    0.3918867825326732    0.37913277973136617    0.3329113603378834    
  0.39088910415305783    0.3791297825532281    0.3909180083088651    0.3918845067178232    0.3358628216698589    
  0.2455308789613575    0.16981871668523224    0.12638447081909593    0.11285510566347927    0.1263849161395963    
  0.16981847994947738    0.2455287046799054    0.33587461540180447    0.3918867853694919    0.39088910415305783    
  0.37445879925424846    0.39189352251211507    0.39188450877951225    0.3744413847618261    0.32259865225834766    
  0.24553652126184328    0.17457415401285073    0.12749621998075147    0.10538652395291226    0.1053877803680119    
  0.12749518548831018    0.17457581090671948    0.2455286802750719    0.3225956409487162    0.37445879925424846    
  0.2832890438985674    0.3226005725402219    0.3358627751762051    0.32259868036888406    0.28330240063363665    
  0.2263555314252931    0.16981182430709196    0.1274954105165581    0.1028875445943325    0.09493175287715394    
  0.10288687918557599    0.12749521171091566    0.16981849267564908    0.2263562273510545    0.2832890438985674    
  0.19371639011698097    0.22635094526740906    0.24553087871170978    0.24553653399954734    0.2263555396622697    
  0.193701940410245    0.15729221950482952    0.12639113962659262    0.10538596349741716    0.09493249790377085    
  0.0949317368959864    0.10538778367152557    0.12638490361014248    0.15729020139144873    0.19371639011698097    
  0.14092930757583857    0.15729364797015621    0.16981870500360774    0.17457414438982471    0.16981182522891847    
  0.15729222892519523    0.14094127245673999    0.12508326134044484    0.11285248026416123    0.10538594395920395    
  0.10288752245340405    0.10538653659852544    0.11285511163344192    0.12508731538272108    0.14092930757583857    
  0.12452840785744239    0.12508499346765575    0.12638444887913625    0.12749621940194433    0.12749541337932385    
  0.12639110571142295    0.1250832499876755    0.12452255960472057    0.12508325512074764    0.1263911237678483    
  0.1274954076052556    0.12749622334099886    0.1263844619246131    0.12508497614066028    0.12452840785744239    
  0.14092931056918181    0.12508731212241975    0.11285509268555155    0.10538652481582107    0.10288752328515997    
  0.10538595797777969    0.11285248034180853    0.12508325229529965    0.1409412553628337    0.15729221713381136    
  0.16981182077892198    0.1745741585284774    0.16981871154955122    0.1572936635184616    0.14092931056918181    
  0.19371640669716894    0.15729021629341014    0.1263849152555787    0.10538776498527763    0.09493174699612134    
  0.09493247976941832    0.10538597478505522    0.12639112998350496    0.15729221434233007    0.1937019586288787    
  0.22635552019329763    0.24553655163171048    0.24553085624698562    0.22635095136764813    0.19371640669716894    
  0.28328901666722917    0.22635619606871096    0.16981851252003644    0.1274951962560349    0.10288688770220239    
  0.09493175091246818    0.10288754095588824    0.12749541291321984    0.1698118289099372    0.22635555403962607    
  0.2833023996622588    0.32259864956839995    0.33586278508128603    0.3226005424000273    0.28328901666722917    
  0.3744588007852597    0.32259566460564404    0.24552868718526163    0.17457580825725744    0.127495192753726    
  0.10538776404625273    0.10538653153268007    0.12749621589165175    0.17457416125120562    0.24553653061852335    
  0.32259865051903647    0.3744414381196154    0.3918844761464739    0.391893539175795    0.3744588007852597    
  0.39088910932897486    0.3918868321966021    0.33587465231314373    0.24552868319609858    0.1698184724105697    
  0.12638490884090461    0.11285510939498633    0.12638446772012005    0.1698187281937867    0.2455308943910204    
  0.3358627638110605    0.3918845016203948    0.39091802757355193    0.37912976742814325    0.39088910932897486    
  0.33291137532654697    0.37913274065231894    0.39188676692887153    0.32259563948269865    0.2263562231741559    
  0.15729021062463702    0.12508731382099086    0.12508498667066334    0.15729367155052598    0.22635090824441256    
  0.32260055224126066    0.39189358291871385    0.3791297641489814    0.3328889226151294    0.33291137532654697    
  0.2976702332184316    0.3329113919417168    0.3908890846310185    0.37445880323609576    0.28328900243792104    
  0.19371637887858917    0.14092930719270794    0.12452841158378752    0.1409293059029935    0.1937163853865614    
  0.28328900120929096    0.37445878604626615    0.39088910183518283    0.33291136135175997    0.2976702332184316    
  0.4119729183297627    0.40561228723088616    0.3709575109585955    0.29714666180135807    0.21198027901098376    
  0.14682685454295358    0.11003636836957893    0.09849834757365722    0.11003637071838931    0.14682684771512194    
  0.211980277475617    0.2971466446063813    0.37095751569707314    0.4056123091476281    0.4119729183297627    
  0.40561227246954473    0.40560294059751284    0.3843641539420808    0.3267275500310697    0.24427047407346594    
  0.1699847304227236    0.12150773729817971    0.09896368145541369    0.09896386190985317    0.1215073402896592    
  0.1699854500209136    0.2442687595023043    0.3267267079091046    0.3843628770511334    0.40561227246954473    
  0.3709575612365852    0.38436420639334296    0.3709665220953513    0.32672299995322257    0.2564116222804528    
  0.18403917848566143    0.13032047487198709    0.09998737635139636    0.09042590550817071    0.09998790294499098    
  0.1303193991747922    0.18404137593083408    0.2564121558190068    0.32672672714330375    0.3709575612365852    
  0.2971466806210797    0.3267275420990729    0.32672297843803727    0.29714490753968603    0.24426985102578044    
  0.18404331056956838    0.13366584713547508    0.10081371395475024    0.08522313537188655    0.08522229015649707    
  0.1008146000837804    0.13366463573524828    0.18404135041587333    0.24426875766650827    0.2971466806210797    
  0.21198030412584457    0.24427051423739563    0.2564116310559489    0.24426986259888947    0.21198234915344055    
  0.16998378392583338    0.13031770761121422    0.10081381601348469    0.08348895653375799    0.07783542045188285    
  0.08348852804366008    0.1008146142052811    0.1303194237163486    0.16998541082173377    0.21198030412584457    
  0.14682685029749387    0.16998475076027583    0.18403916127762845    0.1840433266058137    0.16998379746605663    
  0.14682621211371755    0.1215087791954394    0.0999891233770924    0.08522340757738235    0.07783405448551226    
  0.07783541479769597    0.085222307312082    0.09998789699254006    0.12150734854095246    0.14682685029749387    
  0.11003637419981582    0.12150771004106359    0.13032046218685703    0.13366583751001782    0.13031769515694677    
  0.12150876520751697    0.1100355183506165    0.09896372105761685    0.09042379734215394    0.08522338084841061    
  0.0834889306108574    0.08522314330273341    0.09042591220686197    0.09896386994050975    0.11003637419981582    
  0.09849834397886258    0.09896369627530187    0.09998736244607265    0.10081369973373765    0.1008138164948605    
  0.09998909876444023    0.09896372427521359    0.09849899099361602    0.09896371764048292    0.09998910799171687    
  0.10081380887808875    0.10081370002662274    0.0999873677865372    0.09896368119775846    0.09849834397886258    
  0.1100363709953294    0.09896385952807206    0.09042589609929871    0.08522313829454169    0.08348894155615522    
  0.08522340544582106    0.09042379661857863    0.0989637105007973    0.11003551442121391    0.12150876434777362    
  0.13031770975514106    0.13366586043634723    0.13032047414113596    0.12150772296633285    0.1100363709953294    
  0.1468268652108409    0.12150735766979069    0.0999879002833521    0.08522229062072642    0.07783542748764254    
  0.07783404036572718    0.08522340504686925    0.09998911723080588    0.12150877524955321    0.1468262297491665    
  0.1699837730054453    0.18404334224356686    0.18403915543953048    0.16998474912005748    0.1468268652108409    
  0.21198028536696611    0.16998543779981096    0.1303194376638488    0.10081460077645973    0.0834885326516765    
  0.07783542507688607    0.08348894448767175    0.10081381210011926    0.13031770859725933    0.16998379528333418    
  0.2119823596416319    0.244269861818966    0.25641160802951174    0.24427048241182708    0.21198028536696611    
  0.2971466780270539    0.24426876052324878    0.18404134639021505    0.13366462180838612    0.10081460208631915    
  0.0852222816220926    0.08522313949282467    0.10081370919943478    0.13366586185129972    0.18404333305738949    
  0.2442698442170768    0.2971449288076532    0.32672300206603977    0.3267275118232091    0.2971466780270539    
  0.3709575408449201    0.32672674926580453    0.25641218982655706    0.18404135454567086    0.13031942167235755    
  0.09998789278947322    0.09042590204206909    0.099987379573122    0.1303204769691261    0.18403919268300678    
  0.25641162524603855    0.3267230340766164    0.3709665481529775    0.3843641811238881    0.3709575408449201    
  0.40561228145820744    0.38436286694647726    0.3267267223371929    0.24426876311409493    0.16998543711302877    
  0.12150735745163056    0.09896386890087663    0.09896369006840418    0.1215077220773957    0.16998472863828892    
  0.24427048271841229    0.3267275567565006    0.3843641805221583    0.4056029630978586    0.40561228145820744    
  0.4119729183297627    0.40561228723088616    0.3709575109585955    0.29714666180135807    0.21198027901098376    
  0.14682685454295358    0.11003636836957893    0.09849834757365722    0.11003637071838931    0.14682684771512194    
  0.211980277475617    0.2971466446063813    0.37095751569707314    0.4056123091476281    0.4119729183297627    
  0.33728235581776134    0.31961126001225615    0.2717509776128378    0.2088991080555837    0.15041278824757462    
  0.10825641154298371    0.08431935682310507    0.07668794228470001    0.08431936026683536    0.10825642054346485    
  0.15041278592560875    0.20889909890766545    0.2717509876250723    0.31961125613495206    0.33728235581776134    
  0.3196112654578837    0.31960760720024395    0.28685722359407884    0.23164734691105104    0.17180860498663075    
  0.1231901431998798    0.09184810838528444    0.07700816868108963    0.07701091686286597    0.0918458061952608    
  0.12319097277780486    0.1718077537910299    0.23164650415377822    0.2868573716752116    0.3196112654578837    
  0.27175100820341697    0.2868572665980061    0.27175455225753675    0.2316463090424614    0.18001638656923385    
  0.13223275690378533    0.0975768244501073    0.07772576431144736    0.07135606609615568    0.07772478515927833    
  0.09757906636165818    0.13223186915064314    0.18001874341323526    0.2316465156554843    0.27175100820341697    
  0.2088991215384226    0.23164730491890143    0.23164630433972022    0.20889678202636008    0.17180917576231353    
  0.13223273365236735    0.09972781024136287    0.07829101387499528    0.06795291862447503    0.06795251587647597    
  0.07829101393821951    0.09972639853382875    0.1322318659675882    0.17180774216294664    0.2088991215384226    
  0.15041281601898535    0.17180862337227368    0.18001637972063084    0.1718092030784895    0.1504132248802523    
  0.12319086689072958    0.09757635438162258    0.07829157436189847    0.06683925006335692    0.06309206457662218    
  0.06684033256527622    0.07829103318000208    0.09757908473445302    0.1231909610365611    0.15041281601898535    
  0.10825642797879566    0.12319017631510645    0.13223276043983526    0.13223272602377134    0.12319086175434361    
  0.10825542384198615    0.091847448433175    0.07772588254393106    0.0679524747894152    0.06309335319993237    
  0.06309206118520375    0.06795252652140886    0.07772478864902166    0.09184579695432338    0.10825642797879566    
  0.08431936084238886    0.0918480952806436    0.09757680755208127    0.09972781387235094    0.09757634966595317    
  0.09184743998039029    0.08431932685771114    0.07700991892845319    0.07135516674973637    0.06795246163841437    
  0.06683923053712663    0.06795292729218579    0.07135606845803918    0.07701092003280663    0.08431936084238886    
  0.07668793015269354    0.07700818005762243    0.07772575208392084    0.07829100534586463    0.07829157799288286    
  0.07772586692100471    0.07700991969828393    0.07668705273950513    0.07700992166106099    0.07772587034023275    
  0.07829156986400947    0.07829100716761458    0.07772576099183971    0.07700816082781481    0.07668793015269354    
  0.08431935492279034    0.07701091997079736    0.0713560541098897    0.06795291598904243    0.06683923737122446    
  0.06795247157546264    0.07135517080035257    0.07700992387862547    0.08431930902596427    0.09184744968730214    
  0.09757636261167772    0.09972782446993377    0.09757682017141742    0.0918481042228677    0.08431935492279034    
  0.10825644446892764    0.0918458137899105    0.07772478870800517    0.0679525124731782    0.06309206814760655    
  0.06309333961773411    0.06795247633635125    0.07772587798151984    0.0918474452777618    0.10825542587744845    
  0.12319085968107352    0.1322327346876379    0.13223274577121497    0.12319015666368305    0.10825644446892764    
  0.15041280493846376    0.12319094200786357    0.09757907660507205    0.07829102245551472    0.06684034829796376    
  0.06309206441811428    0.06683924866165325    0.07829157476268618    0.09757636548044804    0.12319087852259278    
  0.15041318803769185    0.17180918629900302    0.18001636551015937    0.17180860856604732    0.15041280493846376    
  0.20889912286235982    0.1718077427330308    0.13223185754811714    0.09972639415547242    0.07829102257924984    
  0.06795250753003658    0.06795292139647947    0.0782910103636088    0.09972781671483977    0.13223271541230752    
  0.17180916611427463    0.20889679668556027    0.2316463066846819    0.23164732164200294    0.20889912286235982    
  0.2717510346461318    0.231646529197258    0.1800187527377831    0.13223185597598558    0.09757907459631195    
  0.0777247775194893    0.07135606792074775    0.07772576338571893    0.09757681256568108    0.13223277125956054    
  0.18001636128646215    0.23164631889594337    0.2717545388852212    0.28685724360018744    0.2717510346461318    
  0.31961126532617823    0.2868573641489076    0.23164649320268896    0.17180774333923587    0.12319096630125657    
  0.09184580486503975    0.07701091692900595    0.07700817220480151    0.09184810046132659    0.12319013157366639    
  0.1718086053324352    0.23164736061822117    0.2868572429035557    0.3196076277583905    0.31961126532617823    
  0.33728235581776134    0.31961126001225615    0.2717509776128378    0.2088991080555837    0.15041278824757462    
  0.10825641154298371    0.08431935682310507    0.07668794228470001    0.08431936026683536    0.10825642054346485    
  0.15041278592560875    0.20889909890766545    0.2717509876250723    0.31961125613495206    0.33728235581776134    
  0.24221252055145492    0.22904061991746905    0.19482853655138418    0.1520748430910527    0.11309034565937694    
  0.08472062389856977    0.06841164360957266    0.06319631969126537    0.06841165502807585    0.08472062186191077    
  0.11309035197321247    0.15207483236064734    0.1948285479432852    0.22904062004972692    0.24221252055145492    
  0.2290406100230173    0.22904209480567353    0.20539705744320905    0.16725611428374493    0.12726447043425418    
  0.09481450766731674    0.07355652917729263    0.06339519094744972    0.06339487984244832    0.07355682856466894    
  0.09481407408519861    0.12726504985868392    0.16725549482560223    0.20539799135724127    0.2290406100230173    
  0.1948285627384712    0.20539710404409198    0.19482767598306344    0.16725615333387361    0.1326038269846126    
  0.10082146013882812    0.07746499523951335    0.06384761350466157    0.05945004591038118    0.0638475154912043    
  0.07746528387191842    0.1008211459241342    0.1326041173716664    0.1672554900379162    0.1948285627384712    
  0.1520748525887254    0.16725608719829949    0.16725614795604166    0.15207552003384736    0.1272640156763702    
  0.10082220244753784    0.07891301818610748    0.06420851892438796    0.05704892789775275    0.05704965618525979    
  0.06420760222654642    0.07891399792568318    0.10082113945748762    0.12726502497771197    0.1520748525887254    
  0.11309036942065724    0.12726448719205818    0.13260380769190838    0.12726403702335337    0.11309086186092498    
  0.09481377339333812    0.07746522152692853    0.06420776054764088    0.056266926665553385    0.05367920385860447    
  0.05626708801051238    0.0642076158612301    0.07746529911710104    0.09481406714611437    0.11309036942065724    
  0.08472062493901403    0.09481452758210725    0.1008214571686118    0.10082221756984483    0.09481377524194168    
  0.08472111069701604    0.07355636113542167    0.06384812156790427    0.05704914849263349    0.05367967589338994    
  0.053679192551846576    0.05704965563163761    0.06384751310949736    0.07355683028776101    0.08472062493901403    
  0.06841164917647198    0.07355651654327358    0.07746498523070525    0.07891302627847956    0.0774652137820367    
  0.07355636091304046    0.06841184080474082    0.06339493472331961    0.05944978676295474    0.05704913163784162    
  0.056266915179470745    0.05704894248533076    0.05945005017155644    0.06339488824482996    0.06841164917647198    
  0.06319631827546246    0.06339520049954729    0.0638476042930193    0.06420851365545183    0.06420776247580709    
  0.06384810724162934    0.06339493936813041    0.06319637136773443    0.06339493529224079    0.06384811779806485    
  0.06420776048154332    0.06420851455169145    0.0638476083449222    0.06339518422457367    0.06319631827546246    
  0.06841165532973283    0.06339488872624853    0.05945003624303983    0.0570489292295747    0.05626691783085111    
  0.05704914841750048    0.05944978896480715    0.06339493376109154    0.06841182655126662    0.07355635717948324    
  0.07746521528811656    0.07891303509216711    0.07746498816323048    0.07355652469222676    0.06841165532973283    
  0.08472063396257316    0.07355684332121185    0.06384751512802855    0.05704964561233148    0.05367920288842695    