#     DFTpy    
  CRYSTAL 
    
  PRIMVEC    
  3.2171379310344825    0.0    0.0    
  0.0    3.2171379310344825    0.0    
  0.0    0.0    3.2171379310344825    
  PRIMCOORD    
  4    1    
  Si    0.0    0.0    0.0    
  Si    0.0    1.6085689655172413    1.6085689655172413    
  Si    1.6085689655172413    0.0    1.6085689655172413    
  Si    1.6085689655172413    1.6085689655172413    0.0    
  BEGIN_BLOCK_DATAGRID_3D    
  3d_datagrid_density    
  BEGIN_DATAGRID_3D#0    
  15    15    15    
  0.0    0.0    0.0    
  3.2171379310344825    0.0    0.0    
  0.0    3.2171379310344825    0.0    
  0.0    0.0    3.2171379310344825    
  0.05435580472212259    0.10024046815901479    0.2742202070366339    0.46719448854533807    0.4837337926158276    
  0.40991074862145455    0.3520388488686379    0.33269817978511473    0.35203890048335595    0.40991072331210265    
  0.4837337843430752    0.46719443922089327    0.2742201825514746    0.10024047061995253    0.05435580472212259    
  0.10024044998684904    0.15636509476306792    0.3330913376154894    0.49484929610286743    0.4944690894119727    
  0.4234656287667678    0.3699491969950302    0.3520389101734907    0.369949169757909    0.42346560521326393    
  0.4944690767339512    0.49484930874237354    0.333091313624982    0.15636508788104422    0.10024044998684904    
  0.2742203197960949    0.33309132603174274    0.4665066546641453    0.5440941140073235    0.5186109438838234    
  0.46293337512617905    0.423465613355903    0.40991070287246345    0.4234656751914778    0.4629332937514268    
  0.518610886985928    0.5440941985241855    0.4665066585876286    0.33309137510958475    0.2742203197960949    
  0.46719442286789314    0.4948493187483246    0.5440941113165096    0.5611860242330803    0.5446369362868264    
  0.518610921687085    0.4944690124569201    0.4837337880583502    0.49446906788614076    0.5186109302566301    
  0.5446368903797438    0.5611860824767827    0.5440940151483932    0.494849344635538    0.46719442286789314    
  0.48373389712729137    0.49446909480195456    0.5186108751416271    0.5446369488125341    0.5611860523037184    
  0.5440941122384463    0.4948493747460954    0.46719442717811543    0.49484938929643546    0.5440941148339926    
  0.5611860358740528    0.5446369397378918    0.5186109100090479    0.49446902204580984    0.48373389712729137    
  0.4099107364735142    0.4234656623131427    0.46293327000204887    0.5186109914537173    0.544094176195927    
  0.4665066976348861    0.333091363048354    0.2742202554498327    0.33309133683286185    0.46650660890544743    
  0.5440940804626817    0.5186109634349864    0.46293327198462375    0.4234656535812175    0.4099107364735142    
  0.3520388966712073    0.3699491545879801    0.4234656349078283    0.49446906587874345    0.4948493133935828    
  0.33309133859182294    0.15636510050263472    0.1002404678823253    0.15636507568632782    0.33309131353627097    
  0.4948493536058417    0.49446913736844067    0.42346561496708307    0.3699492191203178    0.3520388966712073    
  0.3326982042376813    0.35203891494558753    0.4099107173487012    0.4837338740826104    0.46719443068031563    
  0.2742202514512265    0.10024045732359894    0.05435580782752797    0.1002404668173696    0.2742202193352032    
  0.4671944331801987    0.4837338684287718    0.4099106868363918    0.35203887724636673    0.3326982042376813    
  0.3520389169757568    0.3699491470323351    0.42346560887554635    0.49446905316067985    0.49484929213069007    
  0.33309133872393015    0.15636510554281718    0.10024046384427591    0.1563650911220948    0.3330913099589909    
  0.4948493138783814    0.4944691095193133    0.4234655982655698    0.3699491751904073    0.3520389169757568    
  0.40991074584683024    0.423465641178751    0.4629333136878911    0.5186108830773559    0.5440941891680019    
  0.46650666816000513    0.33309135842750165    0.27422023286973074    0.3330913553141078    0.46650667119864564    
  0.5440941020712148    0.5186109180934286    0.46293330631283613    0.42346565268570396    0.40991074584683024    
  0.48373384388584634    0.4944691365299508    0.5186108123719785    0.5446369147784584    0.5611860909359911    
  0.5440941108854473    0.49484935863276525    0.46719444143276473    0.4948493736068522    0.5440941016080398    
  0.5611860889919926    0.5446369526087785    0.518610856175548    0.49446904552519066    0.48373384388584634    
  0.46719449883633213    0.49484931396405224    0.5440941301342198    0.5611860646682442    0.5446370093944727    
  0.5186108468320834    0.4944690228141261    0.4837338099577588    0.4944690997307241    0.518610968917379    
  0.5446368962880864    0.5611860576665271    0.5440941403697962    0.49484930096787794    0.46719449883633213    
  0.2742202788149722    0.3330913390277584    0.4665066739537483    0.5440941588151331    0.5186109329732956    
  0.4629333784068498    0.4234655997392679    0.4099106920044853    0.4234656642131133    0.4629333143825408    
  0.5186108885818613    0.5440941200408284    0.4665066610701584    0.3330913522905183    0.2742202788149722    
  0.10024046587451682    0.15636506873703157    0.33309135315959665    0.49484935460680235    0.4944690769651621    
  0.4234656178990853    0.36994918740578536    0.3520388902501921    0.36994914689978137    0.42346566079002035    
  0.49446906832277715    0.4948493702957589    0.33309130297600703    0.15636512125655852    0.10024046587451682    
  0.05435580472212259    0.10024046815901479    0.2742202070366339    0.46719448854533807    0.4837337926158276    
  0.40991074862145455    0.3520388488686379    0.33269817978511473    0.35203890048335595    0.40991072331210265    
  0.4837337843430752    0.46719443922089327    0.2742201825514746    0.10024047061995253    0.05435580472212259    
  0.1002404661552317    0.15636509427686618    0.3330913123022361    0.494849337935754    0.4944690865029111    
  0.423465620923407    0.3699491730626176    0.352038881050815    0.36994917451807324    0.42346563048699953    
  0.4944691294187391    0.49484939754264534    0.3330912888893489    0.15636508796992307    0.1002404661552317    
  0.15636510742397391    0.21761327666922126    0.38555442357812647    0.515564253452353    0.5023304324155746    
  0.43516274639311    0.3862828027504295    0.36994917340779226    0.3862827610029472    0.4351627584734689    
  0.5023304200257329    0.5155642640972813    0.38555438550667    0.2176132676225415    0.15636510742397391    
  0.3330913739911465    0.38555443844264853    0.4957949806351739    0.5502015573467403    0.5203468751780661    
  0.4696679280115361    0.4351627219834131    0.4234656210392044    0.4351627342633576    0.4696678974083082    
  0.5203468622308585    0.5502015416452547    0.4957949898447502    0.38555443984633364    0.3330913739911465    
  0.4948493895980484    0.5155642751295413    0.5502014987186171    0.5581606108012284    0.5415422582851603    
  0.5203468951417104    0.5023304003697623    0.4944690789306553    0.5023304832000296    0.5203469025398776    
  0.5415421768225799    0.558160723035974    0.5502014414189592    0.5155642401824683    0.4948493895980484    
  0.4944691547627534    0.5023304504003888    0.5203468481194826    0.5415422013805433    0.5581606983881509    
  0.5502014936338305    0.5155642131452679    0.494849360637148    0.5155642925247422    0.550201489390831    
  0.5581606484170712    0.5415421992167979    0.5203468693070231    0.5023304845061132    0.4944691547627534    
  0.42346567798067913    0.43516274952173506    0.46966787435753005    0.5203469462444543    0.5502014872425247    
  0.4957949604609461    0.38555442352479025    0.33309137920418624    0.3855544312953899    0.4957949534233682    
  0.5502014442351969    0.5203469356702963    0.46966784380280685    0.43516279588901874    0.42346567798067913    
  0.36994918964850054    0.3862827823483896    0.4351627012527141    0.5023304976285866    0.5155642177973581    
  0.38555439909725303    0.21761327233950584    0.15636509577483534    0.2176132533795219    0.3855544147492911    
  0.5155642816087781    0.502330521023893    0.4351627599234197    0.3862828106106349    0.36994918964850054    
  0.3520389240202065    0.36994918199884586    0.4234655968071568    0.49446918028097486    0.49484930293114093    
  0.3330913456087681    0.15636509312136196    0.10024045786774928    0.15636509544705887    0.3330913212420285    
  0.49484938163545067    0.4944690457882698    0.4234655716496032    0.36994916612406675    0.3520389240202065    
  0.3699491820082791    0.3862828066520723    0.43516273602806116    0.502330475692112    0.5155642040219771    
  0.3855544089834506    0.21761325537102683    0.15636509988975647    0.21761325799355144    0.38555440028866206    
  0.5155642650879806    0.5023305467958191    0.4351627011265017    0.386282804732901    0.3699491820082791    
  0.423465675339166    0.4351627563578254    0.4696679204291263    0.5203468724488712    0.5502015275263662    
  0.4957950046453683    0.38555441404264623    0.33309130251864816    0.38555444045550985    0.49579503375886536    
  0.5502013959665905    0.5203469673111106    0.46966787106587055    0.4351627606062589    0.423465675339166    
  0.49446914339898945    0.5023305043654215    0.5203468335524964    0.5415421614158851    0.5581607012869254    
  0.5502015561517222    0.515564242892526    0.4948492757202908    0.5155643013559155    0.5502015731885666    
  0.5581606393865004    0.5415422591817376    0.5203468331182903    0.5023304104378792    0.49446914339898945    
  0.49484940163455526    0.5155642929153322    0.5502014706447141    0.5581606067921053    0.5415422413948371    
  0.5203468726627445    0.5023304510557914    0.49446906447471023    0.5023304783232236    0.5203468750089106    
  0.5415421607919283    0.5581606823039306    0.5502015097040293    0.5155642172424594    0.49484940163455526    
  0.33309137765420793    0.385554384009842    0.4957949928578968    0.5502014916093273    0.5203468688843161    
  0.4696679234147094    0.4351627395033259    0.4234656258117402    0.4351627184884901    0.4696679513172818    
  0.520346836541766    0.5502014998113158    0.49579490950046917    0.3855544277659342    0.33309137765420793    
  0.15636510459828482    0.21761323278963618    0.38555440033039057    0.5155642508942823    0.5023305439473763    
  0.43516272976902354    0.3862828113309336    0.3699491866112755    0.38628277749915807    0.43516275372865787    
  0.5023304873927751    0.5155642664466114    0.3855544411413344    0.21761327170695455    0.15636510459828482    
  0.1002404661552317    0.15636509427686618    0.3330913123022361    0.494849337935754    0.4944690865029111    
  0.423465620923407    0.3699491730626176    0.352038881050815    0.36994917451807324    0.42346563048699953    
  0.4944691294187391    0.49484939754264534    0.3330912888893489    0.15636508796992307    0.1002404661552317    
  0.2742202646723842    0.3330913349190067    0.46650661539590227    0.5440941654399011    0.5186108949157128    
  0.46293327355731456    0.4234656024490916    0.4099107541452106    0.42346565413054443    0.46293324679232156    
  0.5186108951992813    0.5440941677812954    0.46650658438767306    0.33309132078568526    0.2742202646723842    
  0.3330913358743903    0.38555443454139693    0.49579492533991637    0.5502015470681998    0.5203468179290179    
  0.4696678807762292    0.43516271742910706    0.4234656545669909    0.43516277717759083    0.4696678349132213    
  0.5203469600197284    0.5502015239817308    0.4957949638424401    0.38555445195865456    0.3330913358743903    
  0.4665066121432208    0.4957949714947137    0.5463060990811979    0.5558756331114177    0.5246025225186468    
  0.49034314200374923    0.4696678999897849    0.46293330650378683    0.4696679051179448    0.4903430174463262    
  0.5246025525159209    0.5558755941780765    0.5463060907805769    0.4957949932507009    0.4665066121432208    
  0.544094156523466    0.5502015463229873    0.5558755579204802    0.5476132377806419    0.5335075376149016    
  0.5246025709784377    0.5203469234428257    0.518610976661423    0.5203468571493582    0.5246024969734137    
  0.5335075610365471    0.5476133738414415    0.5558755374754746    0.5502015083325912    0.544094156523466    
  0.5186110178576023    0.5203468677725621    0.5246024718773677    0.5335074642449112    0.5476133921597636    
  0.5558756265569537    0.5502014839183571    0.5440941702699295    0.5502015358202622    0.5558755864470089    
  0.5476133373591587    0.5335075092833005    0.5246024317468916    0.5203469374956304    0.5186110178576023    
  0.4629333643896385    0.4696678389780468    0.49034302778815764    0.5246025732405609    0.555875546607208    
  0.5463061064813756    0.4957949600913545    0.4665066453766489    0.4957949752744403    0.5463060444540325    
  0.5558755900709937    0.5246025427170685    0.49034306502643754    0.46966790302134626    0.4629333643896385    
  0.4234656579637149    0.4351627070582995    0.46966785587765153    0.5203469103733706    0.5502014494200341    
  0.49579498214453616    0.38555439426483223    0.3330913872138487    0.3855543793705531    0.4957949705094087    
  0.5502015364933518    0.5203469446717223    0.4696677938700889    0.43516279133951274    0.4234656579637149    
  0.4099107943231606    0.4234656397869288    0.4629332265500141    0.5186109892625179    0.5440941103650804    
  0.4665066869334132    0.3330913369028084    0.27422024186981075    0.3330913361692932    0.46650662963869305    
  0.5440941675313264    0.518610990107138    0.4629332627229923    0.42346560006094863    0.4099107943231606    
  0.4234656418930126    0.43516275063480186    0.4696678833417073    0.5203469490493118    0.550201528816877    
  0.49579501170062396    0.3855544215874998    0.33309135006408774    0.3855544265809049    0.49579499153294804    
  0.5502015045629749    0.5203469127677978    0.4696678242480275    0.435162783307439    0.4234656418930126    
  0.46293337033431964    0.46966788574588203    0.49034300098918415    0.5246025297580111    0.5558756171573254    
  0.5463061512026245    0.49579501544779186    0.46650663497633776    0.4957949863698919    0.5463060649907995    
  0.5558755705730483    0.5246025118692618    0.4903430711285065    0.46966791037874217    0.46293337033431964    
  0.5186109342063127    0.5203469002256931    0.5246025302054103    0.5335074939276583    0.5476133672835499    
  0.5558755391813835    0.5502014723657058    0.544094184834823    0.5502015165696529    0.5558756263502984    
  0.5476133073337502    0.5335075611117235    0.5246024150049278    0.5203469183687387    0.5186109342063127    
  0.5440942160694381    0.5502015038814689    0.5558755542507322    0.5476132822510547    0.5335075067542459    
  0.5246025267479495    0.5203468819508157    0.518610945099971    0.5203469063480037    0.5246024774847651    
  0.5335075903590435    0.5476133491798658    0.5558755746580174    0.5502014709315127    0.5440942160694381    
  0.46650668448409355    0.49579498799066324    0.5463061542185859    0.5558755926136681    0.5246024984964432    
  0.49034313878146596    0.46966788323016884    0.46293332229767153    0.46966789346082843    0.49034306914887693    
  0.5246025367336775    0.5558756348124743    0.5463060256037873    0.4957950055533435    0.46650668448409355    
  0.33309135306323684    0.3855544148646287    0.49579500406054133    0.5502015493267652    0.5203468731880735    
  0.46966783301221116    0.43516276910753954    0.42346568407663115    0.4351627159189546    0.4696678550905652    
  0.5203469207733843    0.550201592095369    0.49579494511452843    0.385554418248543    0.33309135306323684    
  0.2742202646723842    0.3330913349190067    0.46650661539590227    0.5440941654399011    0.5186108949157128    
  0.46293327355731456    0.4234656024490916    0.4099107541452106    0.42346565413054443    0.46293324679232156    
  0.5186108951992813    0.5440941677812954    0.46650658438767306    0.33309132078568526    0.2742202646723842    
  0.46719442863177957    0.49484934296497846    0.5440941014458508    0.5611860881895507    0.5446369335478839    
  0.5186109474604622    0.49446901587016445    0.4837338339087882    0.49446906802126955    0.5186108824560964    
  0.544636866877766    0.5611861314272233    0.5440940463547785    0.4948493294691923    0.46719442863177957    
  0.49484937184533134    0.5155642334190842    0.5502014790972484    0.5581606814736614    0.5415422805971649    
  0.5203468925247491    0.502330461363842    0.49446910413876266    0.5023304751134623    0.5203469152541165    
  0.54154226041423    0.5581607523535448    0.5502014659250344    0.5155642961319188    0.49484937184533134    
  0.5440941624476813    0.5502015070168726    0.5558756624247044    0.54761334437577    0.5335075544908422    
  0.5246026254172138    0.5203468716569166    0.518610940642923    0.5203469239333262    0.5246024895438307    
  0.533507475388381    0.547613304920084    0.5558755640936869    0.5502014668310969    0.5440941624476813    
  0.5611861150567513    0.5581607276897973    0.5476132506276002    0.5341695206695406    0.5284117362686322    
  0.5335075004221715    0.5415422150578018    0.5446369562454548    0.5415422296809732    0.5335075310683697    
  0.5284117825710963    0.5341695472447698    0.5476133253462961    0.5581607475935138    0.5611861150567513    
  0.544637019768168    0.5415421615799932    0.5335074765284477    0.5284117364000676    0.5341696433455951    
  0.5476132783875862    0.558160647880629    0.5611861314577885    0.5581606534862626    0.547613307297626    
  0.5341695394099283    0.5284117558522095    0.533507403660442    0.5415422723051737    0.544637019768168    
  0.5186110037649537    0.5203469325476272    0.5246025319235358    0.5335075509574696    0.5476133566181732    
  0.5558756811240606    0.5502015048835319    0.5440942264331299    0.5502015696475783    0.5558755854411793    
  0.5476133518508168    0.5335075457701827    0.5246025879780041    0.5203469183845676    0.5186110037649537    
  0.49446915521238255    0.5023304461815609    0.5203468637870197    0.5415422277639593    0.5581607228792609    
  0.5502014896393795    0.5155642362523274    0.4948494169812686    0.5155642189979547    0.5502015234040555    
  0.5581607320268224    0.5415422934663596    0.5203468310289202    0.5023305043271612    0.49446915521238255    
  0.4837338648868523    0.49446909363700287    0.5186108439834302    0.5446370619727067    0.5611860161800669    
  0.5440941176878884    0.49484932004104365    0.4671944189042531    0.49484931725510806    0.5440940625927659    
  0.5611860026215939    0.544637025225474    0.518610841858032    0.49446907635794574    0.4837338648868523    
  0.4944690870734335    0.5023304532333293    0.5203468103373372    0.5415422375499039    0.5581606558416747    
  0.5502015161981094    0.5155642572126264    0.4948494209870798    0.5155642703548127    0.5502014632227018    
  0.558160652534767    0.5415422618193529    0.520346814565833    0.5023305557851863    0.4944690870734335    
  0.5186109868168246    0.5203468418129975    0.5246025285347667    0.533507526553895    0.5476133720627097    
  0.5558756300426141    0.5502015127911783    0.5440941568394707    0.550201549143106    0.5558755995969775    
  0.5476133029959896    0.5335075398015007    0.5246024816982457    0.52034690898449    0.5186109868168246    
  0.5446369841762565    0.5415422632975213    0.5335075765881283    0.5284117533057061    0.5341695934784786    
  0.5476134008959661    0.5581605902717879    0.5611861320036471    0.5581606888787701    0.5476133147905441    
  0.5341696104256798    0.5284117528192175    0.5335075004282706    0.5415422481501987    0.5446369841762565    
  0.5611861375358321    0.5581607141786246    0.5476131969969461    0.5341694590653249    0.5284117697189464    
  0.5335075248067892    0.5415421495008836    0.5446369748924009    0.5415422203171316    0.5335074627419997    
  0.5284117382958463    0.5341695703739523    0.5476132712143136    0.5581606723012931    0.5611861375358321    
  0.5440942257112615    0.5502015125354747    0.5558755784098258    0.5476133813028777    0.533507546812801    
  0.5246026327400497    0.5203468798251395    0.5186109261037297    0.5203469216715041    0.5246026050322565    
  0.5335074887379254    0.5476132592299804    0.5558756026094442    0.550201494399772    0.5440942257112615    
  0.4948493776145691    0.5155642332670469    0.550201507522232    0.5581606988467688    0.5415422052749863    
  0.5203469074084633    0.5023304596354393    0.4944691503072308    0.5023304743585975    0.5203468934964572    
  0.5415422527896739    0.5581607870149329    0.5502015196649264    0.5155642433037845    0.4948493776145691    
  0.46719442863177957    0.49484934296497846    0.5440941014458508    0.5611860881895507    0.5446369335478839    
  0.5186109474604622    0.49446901587016445    0.4837338339087882    0.49446906802126955    0.5186108824560964    
  0.544636866877766    0.5611861314272233    0.5440940463547785    0.4948493294691923    0.46719442863177957    
  0.48373382866003983    0.49446912983233304    0.5186109009888235    0.5446369702621803    0.5611860858274044    
  0.5440941722647846    0.4948492966947887    0.4671943997477012    0.49484936244326794    0.5440940330094515    
  0.5611860244244246    0.5446369856640835    0.5186108592609232    0.49446906885300307    0.48373382866003983    
  0.4944690792358898    0.5023305193119387    0.520346835892553    0.5415422245400272    0.5581606658881425    
  0.5502015141606665    0.5155642448540706    0.4948493930229572    0.5155642404289836    0.5502015494399604    
  0.5581607136925698    0.5415423032414877    0.5203468291026379    0.5023305274764734    0.4944690792358898    
  0.5186109894409172    0.5203468561653255    0.5246025949084132    0.5335075762069177    0.5476134062834348    
  0.555875700369598    0.550201534484801    0.5440941394472198    0.5502015179431881    0.5558755548416904    
  0.547613274464264    0.5335074543307133    0.5246025416420721    0.5203468955903154    0.5186109894409172    
  0.5446369907498838    0.5415422725569415    0.533507482123525    0.5284117155387908    0.5341694933001482    
  0.5476133211079006    0.5581606947427914    0.5611860804869716    0.5581606710643514    0.5476133439560841    
  0.534169526923751    0.5284118041270237    0.53350751466353    0.5415422893593133    0.5446369907498838    
  0.5611861242704065    0.5581606282785957    0.5476132659787933    0.5341695540715937    0.5284118120462871    
  0.5335075077850846    0.5415421755547584    0.5446369611447919    0.5415422861652344    0.5335074933772359    
  0.5284117603430087    0.5341695879175136    0.5476132574964993    0.5581607006025395    0.5611861242704065    
  0.5440942524139434    0.5502014980537917    0.5558755901745208    0.5476133978498288    0.5335074841248925    
  0.5246025642224923    0.5203468356682758    0.5186109723461255    0.5203468896304146    0.5246025389991208    
  0.5335074866363708    0.5476133599972925    0.555875640108909    0.5502014860152936    0.5440942524139434    
  0.4948493620319228    0.5155642908245988    0.5502014346248659    0.5581606300330881    0.5415422376804284    
  0.5203468859419752    0.5023304543053833    0.4944691453290961    0.502330449383384    0.5203469241408774    
  0.5415422790497575    0.5581607407262732    0.5502014322975453    0.5155642896956772    0.4948493620319228    
  0.4671944773723521    0.49484938718722965    0.5440940501525593    0.5611861303730218    0.544636906844425    
  0.5186109145992736    0.4944690243553327    0.4837338880985053    0.49446907674649    0.5186108616790256    
  0.5446369074732627    0.5611861557169785    0.5440940344032461    0.49484926722213446    0.4671944773723521    
  0.49484933694111    0.5155642738177939    0.5502014466301897    0.5581606296261804    0.541542219436315    
  0.5203468335586535    0.5023304305752893    0.4944691370704946    0.502330425671006    0.5203468396563828    
  0.5415422092684941    0.5581607645469485    0.5502013822185602    0.5155642971362632    0.49484933694111    
  0.5440942328251779    0.5502014899675002    0.5558755887801055    0.5476133187985432    0.5335075145158229    
  0.5246025641716984    0.5203469167885217    0.5186108942247656    0.5203469127753079    0.5246025796667184    
  0.533507478000233    0.5476133348149936    0.5558755485799786    0.5502015317681094    0.5440942328251779    
  0.5611860768009548    0.5581606847147041    0.5476133829192542    0.5341695253288488    0.5284118028301493    
  0.5335075712745802    0.5415421221377865    0.5446369890928531    0.5415422582826342    0.5335075329760082    
  0.5284117708056454    0.53416956615369    0.5476133138663957    0.5581607101538205    0.5611860768009548    
  0.5446369440753186    0.5415423233051218    0.5335073784134865    0.5284116720685212    0.5341695598658506    
  0.5476132815975476    0.5581605952135439    0.5611860981298433    0.5581606921930888    0.547613267105057    
  0.5341695585470689    0.5284117291669652    0.53350754233578    0.5415422035306084    0.5446369440753186    
  0.5186109845376554    0.5203468559146716    0.5246025838595366    0.533507550274335    0.5476133647085959    
  0.5558756786897483    0.550201496747352    0.5440941513088913    0.5502015740707584    0.5558756344729062    
  0.5476132857077354    0.533507448925301    0.5246025509456793    0.5203468808889664    0.5186109845376554    
  0.4944691004591592    0.5023304686640143    0.5203469022896449    0.5415422058933216    0.5581606741904437    
  0.550201485317719    0.515564307079992    0.4948494362842548    0.5155642200818927    0.550201464318442    
  0.5581607061559264    0.5415423478494396    0.520346913556812    0.5023304702332099    0.4944691004591592    
  0.48373382866003983    0.49446912983233304    0.5186109009888235    0.5446369702621803    0.5611860858274044    
  0.5440941722647846    0.4948492966947887    0.4671943997477012    0.49484936244326794    0.5440940330094515    
  0.5611860244244246    0.5446369856640835    0.5186108592609232    0.49446906885300307    0.48373382866003983    
  0.4099107621544212    0.4234656317428768    0.46293328554661856    0.5186109639224086    0.5440941038941038    
  0.46650666498211807    0.33309133238984223    0.2742202642996735    0.33309135501238096    0.4665066240363821    
  0.5440941246552704    0.5186109487316473    0.4629332397301929    0.4234656090847261    0.4099107621544212    
  0.4234656265423791    0.435162784831783    0.4696678287064596    0.5203469361849742    0.5502014814134802    
  0.49579492316250123    0.3855543925984474    0.3330913563264946    0.3855544267605389    0.495794989922998    
  0.550201552177717    0.5203469335431856    0.4696678206229764    0.43516281193078815    0.4234656265423791    
  0.46293327666841405    0.46966790241301276    0.49034303411809    0.5246024956269506    0.5558755736884087    
  0.5463061643624271    0.4957950020794012    0.4665066723268411    0.49579498148153023    0.5463060775811074    
  0.5558755872969858    0.52460248402818    0.4903430642447578    0.4696678957958227    0.46293327666841405    
  0.5186109329404578    0.520346936604156    0.5246025217915722    0.5335074657443765    0.5476133421133395    
  0.5558755968503182    0.5502014936154185    0.544094160166247    0.5502015053293671    0.5558755678164572    
  0.5476133835140281    0.5335075653959622    0.524602460248418    0.5203468936598399    0.5186109329404578    
  0.5440941983829193    0.5502014431677162    0.5558755603040819    0.5476132761310886    0.5335075662680502    
  0.5246025357461875    0.520346864836049    0.5186109422604331    0.520346861287197    0.5246025235194945    
  0.5335075433063404    0.5476132844456024    0.5558755391483335    0.5502015864114664    0.5440941983829193    
  0.466506688172514    0.49579496854118305    0.5463061198428617    0.5558756111101653    0.5246025361711961    
  0.49034308990459363    0.4696678721358645    0.4629333513568817    0.46966789366906736    0.49034302776509836    
  0.5246024917266531    0.5558756198940668    0.5463061013507622    0.495794996135417    0.466506688172514    
  0.3330913513083518    0.3855543724910116    0.4957949119244065    0.550201540165532    0.5203468695055207    
  0.4696678537879123    0.4351627255522095    0.4234656680361206    0.4351627489443686    0.46966789232647527    
  0.5203469249987798    0.5502015455873797    0.4957949293595956    0.3855544354922067    0.3330913513083518    
  0.2742202774162408    0.3330913555720444    0.4665066045571337    0.5440942063225908    0.5186108761723207    
  0.4629333272454703    0.42346563074125837    0.4099107562431183    0.42346562201731447    0.46293326355501707    
  0.5186109419304937    0.5440941708004267    0.46650661300770657    0.3330913121153969    0.2742202774162408    
  0.33309134802638696    0.38555440770034227    0.4957949692073677    0.5502014970399111    0.5203469043524839    
  0.46966792254863676    0.4351627649568089    0.42346563343814536    0.4351627422050776    0.46966781881462033    
  0.5203469175436019    0.5502015193798039    0.4957949020590536    0.38555443565957365    0.33309134802638696    
  0.4665066944120948    0.4957950079996215    0.5463060509464523    0.5558755724676293    0.5246025506881452    
  0.4903431028412315    0.46966784763725017    0.4629332924780597    0.4696678825532047    0.4903430633223769    
  0.5246024926809755    0.5558756319332628    0.5463061395222775    0.49579500511285657    0.4665066944120948    
  0.5440941203261437    0.550201539649845    0.5558756126472625    0.5476133297812663    0.5335075352371621    
  0.5246025360304817    0.5203468825012849    0.5186109752370416    0.5203469417345566    0.5246025205731936    
  0.5335075122327129    0.5476133419887259    0.5558755238050902    0.5502015185509352    0.5440941203261437    