#     DFTpy    
  CRYSTAL 
    
  PRIMVEC    
  5.130413793103448    0.0    0.0    
  0.0    5.130413793103448    0.0    
  0.0    0.0    5.130413793103448    
  PRIMCOORD    
  8    1    
  Si    0.0    0.0    0.0    
  Si    1.282603448275862    1.282603448275862    1.282603448275862    
  Si    0.0    2.565206896551724    2.565206896551724    
  Si    1.282603448275862    3.8478103448275864    3.8478103448275864    
  Si    2.565206896551724    0.0    2.565206896551724    
  Si    3.8478103448275864    1.282603448275862    3.8478103448275864    
  Si    2.565206896551724    2.565206896551724    0.0    
  Si    3.8478103448275864    3.8478103448275864    1.282603448275862    
  BEGIN_BLOCK_DATAGRID_3D    
  3d_datagrid_density    
  BEGIN_DATAGRID_3D#0    
  23    23    23    
  0.0    0.0    0.0    
  5.130413793103448    0.0    0.0    
  0.0    5.130413793103448    0.0    
  0.0    0.0    5.130413793103448    
  0.05322376143174187    0.09803542530880852    0.2600645524846248    0.408830241165979    0.3701213660812969    
  0.25743786900617377    0.1694401192449929    0.11571475867046653    0.08557035365312994    0.0694724952036891    
  0.061628114430968835    0.05930519086742615    0.06162814415396362    0.06947246684549671    0.08557033568466603    
  0.11571478910652008    0.16944005379803942    0.2574378961509325    0.37012138382898524    0.40883030614685917    
  0.26006453205164387    0.09803538248673103    0.05322376143174187    0.09803540472341649    0.15186648471425993    
  0.3110800657108515    0.42354604453005135    0.3676026597282726    0.2564964833763354    0.17127798107644918    
  0.11859826691230263    0.08851150637867224    0.07216094010281333    0.0640542603829087    0.061628157759696524    
  0.06405426001015915    0.0721609205669816    0.08851147807377142    0.1185982727858576    0.17127796032775297    
  0.2564964668194023    0.3676026793759136    0.4235459004291263    0.3110800631853817    0.15186646024333658    
  0.09803540472341649    0.2600645165622297    0.31108003043754134    0.41258660663940544    0.43436716638954725    
  0.3528951132015981    0.2520408038616891    0.17608930123132982    0.12710501488138204    0.09765280340210945    
  0.08086008164242205    0.07216091497935367    0.069472521729275    0.0721609469720871    0.08086010241949279    
  0.09765278746155653    0.1271050896393984    0.17608926025474447    0.25204082133583233    0.3528950834281208    
  0.43436712405881894    0.4125865876835543    0.31107998084938926    0.2600645165622297    0.4088302365712266    
  0.4235460571359379    0.4343671083066227    0.39597522605334207    0.32000118788957965    0.242958844432869    
  0.18301252563025827    0.14132829852215728    0.11424685811237946    0.09765279460118734    0.08851143016925156    
  0.08557033377148585    0.08851148815795079    0.09765277572585017    0.11424684558922064    0.14132829034922997    
  0.1830124969835209    0.24295888445104583    0.3200011791757954    0.3959750894376038    0.4343671740448858    
  0.42354597864611954    0.4088302365712266    0.37012143069129816    0.3676026881599399    0.3528950089441446    
  0.3200012199814964    0.2755462052291446    0.23027596541682774    0.19181604076320477    0.16240378441303258    
  0.14132829185260837    0.12710501119933215    0.11859824067976908    0.11571478441231212    0.1185982793209863    
  0.12710502109814384    0.14132827976377982    0.16240384632705185    0.19181601185542901    0.23027601405803685    
  0.2755462077880496    0.3200011211489178    0.35289505825988327    0.3676026633338551    0.37012143069129816    
  0.2574378794018909    0.25649646200406195    0.2520408251555328    0.24295889220876662    0.23027607124730115    
  0.215850508814515    0.20260746842731023    0.1918160652904884    0.18301259630290753    0.1760892842957408    
  0.1712778982155547    0.1694401425129275    0.17127793542778058    0.17608928781777436    0.18301251567186824    
  0.19181606175135837    0.20260742317105315    0.21585051634752248    0.23027600300432013    0.24295895287750321    
  0.2520408751535987    0.25649654625766294    0.2574378794018909    0.16944011838189674    0.17127794319417558    
  0.1760893207349857    0.1830125049532323    0.19181610230339308    0.20260739463724303    0.2158505411507255    
  0.2302760573155575    0.24295892180539747    0.25204080214077695    0.256496463414042    0.2574379436391129    
  0.25649653508990833    0.2520408133049934    0.24295882102001926    0.23027605021758019    0.21585050574461284    
  0.2026074266653246    0.19181605394254297    0.1830125313272144    0.17608926552235235    0.17127795206721808    
  0.16944011838189674    0.11571477226028049    0.11859824150929459    0.12710501171105454    0.14132826872538978    
  0.16240382774961176    0.19181602921075866    0.2302759921939579    0.2755462591367428    0.32000119622417306    
  0.35289501704001697    0.36760262033361407    0.3701213869233908    0.36760264074440396    0.3528950709552694    
  0.3200011595494381    0.2755462235483059    0.23027597923583074    0.19181602893872285    0.16240381926743586    
  0.14132830353512402    0.1271050284162338    0.11859828025968054    0.11571477226028049    0.08557027848998663    
  0.08851145192645886    0.09765279921993712    0.11424680259906578    0.14132834885109496    0.1830124917193317    
  0.242958883115757    0.3200011593559051    0.39597510231346733    0.43436724630149637    0.4235460092791327    
  0.40883033795948936    0.42354603664369805    0.4343671499705682    0.39597507379542235    0.3200012532487854    
  0.24295889351319797    0.1830125770142189    0.14132829369896482    0.11424680347356461    0.09765279343233639    
  0.0885114765926344    0.08557027848998663    0.0694725071505972    0.07216094023193588    0.08086012238717036    
  0.0976527985895644    0.12710505421450913    0.17608921052382182    0.2520408839381719    0.35289501088309894    
  0.43436717378876816    0.4125865867087137    0.3110799901851365    0.26006455239634146    0.31107999135760916    
  0.4125865120653851    0.4343672211108488    0.35289504266394    0.25204084248282754    0.17608927173954184    
  0.12710502395355058    0.09765279276065898    0.08086011814203008    0.07216092944445368    0.0694725071505972    
  0.0616281109326453    0.06405425517165435    0.07216095295481188    0.08851151759991567    0.11859830150467122    
  0.1712779110629246    0.25649649878825465    0.36760268434449667    0.42354601651867735    0.31108002868096146    
  0.15186643894747745    0.09803542971169402    0.15186647824450183    0.3110799976871957    0.4235460660195729    
  0.3676026277320727    0.2564964522426696    0.1712779220521279    0.11859830703267006    0.08851145382534503    
  0.0721609506182389    0.06405425859392962    0.0616281109326453    0.05930517643276282    0.061628143109948116    
  0.06947248714560073    0.08557029638969843    0.11571477570566957    0.16944007995919658    0.25743787947755353    
  0.3701213902374164    0.4088302935471104    0.2600645587706696    0.09803536047892351    0.05322374731636685    
  0.09803540085300008    0.26006451913563555    0.40883031958202454    0.37012135052093653    0.25743784988766916    
  0.1694401239854778    0.11571480970125111    0.08557032275509746    0.06947248070633533    0.06162813501842158    
  0.05930517643276282    0.061628130044961156    0.06405424649307297    0.07216094354016157    0.08851150267586799    
  0.1185982664175754    0.17127794320764148    0.256496567213307    0.36760273071750715    0.423545995257468    
  0.3110799526539405    0.1518664587343219    0.09803539866602985    0.1518664889911609    0.31108000631696026    
  0.4235460076608102    0.3676026045536481    0.25649650858126866    0.17127793694297874    0.11859830050719924    
  0.08851144688689284    0.07216094742650125    0.0640542737254981    0.061628130044961156    0.06947248751456599    
  0.07216096901301078    0.08086013388676926    0.09765280288055657    0.1271050502562836    0.17608924132541137    
  0.2520408508623922    0.35289500861258716    0.43436719954659875    0.41258655876923384    0.3110799692321258    
  0.26006452012280445    0.31108005805844574    0.41258662688685327    0.4343671570870574    0.3528951235125876    
  0.25204081802315553    0.17608928069468371    0.12710505127859187    0.0976527669331685    0.080860110074951    
  0.07216096119886968    0.06947248751456599    0.08557030289212134    0.08851148975386396    0.09765274280327683    
  0.11424687568723775    0.14132830384689343    0.18301252514030764    0.24295892613016914    0.3200011277769765    
  0.39597518999640513    0.4343671117138172    0.42354594979732835    0.40883039694892925    0.423546002764034    
  0.43436710482253454    0.39597513619998725    0.3200011674329933    0.242958841968998    0.18301255120313703    
  0.14132834533031718    0.11424680430481604    0.09765282588876972    0.08851147336044159    0.08557030289212134    
  0.11571481318872161    0.11859827576847551    0.12710500328808264    0.14132827296814862    0.16240380646516872    
  0.19181596720605987    0.23027594388948772    0.27554621128328144    0.32000114284417724    0.3528950164256393    
  0.3676026410806497    0.37012137898520875    0.3676026318290419    0.35289503752062995    0.3200011897135027    
  0.2755462211161028    0.2302759650830458    0.19181604920058073    0.16240387079149962    0.14132827882939863    
  0.12710501129016968    0.11859825818336504    0.11571481318872161    0.16944012473331713    0.1712779559752486    
  0.17608928282992203    0.18301257132535348    0.19181608598204114    0.20260742808231227    0.21585059334302864    
  0.23027604669230314    0.24295891344643328    0.252040828329004    0.25649646463048936    0.2574379707670174    
  0.2564964979137701    0.25204085408477445    0.24295888081241127    0.23027603818110925    0.2158505377473494    
  0.2026074083004155    0.19181610171584934    0.18301255607327274    0.17608929288619413    0.17127796005331253    
  0.16944012473331713    0.2574379073437492    0.2564965116282558    0.2520408267083483    0.24295891472913736    
  0.23027606117217758    0.2158504898362528    0.20260745021365759    0.19181610124841864    0.1830125790196601    
  0.17608931232972283    0.171277926313687    0.16944015794597045    0.17127792557735594    0.17608931712522385    
  0.18301254769220276    0.19181606245671973    0.20260743091086506    0.2158505538965291    0.2302760616176486    
  0.24295894758782502    0.25204078087054727    0.25649654544035    0.2574379073437492    0.37012138869388644    
  0.36760263086726985    0.3528949818858786    0.32000120802480286    0.27554622054884786    0.2302759942021303    
  0.1918160120963622    0.16240381238218832    0.14132828751818743    0.1271050291654553    0.11859823331161048    
  0.11571478584022614    0.11859829809203086    0.12710501005642535    0.1413283055188498    0.1624038173493155    
  0.1918160161457917    0.23027604468690047    0.2755462118371731    0.3200011337685294    0.3528950548307008    
  0.3676026405408676    0.37012138869388644    0.40883028183107417    0.42354602681379483    0.43436716512421464    
  0.3959751466867359    0.32000116747966834    0.24295886883915532    0.18301250490555293    0.14132822696278416    
  0.11424685968220065    0.09765280169167233    0.0885114556272763    0.08557033078145732    0.08851148665659658    
  0.09765275800463888    0.11424683486005292    0.1413283167090366    0.18301252371211726    0.24295889596677206    
  0.32000124917228523    0.3959750263388394    0.43436719366401316    0.4235460228405892    0.40883028183107417    
  0.2600645103534443    0.31108008437061097    0.4125866499670463    0.43436718481741954    0.3528951271547014    
  0.2520407123369291    0.17608931150534798    0.12710501839456143    0.09765279879809702    0.0808600935465164    
  0.07216089218582107    0.06947251799127999    0.07216092365241165    0.08086010736526893    0.09765278879454269    
  0.12710501429665133    0.1760892660076497    0.25204076752060534    0.3528951510937708    0.4343671817402374    
  0.41258655140575023    0.3110800428279091    0.2600645103534443    0.09803538003093004    0.15186651635038043    
  0.3110800096791738    0.4235460749539669    0.3676026831092779    0.2564964649721219    0.17127793621281662    
  0.11859829807360868    0.08851151395929253    0.07216094891376122    0.06405424858322452    0.06162816458390274    
  0.064054274951817    0.07216093416509423    0.08851144860481759    0.11859827404692261    0.17127794474909683    
  0.2564965333592496    0.3676027622405592    0.42354597602344407    0.31108002779280686    0.15186645844323074    
  0.09803538003093004    0.05322376143174187    0.09803542530880852    0.2600645524846248    0.408830241165979    
  0.3701213660812969    0.25743786900617377    0.1694401192449929    0.11571475867046653    0.08557035365312994    
  0.0694724952036891    0.061628114430968835    0.05930519086742615    0.06162814415396362    0.06947246684549671    
  0.08557033568466603    0.11571478910652008    0.16944005379803942    0.2574378961509325    0.37012138382898524    
  0.40883030614685917    0.26006453205164387    0.09803538248673103    0.05322376143174187    0.09803543181443944    
  0.15186650503519686    0.31108004453248556    0.42354598625398504    0.36760271481521956    0.2564964620082269    
  0.1712779792830954    0.11859825279281018    0.08851152016360296    0.07216094175598058    0.06405423438871598    
  0.06162812940804602    0.06405427382198166    0.07216093109031202    0.08851151139330798    0.11859826574697024    
  0.17127793045340753    0.25649650212154557    0.3676026736562898    0.4235460184255229    0.3110799940481641    
  0.15186644582051836    0.09803543181443944    0.15186648137187345    0.21996025821328496    0.38385291658438303    
  0.4757887795962533    0.40565371084174673    0.2879475473374949    0.19614663413376948    0.13707961566466967    
  0.10170934003247212    0.08103301542087823    0.06936859395824266    0.06405427008990504    0.06389317815417563    
  0.06924882762014375    0.08221631115773864    0.10751572688689932    0.15274686522412934    0.22695939011658164    
  0.3272644045549827    0.39411514815696086    0.32859089629266336    0.19938153277578505    0.15186648137187345    
  0.31108002197381757    0.3838528594141246    0.4954791258324861    0.5155368106431142    0.42739875357486734    
  0.3153155016343607    0.22532962548529353    0.1631019153177853    0.12280186438860953    0.09711314446573394    
  0.08103296586715351    0.07216095279196735    0.06924883963073092    0.07225243647777184    0.08247437606294597    
  0.10336606739881542    0.14056844660030696    0.20082063893361204    0.2850943951880077    0.3653171107067468    
  0.37918768731616864    0.3285908427845741    0.31108002197381757    0.4235459521981722    0.47578886423518724    
  0.515536810894754    0.49398347167314216    0.41965752565986914    0.3318001450969478    0.2551823936765026    
  0.19623078530582322    0.1533555021605034    0.12280187613576127    0.10170929215177582    0.08851151225812899    
  0.08221632836928636    0.08247438613115328    0.08964629694219252    0.10567652471720802    0.13395765146693467    
  0.17810086071567172    0.23959357739006376    0.30978565597084534    0.3653171630553026    0.3941152166346944    
  0.4235459521981722    0.3676027201989935    0.40565372835151015    0.4273986445008501    0.4196576262888845    
  0.384293802124624    0.3336167003399683    0.28184064920780144    0.23582812923432525    0.1962307937690501    
  0.16310187352229955    0.13707958711015317    0.11859828775663181    0.10751574314247937    0.10336599692189245    
  0.10567651025081369    0.11487369304705987    0.1323087796419855    0.15917795081966873    0.19572060774562178    
  0.23959351524794664    0.28509438555034194    0.327264363169104    0.3676027201989935    0.2564965204586102    
  0.28794758877311494    0.3153156125062216    0.3318002508534315    0.3336167994068044    0.32192778712397246    
  0.3036292240427417    0.2818407044822079    0.25518244509898375    0.22532961466569462    0.1961465527844101    
  0.1712779803082415    0.15274687051789637    0.1405684639793682    0.13395766500904724    0.13230882331382432    
  0.13574571028967122    0.14475958734248048    0.1591779515006953    0.17810089898712644    0.20082066687453023    
  0.22695941807207964    0.2564965204586102    0.1712779510170295    0.196146628215502    0.22532966238430055    
  0.2551823851318021    0.2818407027100297    0.3036291000744342    0.32192782880889853    0.33361677266467454    
  0.33180022291486777    0.3153155326387448    0.28794755470910777    0.25649655007519667    0.22695940766499717    
  0.20082062422152647    0.17810080296096917    0.15917797299560385    0.14475959756867565    0.13574572874683394    
  0.13230879854369287    0.13395768045096446    0.1405684686462168    0.15274686530260057    0.1712779510170295    
  0.11859824660780466    0.13707958813417928    0.16310192060571324    0.19623080025410644    0.23582818329453933    
  0.2818406219105645    0.3336166932827171    0.3842938227975387    0.41965757963613565    0.42739864109128045    
  0.40565373316977915    0.36760265373161993    0.32726436032328865    0.28509440900805905    0.23959350540221575    
  0.19572063564989675    0.1591779081251808    0.1323088062435939    0.11487367074798688    0.10567650241447935    
  0.10336602547435943    0.10751573145147748    0.11859824660780466    0.08851146659255511    0.10170931964231751    
  0.12280185702038683    0.15335548385754108    0.1962308584569068    0.25518236057079063    0.3318002154101393    
  0.4196575790562481    0.4939834510821074    0.5155368785375193    0.4757887865828608    0.42354606479674634    
  0.39411528308274185    0.36531704514732855    0.30978569988018645    0.23959356020084643    0.17810084800160444    
  0.13395771733622702    0.10567651788014025    0.08964630653031552    0.08247439362047634    0.08221631674737626    
  0.08851146659255511    0.07216097626421818    0.08103300554376085    0.09711317334359997    0.12280187007540075    
  0.1631019443677694    0.22532951933271672    0.31531559410372173    0.4273987000113865    0.5155369156054157    
  0.49547901860369414    0.3838528646969271    0.3110800176345265    0.32859086274446925    0.37918761756566494    
  0.3653171617624605    0.28509440452153123    0.20082066396442744    0.14056844120738607    0.10336599525573739    
  0.08247440209845668    0.07225244309939645    0.06924882251226268    0.07216097626421818    0.06405425725421976    
  0.06936862049124651    0.08103301278641875    0.10170931769748674    0.13707965136928907    0.19614659118125816    
  0.2879476309893442    0.4056537726248268    0.4757888113383973    0.38385284029908995    0.21996021673050387    
  0.1518664943831281    0.1993815352186161    0.32859086185192343    0.3941152927285218    0.3272643442607543    
  0.22695938704498408    0.15274685216045375    0.10751577281543183    0.08221628096045215    0.06924884358204614    
  0.06389316358795427    0.06405425725421976    0.06162815701243899    0.06405426526126393    0.0721609533731253    
  0.08851147747924651    0.11859827138993743    0.17127793705741526    0.2564964760687199    0.36760265182732876    
  0.42354605105481014    0.31107998627898287    0.15186644296072635    0.09803540225551372    0.1518664659418406    
  0.3110800538720534    0.4235460424835689    0.36760270230111763    0.2564964710507559    0.1712779442038537    
  0.11859828973165586    0.08851146639026787    0.07216094524137352    0.06405427407788854    0.06162815701243899    
  0.06405426483342688    0.06389317017399933    0.06924884865679296    0.08221633093571981    0.10751575277055915    
  0.1527468507761639    0.22695945971758438    0.3272644276421908    0.3941152757140147    0.3285908029354043    
  0.19938149863506327    0.15186648282905363    0.2199602529793165    0.3838528575197027    0.4757888397120151    
  0.40565376436754885    0.28794759343608683    0.19614661007019746    0.1370796431603427    0.1017093102478962    
  0.08103298917749466    0.0693686084248874    0.06405426483342688    0.07216092324570036    0.06924886271038676    
  0.07225247209095298    0.08247439619727064    0.10336603519235073    0.1405684199383364    0.2008206631491166    
  0.2850943492041602    0.3653171909219028    0.37918766745187743    0.32859083627342855    0.3110800398552044    
  0.3838528508776935    0.49547904637008355    0.51553688538672    0.4273987341174714    0.31531555269535694    
  0.22532960485289955    0.1631019318741061    0.12280183195323421    0.09711317332757212    0.08103299488995053    
  0.07216092324570036    0.08851147895975671    0.08221629746921118    0.08247437541063676    0.08964632401955386    
  0.10567653959416183    0.133957651008523    0.17810086134348724    0.23959348080678497    0.309785727575188    
  0.36531708701064813    0.3941152226359894    0.42354605929890693    0.4757888149932081    0.5155367939882697    
  0.4939834004309185    0.4196575513442039    0.33180016619918795    0.25518240186026636    0.19623082848829193    
  0.1533554491302544    0.12280188241703    0.10170931687465996    0.08851147895975671    0.11859828440100686    
  0.1075157400542501    0.10336597702749746    0.1056764975067279    0.1148737021004458    0.13230874048905625    
  0.15917791198834513    0.19572060192672497    0.23959349729966178    0.28509435010078343    0.3272643217164187    
  0.3676026784346467    0.4056536788290987    0.42739867338143395    0.41965760013617887    0.38429384985762366    
  0.3336166686336625    0.28184063611232324    0.2358281766413487    0.1962307453439451    0.16310191534003599    
  0.13707960390097723    0.11859828440100686    0.17127797235119085    0.15274689406027125    0.14056845292571535    
  0.13395770811152327    0.13230878370830085    0.1357457199342444    0.14475962481298452    0.15917796365896722    
  0.1781008639744449    0.20082064029128296    0.22695936111851625    0.2564965546651461    0.28794761575798433    
  0.31531559571532675    0.33180019063941363    0.3336167732475295    0.3219278148020741    0.30362914956243714    
  0.2818407565033285    0.2551824229336438    0.22532964402200795    0.19614660235243925    0.17127797235119085    
  0.2564965128899661    0.2269593985481768    0.20082064679824063    0.17810085805501347    0.15917798004557557    
  0.14475954146506748    0.1357457106759775    0.13230882488350085    0.13395770210976904    0.14056845225844508    
  0.1527468424791317    0.17127795295776702    0.19614659463817616    0.2253296588162452    0.2551823707914093    
  0.2818406634655981    0.30362920058449533    0.32192783115358614    0.33361679343320605    0.331800266781928    
  0.3153155143981264    0.2879476078221438    0.2564965128899661    0.3676026398255579    0.32726435491398925    
  0.28509440574175415    0.23959352429284916    0.19572062997161147    0.15917789635448162    0.13230878042650493    
  0.11487369680816263    0.1056765174483376    0.10336599652460811    0.10751568156119384    0.11859827861351208    
  0.13707962565666262    0.16310190473141378    0.19623076102559242    0.23582814014572137    0.2818406410964103    
  0.3336167237656016    0.3842938379432197    0.41965748383514667    0.4273987124297683    0.4056537327517221    
  0.3676026398255579    0.4235459712329418    0.39411529494054726    0.3653170778372822    0.30978574850082624    
  0.23959351943852453    0.17810085177749274    0.13395768771823363    0.10567648864033607    0.08964635169436631    
  0.08247439874930883    0.08221629015631975    0.08851152366340455    0.10170931131277718    0.1228018568753774    
  0.15335544038611215    0.1962308249557409    0.2551823995848104    0.331800219818552    0.41965764666987027    
  0.49398336610409377    0.5155368777883989    0.47578879639126354    0.4235459712329418    0.31107998754912053    
  0.3285908995904588    0.37918778562991046    0.3653170964310699    0.28509445002613926    0.2008205687912509    
  0.1405684916966321    0.10336601703773897    0.0824743987004778    0.07225241646683268    0.06924878484406487    
  0.07216097310595808    0.08103297172623437    0.09711318329712047    0.12280183548407032    0.16310192252409972    
  0.22532964095931365    0.31531552985608147    0.42739870959464266    0.5155369147185418    0.49547903448339586    
  0.383852850732589    0.31107998754912053    0.15186644085215661    0.19938156895883608    0.3285909109683182    
  0.39411525804606085    0.3272644142697258    0.2269593173587673    0.15274686779321017    0.10751574780913876    
  0.08221631577796162    0.06924884063912941    0.06389314560399482    0.06405428394159284    0.06936860174877783    
  0.08103298845826085    0.10170930709514754    0.13707963190577147    0.19614661587844048    0.2879476580782955    
  0.4056538330955811    0.4757887207584307    0.38385285359123933    0.21996020949408476    0.15186644085215661    
  0.09803543181443944    0.15186650503519686    0.31108004453248556    0.42354598625398504    0.36760271481521956    
  0.2564964620082269    0.1712779792830954    0.11859825279281018    0.08851152016360296    0.07216094175598058    
  0.06405423438871598    0.06162812940804602    0.06405427382198166    0.07216093109031202    0.08851151139330798    
  0.11859826574697024    0.17127793045340753    0.25649650212154557    0.3676026736562898    0.4235460184255229    
  0.3110799940481641    0.15186644582051836    0.09803543181443944    0.2600645676329914    0.311080005161103    
  0.4125866498085571    0.43436715631322753    0.35289507177933865    0.25204082777172016    0.17608928630483633    
  0.12710501933441437    0.09765283423908785    0.0808601225344158    0.07216090001192711    0.0694724856844129    
  0.07216092529762538    0.08086011453333686    0.0976528041295462    0.12710505394767166    0.176089274478444    
  0.25204084372651886    0.3528950172674953    0.4343671641338725    0.4125866055830948    0.31107998402802134    
  0.2600645676329914    0.3110799962075603    0.3838528522472412    0.4954791378895165    0.5155368566916476    
  0.4273986632355442    0.3153155825573635    0.22532962652181748    0.16310190782595385    0.12280186344599106    
  0.09711317304022464    0.08103299831865089    0.07216096137533645    0.0692488409655284    0.07225244092076641    
  0.08247439729895514    0.10336601326266112    0.1405685012227188    0.2008206605276831    0.28509446310029946    
  0.3653170640386094    0.3791877537009281    0.3285908679313832    0.3110799962075603    0.41258663658278044    
  0.49547910305693205    0.579631854047874    0.577627226745372    0.4913305314172949    0.3814864772881803    
  0.2850109222562265    0.21175922388870783    0.15961329731262802    0.12268243583572258    0.09711315219679235    
  0.08086013193962266    0.07225246360076354    0.0705137021612991    0.07580472211022733    0.09004979712414622    
  0.11726120786470232    0.1623633429462922    0.22804582022993014    0.30374909724830157    0.35812567725851546    
  0.3791877035848924    0.41258663658278044    0.4343671227114369    0.515536926557963    0.5776272184196654    
  0.5793932692929938    0.5194701676318101    0.4300264114377331    0.34212465330189784    0.268433332391384    
  0.2083215797438831    0.1596132746583189    0.12280181072474651    0.09765282720628062    0.08247440254079773    
  0.0758047312050327    0.07657971639812641    0.0851244616809831    0.10358399637220267    0.13465132622856069    
  0.180637693145971    0.24004818080450452    0.3037491406020585    0.3653171073547343    0.4343671227114369    
  0.3528951060297538    0.4273986619872671    0.49133043988875647    0.51947023546054    0.497890839610846    
  0.4413050505051929    0.3800751650032778    0.32473022797230183    0.2684333418955077    0.21175918310414382    
  0.16310185548337802    0.12710504563599043    0.10336599848198445    0.09004973486653488    0.08512446860927333    
  0.08738194522908085    0.0971420670185623    0.11529196305243579    0.14288800044292022    0.18063761009993817    
  0.22804581518107386    0.2850943615411955    0.3528951060297538    0.2520408640057298    0.31531561314600565    
  0.3814864980072458    0.43002661341060383    0.4413051590036926    0.42217505188536125    0.4004809593912604    
  0.38007516166782584    0.3421246804935872    0.2850108782484962    0.2253295793268444    0.17608935195912476    
  0.1405684696382935    0.11726119064027417    0.10358401225726449    0.09714209868328474    0.09692207804943385    
  0.1028931492844005    0.11529199148371291    0.134651361747937    0.16236334933725588    0.20082068376574658    
  0.2520408640057298    0.17608932608230346    0.22532963563431063    0.28501095274526633    0.34212459383198857    
  0.38007519289381936    0.4004808988030949    0.42217513011474855    0.44130514409899513    0.4300265855931368    
  0.38148649264547935    0.3153155718863809    0.25204092451284105    0.20082068311503956    0.16236335576644936    
  0.13465128841032303    0.11529200110085594    0.10289314211644962    0.09692208973592602    0.09714207392420883    
  0.1035840106584238    0.11726125200585848    0.1405684737057499    0.17608932608230346    0.1271049893196958    
  0.16310187848014762    0.2117592384137008    0.26843335256069506    0.3247302898425022    0.38007519638201404    
  0.44130509190292705    0.4978908679562107    0.5194702186562902    0.49133044474671284    0.4273986228323915    
  0.3528950586524408    0.2850943868119361    0.22804584167531292    0.18063761492404498    0.1428880206185648    
  0.11529192522996097    0.09714208922156978    0.08738191587488936    0.0851244397510228    0.09004974714892054    
  0.10336600630042307    0.1271049893196958    0.0976527756753795    0.12280183771350289    0.15961327423252789    
  0.2083215522519559    0.26843335072205193    0.3421246009558817    0.430026595083357    0.5194702193530933    