#     DFTpy    
  CRYSTAL 
    
  PRIMVEC    
  1.156653380374584    -2.00338242155507    0.0    
  1.156653380374584    2.00338242155507    0.0    
  0.0    0.0    2.1771955994482752    
  PRIMCOORD    
  1    1    
  Si    0.0    0.0    0.0    
  BEGIN_BLOCK_DATAGRID_3D    
  3d_datagrid_density    
  BEGIN_DATAGRID_3D#0    
  11    11    11    
  0.0    0.0    0.0    
  1.156653380374584    -2.00338242155507    0.0    
  1.156653380374584    2.00338242155507    0.0    
  0.0    0.0    2.1771955994482752    
  0.04980374619907176    0.09281035400270875    0.25984782950629876    0.46334424496282145    0.5259576873730473    
  0.5212724638412704    0.5259576851637168    0.46334423212084086    0.2598478161033445    0.0928103542940936    
  0.04980374619907176    0.09281036178261996    0.09280174063054719    0.20237891975512218    0.4018219757317518    
  0.5144875455195487    0.5168322686788422    0.5168422183994769    0.5144904982216536    0.4017557052331554    
  0.20242239910564125    0.09281036178261996    0.2598478066324484    0.20237890363157685    0.25991263259287434    
  0.4017721722941232    0.504577220269877    0.509571758953067    0.4958985513280446    0.5095542482899326    
  0.5046590042107211    0.4017556886083392    0.2598478066324484    0.4633442202293205    0.40182195722075037    
  0.40177216326711035    0.46331432276756074    0.514455043959505    0.5096529829682842    0.485501231530412    
  0.48554144339293465    0.5095542724815172    0.514490487756706    0.4633442202293205    0.5259577010902227    
  0.5144875453481296    0.5045772563902052    0.514455029756788    0.5260309453057763    0.5168418347494587    
  0.49582937969730123    0.4855012019579417    0.49589854352052215    0.516842228903179    0.5259577010902227    
  0.5212724432427989    0.5168322545279297    0.5095717731867979    0.5096529935294378    0.5168418501507019    
  0.5211969822897391    0.5168418427412599    0.5096529782389426    0.509571762998504    0.51683224844068    
  0.5212724432427989    0.5259576748158064    0.5168422050736728    0.49589855490937657    0.48550119523590757    
  0.49582936419710233    0.5168418423081027    0.5260309549151991    0.5144550340295345    0.5045772448048769    
  0.5144875669967764    0.5259576748158064    0.46334420779132013    0.5144904693305027    0.5095542571826965    
  0.4855414693354374    0.4855012038654607    0.5096529759060556    0.5144550209046923    0.4633143318532986    
  0.4017721693042173    0.40182195485972644    0.46334420779132013    0.2598478239519168    0.40175569680044493    
  0.5046590036975898    0.5095542595840263    0.49589856147627387    0.5095717582270446    0.5045772613283419    
  0.4017721307643604    0.2599126522797295    0.20237892039264346    0.2598478239519168    0.09281035345904626    
  0.2024223953721832    0.4017557081424797    0.514490492364285    0.5168422187013896    0.5168322705492931    
  0.5144875504425676    0.40182196463535    0.20237891307603645    0.09280175167169144    0.09281035345904626    
  0.04980374619907176    0.09281035400270875    0.25984782950629876    0.46334424496282145    0.5259576873730473    
  0.5212724638412704    0.5259576851637168    0.46334423212084086    0.2598478161033445    0.0928103542940936    
  0.04980374619907176    0.08970411126042094    0.14108542815537933    0.3051560418290416    0.4672422223295494    
  0.5004299394448517    0.4899073915724562    0.5004299088101075    0.46724219236149594    0.30515603800133606    
  0.14108543573838456    0.08970411126042094    0.14108543800628748    0.14104595826425004    0.2526758714834691    
  0.4218293508352659    0.4965993749685459    0.48628386776998955    0.48630656849623183    0.4965862764999721    
  0.4217840711102817    0.25270055801848895    0.14108543800628748    0.30515603375102174    0.2526758437660287    
  0.30524742925850784    0.4217835900759889    0.49038758674766925    0.4804161504159274    0.46468260816845014    
  0.4804036959342717    0.4904549344056187    0.42178403243423035    0.30515603375102174    0.46724222797916526    
  0.42182935479657    0.42178357146896256    0.4671882444319611    0.4965710251815451    0.48048246492011853    
  0.45478119380300613    0.4548093733246249    0.48040371020007827    0.4965862502934718    0.46724222797916526    
  0.5004299301657639    0.49659937814566785    0.4903875917522821    0.49657101017465377    0.5005133574662575    
  0.48629839356836707    0.46462438326583083    0.45478117585845507    0.4646826038847063    0.4863065684142346    
  0.5004299301657639    0.48990733412696025    0.4862838721778244    0.4804161617785504    0.4804824869557146    
  0.486298384729836    0.4898220772554417    0.4862983838669354    0.48048245177490917    0.4804161616945578    
  0.4862838676292759    0.48990733412696025    0.5004299202534847    0.4863065547423967    0.4646826011819637    
  0.45478117458316314    0.46462439587050697    0.4862983869741738    0.5005133608006777    0.49657101330655457    
  0.4903875871680469    0.49659939624828353    0.5004299202534847    0.46724219032950814    0.49658622223162424    
  0.4804036857390636    0.45480937729801013    0.45478117192914047    0.480482462948266    0.49657099613862593    
  0.4671882216972895    0.42178357268294414    0.42182934276548967    0.46724219032950814    0.30515601405753207    
  0.42178406068400404    0.49045494102390613    0.48040370101169166    0.46468260341401996    0.480416146608694    
  0.4903875922967209    0.42178356798236233    0.30524746359670435    0.2526758504205557    0.30515601405753207    
  0.1410854309885317    0.2527005650098703    0.42178403920550256    0.4965862531189948    0.4863065429992678    
  0.48628388227706193    0.4965993730045312    0.42182937327350994    0.252675854424426    0.14104596347355025    
  0.1410854309885317    0.08970411126042094    0.14108542815537933    0.3051560418290416    0.4672422223295494    
  0.5004299394448517    0.4899073915724562    0.5004299088101075    0.46724219236149594    0.30515603800133606    
  0.14108543573838456    0.08970411126042094    0.25571199767168834    0.3060811412818302    0.4122252184202856    
  0.46113894476830747    0.4344934929488768    0.41313657096910433    0.4344934725534093    0.461138939825464    
  0.41222520024090836    0.30608113839965123    0.25571199767168834    0.30608113993050035    0.30601541147656025    
  0.38448255720483254    0.45379972314797923    0.44572877946080297    0.4113966274459698    0.4114112922958131    
  0.4457168843437418    0.45378286018706093    0.38448230618003465    0.30608113993050035    0.4122251964153104    
  0.3844825394787603    0.4123086627092451    0.45376720498883394    0.44736604089423243    0.4086768956481361    
  0.3890775004195116    0.4086745440410728    0.44739258584738234    0.4537828343185931    0.4122251964153104    
  0.4611389647596898    0.4537997028113116    0.4537671766233586    0.4610978229695244    0.44571497287467154    
  0.40870982997478483    0.38025444501060623    0.38026434133297143    0.40867456827514664    0.4457168642312087    
  0.4611389647596898    0.43449348499630464    0.44572876073106193    0.4473660695575932    0.44571496183741227    
  0.43454642807055854    0.41140518377503094    0.3890488611965859    0.38025445396240265    0.3890774897179603    
  0.41141130970154177    0.43449348499630464    0.41313652313986343    0.4113966405823897    0.40867687768235933    
  0.4087098192206699    0.41140516947024175    0.4130830495190152    0.41140518267277537    0.40870980840619375    
  0.4086768866803822    0.4113966436064553    0.41313652313986343    0.4344934552858673    0.41141129022617057    
  0.3890774925212852    0.380254441919973    0.3890488606536582    0.4114051760084761    0.4345464364948743    
  0.44571495388677995    0.4473660783401274    0.44572877653815024    0.4344934552858673    0.4611389287128384    
  0.4457168482221269    0.40867453933585735    0.3802643390822713    0.380254442141233    0.4087097897342815    
  0.4457149644256093    0.461097805925525    0.45376720739878296    0.4537997017955551    0.4611389287128384    
  0.41222519047169465    0.45378285113548394    0.44739255155111335    0.4086745554295314    0.38907750096892346    
  0.40867688234180033    0.44736607325042316    0.453767174865518    0.41230869261548125    0.38448256029556754    
  0.41222519047169465    0.3060811414446033    0.3844823180766735    0.45378286268200285    0.44571686705310015    
  0.41141127680405437    0.411396643979485    0.4457287640736113    0.4537996973027311    0.3844825604818321    
  0.30601540767503077    0.3060811414446033    0.25571199767168834    0.3060811412818302    0.4122252184202856    
  0.46113894476830747    0.4344934929488768    0.41313657096910433    0.4344934725534093    0.461138939825464    
  0.41222520024090836    0.30608113839965123    0.25571199767168834    0.5110875339541823    0.5139816638944021    
  0.49298092730771625    0.4270292178295226    0.35788662959117096    0.33032250187212814    0.35788661731021665    
  0.427029210268687    0.49298088667774953    0.5139816720371886    0.5110875339541823    0.5139816723789657    
  0.5139606621035626    0.5032150215171275    0.452735833025082    0.3794237205482608    0.3301014587866738    
  0.3301042107007773    0.37942249297578773    0.45273262258960556    0.5032128570369544    0.5139816723789657    
  0.4929808974797398    0.5032149956448809    0.4930023295570293    0.45272743020281614    0.3871383313960302    
  0.3299626230531346    0.30830237934503657    0.32996129959306514    0.38714148858890285    0.45273261922044755    
  0.4929808974797398    0.427029224726669    0.4527358220363357    0.45272742342730393    0.4270210323472525    
  0.37942193954004333    0.3299660369485692    0.3004542411317475    0.300456240138752    0.3299613113952207    
  0.37942249764375613    0.427029224726669    0.35788663121114106    0.37942370431177785    0.38713835907061717    
  0.37942194141556523    0.357896950337889    0.3301049147087876    0.30829744586783736    0.30045424973625595    
  0.3083023759842591    0.3301042197162694    0.35788663121114106    0.330322468211893    0.33010146112780625    
  0.3299626290307054    0.3299660195908984    0.33010491555868193    0.3303081911949961    0.33010492527756413    
  0.32996600480945737    0.32996262848823815    0.3301014655186158    0.330322468211893    0.3578866090732639    
  0.3301041942827242    0.3083023881171113    0.30045423771898855    0.30829744795626185    0.33010491834986583    
  0.35789695277797196    0.3794219552681206    0.387138360795869    0.37942374235956916    0.3578866090732639    
  0.42702920202817046    0.3794224655996095    0.32996130452540834    0.30045624199960974    0.3004542379868941    
  0.3299659998636335    0.3794219469371897    0.4270210027179273    0.4527274468864132    0.4527358095394421    
  0.42702920202817046    0.49298089020974584    0.4527326253644223    0.38714147455839204    0.3299613039820416    
  0.30830238034543084    0.32996262297353585    0.38713834875306125    0.45272741532077065    0.493002328163894    
  0.503215018928766    0.49298089020974584    0.5139816845998361    0.5032128515525522    0.4527326216977613    
  0.37942249543940376    0.33010419335220187    0.3301014632061927    0.37942371696454924    0.4527358069114701    
  0.503215039977348    0.513960643599952    0.5139816845998361    0.5110875339541823    0.5139816638944021    
  0.49298092730771625    0.4270292178295226    0.35788662959117096    0.33032250187212814    0.35788661731021665    
  0.427029210268687    0.49298088667774953    0.5139816720371886    0.5110875339541823    0.654116455290702    
  0.6122524266390049    0.5052690927633053    0.38521240235961524    0.3016589983916458    0.27316910290237656    
  0.301658965189227    0.38521238792735485    0.5052690556761025    0.612252447255925    0.654116455290702    
  0.6122524392516744    0.6122524052558987    0.537737669543149    0.42504756621255363    0.32640282069609383    
  0.27337371169280456    0.27337334411881264    0.3264035949372418    0.4250462658384922    0.53773952017491    
  0.6122524392516744    0.5052690782635751    0.5377376212886826    0.5052710262938157    0.42504659541862777    
  0.3365054178094544    0.27408446540940007    0.25245775987336866    0.2740843767871629    0.33650524289661554    
  0.42504622947171333    0.5052690782635751    0.38521240198486745    0.4250475512549281    0.4250465771643572    
  0.38521213089479744    0.3264028933733431    0.27408372009211757    0.24513341868077873    0.24513207605685772    
  0.2740843934575641    0.32640358366247846    0.38521240198486745    0.3016589881136658    0.3264028281539119    
  0.3365054251595822    0.3264028975448005    0.3016591805497563    0.27337542701572937    0.25245628293581285    
  0.24513342506981428    0.2524577678521459    0.2733733445346602    0.3016589881136658    0.27316907116772454    
  0.2733737227524369    0.2740844703703638    0.27408373085583904    0.2733754232726487    0.2731655878665214    
  0.27337542556894223    0.2740837211841323    0.27408446988856133    0.2733737192167412    0.27316907116772454    
  0.3016589840484055    0.2733733368610918    0.2524577660911713    0.24513341886705872    0.2524562934231605    
  0.27337543346304044    0.3016591902474601    0.32640290152681983    0.3365054327254753    0.32640284340756787    
  0.3016589840484055    0.38521237896740734    0.3264035715057016    0.27408436822967025    0.24513208573374984    
  0.24513341908534222    0.274083718357228    0.32640288709880416    0.38521212516632003    0.4250465864078622    
  0.42504755058802907    0.38521237896740734    0.505269057085463    0.42504624399459273    0.3365052450108227    
  0.2740843776663042    0.2524577743285941    0.27408446001542586    0.33650544019091067    0.4250465763854643    
  0.505271066993058    0.5377376629148395    0.505269057085463    0.6122524327800564    0.5377395313641931    
  0.4250462377041836    0.3264035832723047    0.2733733368754968    0.2733737142038581    0.3264028263223154    
  0.4250475542895077    0.5377376477908961    0.6122524079200398    0.6122524327800564    0.654116455290702    
  0.6122524266390049    0.5052690927633053    0.38521240235961524    0.3016589983916458    0.27316910290237656    
  0.301658965189227    0.38521238792735485    0.5052690556761025    0.612252447255925    0.654116455290702    
  0.6798004312826782    0.62616827808172    0.49859376976812675    0.36728254137183974    0.28167526609750415    
  0.25350522045550916    0.2816752619956837    0.36728251822680863    0.4985937417522863    0.6261682649572102    
  0.6798004312826782    0.6261682861665552    0.6261655730085214    0.5361720224156435    0.4099470547303057    
  0.306733886028453    0.25367539417900187    0.2536766358516451    0.3067311201227409    0.40994626490751823    
  0.5361758805674843    0.6261682861665552    0.4985937352450979    0.5361719754299021    0.49859820729445514    
  0.40994967474564153    0.3172518511229318    0.25441465041821315    0.23310367994752623    0.25441570592094354    
  0.3172554020507274    0.4099462584369023    0.4985937352450979    0.36728252415877327    0.40994704071790866    
  0.4099496675170325    0.36727667861840313    0.3067330033524177    0.2544168179397119    0.22591643224686642    
  0.2259142844211311    0.25441571863267703    0.30673111792900826    0.36728252415877327    0.2816752728483497    
  0.30673389570470383    0.3172518842928603    0.30673300673006104    0.28167752541418023    0.25367545527841806    
  0.23310201933676003    0.22591641119771633    0.2331036752319489    0.25367665052959976    0.2816752728483497    
  0.25350520684386674    0.253675388323194    0.2544146571468711    0.2544168206084332    0.2536754552047362    
  0.25350485562648317    0.25367544711532275    0.2544168182450811    0.2544146515344473    0.2536753783349683    
  0.25350520684386674    0.28167526126521664    0.25367662410911773    0.2331036843123918    0.22591640779157424    
  0.2331020106680575    0.2536754560697562    0.2816775272626557    0.3067330173034469    0.31725187553442785    
  0.30673392084525053    0.28167526126521664    0.36728251016246627    0.30673111215582405    0.25441570310202527    
  0.22591430655180467    0.22591641757810677    0.2544168126399361    0.3067329924935367    0.3672766905075692    
  0.4099496804204051    0.40994702719007137    0.36728251016246627    0.4985937492791528    0.4099462605111625    
  0.3172554077136072    0.2544157133890797    0.23310368196913375    0.25441464215987847    0.3172518880435592    
  0.40994963582632843    0.4985982334376943    0.5361720132610008    0.4985937492791528    0.6261682752554061    
  0.5361758866100449    0.4099462765504193    0.30673111758519794    0.25367663911108324    0.2536754005580482    
  0.306733894981301    0.4099470377612304    0.536171981705686    0.6261656050405743    0.6261682752554061    
  0.6798004312826782    0.62616827808172    0.49859376976812675    0.36728254137183974    0.28167526609750415    
  0.25350522045550916    0.2816752619956837    0.36728251822680863    0.4985937417522863    0.6261682649572102    
  0.6798004312826782    0.6541164703143054    0.6122524303635184    0.5052690878938362    0.3852124106559174    
  0.3016589936448838    0.2731691143216694    0.30165897199581093    0.3852123732904404    0.5052690622617039    
  0.6122524410047957    0.6541164703143054    0.6122524432901079    0.612252388187445    0.5377376816531467    
  0.42504754092201047    0.32640283222976807    0.2733737160378935    0.2733733425172737    0.3264035977630885    
  0.4250462860279365    0.5377395168564094    0.6122524432901079    0.5052690792767079    0.5377376559162158    
  0.5052710119934672    0.42504660288888607    0.3365054148127005    0.27408447026964117    0.25245775974988244    
  0.27408438058100193    0.33650523595998916    0.4250462471029565    0.5052690792767079    0.38521241583883575    
  0.4250475540952753    0.42504657594027856    0.38521212139419686    0.32640290171558123    0.2740837154644659    
  0.2451334246505229    0.2451320771935331    0.2740843976373981    0.32640357838146433    0.38521241583883575    
  0.3016589815362617    0.32640283687207294    0.33650543157819846    0.32640289700619973    0.3016591775696754    
  0.2733754353762264    0.25245627719503705    0.24513342301844926    0.25245776485970284    0.27337335081636754    
  0.3016589815362617    0.2731690729425597    0.273373714800596    0.2740844789734049    0.2740837280235925    
  0.2733754321522425    0.2731655795318715    0.27337543123719177    0.2740837073634029    0.27408447058088525    
  0.2733737061958027    0.2731690729425597    0.3016589720427879    0.27337334539686375    0.2524577648489629    
  0.24513342388302656    0.2524562925710843    0.2733754390874035    0.30165918308882766    0.32640290424930035    
  0.3365054258791585    0.32640284312574186    0.3016589720427879    0.38521238573132505    0.3264035605902607    
  0.2740843802194923    0.24513208058501282    0.24513342394641613    0.27408371279725086    0.3264028920799316    
  0.3852121073768692    0.4250465767090457    0.4250475241883358    0.38521238573132505    0.5052690470463691    
  0.4250462667091943    0.33650524670367354    0.2740843890714672    0.2524577687046439    0.2740844647813934    
  0.3365054304271898    0.4250465675619227    0.505271052146482    0.5377376579873275    0.5052690470463691    
  0.6122524441581488    0.5377395111882107    0.42504625021077835    0.3264035898099485    0.2733733379012405    
  0.2733737120322377    0.32640282183028346    0.42504755952509704    0.5377376514544508    0.6122523934073256    
  0.6122524441581488    0.6541164703143054    0.6122524303635184    0.5052690878938362    0.3852124106559174    
  0.3016589936448838    0.2731691143216694    0.30165897199581093    0.3852123732904404    0.5052690622617039    
  0.6122524410047957    0.6541164703143054    0.511087538174783    0.5139816620522706    0.4929809461049425    
  0.4270292121166607    0.35788665829563254    0.3303225003498934    0.357886631279759    0.42702918799620204    
  0.4929809185012711    0.5139816531503799    0.511087538174783    0.513981662137893    0.5139606740486442    
  0.5032150137598478    0.45273584972912234    0.37942372362238025    0.33010146214473673    0.3301041983879515    
  0.379422508585538    0.45273262244330614    0.5032128823190419    0.513981662137893    0.49298091832059776    
  0.5032149932966606    0.4930023271331148    0.45272744361602374    0.3871383333055292    0.32996262277458793    
  0.30830240065327263    0.32996129265458596    0.387141514679835    0.45273259956185485    0.49298091832059776    
  0.4270292258108465    0.4527358412821184    0.45272741669914673    0.4270210479034136    0.37942193337011976    
  0.32996603848852735    0.30045422604632205    0.30045624997338005    0.3299613118023045    0.37942250546842027    
  0.4270292258108465    0.35788664123358277    0.37942371512635886    0.3871383676925043    0.379421934233509    
  0.35789695911917097    0.3301049071554448    0.3082974503077375    0.3004542380031253    0.3083023871955568    
  0.3301042123008553    0.35788664123358277    0.3303224613060911    0.33010147989159627    0.3299626157707493    
  0.3299660293000917    0.3301048984578212    0.3303081946497428    0.33010491039366674    0.32996601897007366    
  0.3299626135364021    0.33010147513240945    0.3303224613060911    0.35788662191272663    0.3301041935898322    
  0.30830239386694014    0.3004542266182026    0.30829745863477    0.33010490613304966    0.3578969591405559    
  0.3794219283297458    0.38713837033154375    0.3794237150096846    0.35788662191272663    0.4270291899921789    
  0.3794224814063357    0.329961283654369    0.30045625422383    0.3004542316722253    0.3299660060245087    
  0.3794219338456105    0.42702102114686474    0.4527274380659412    0.45273582618919905    0.4270291899921789    
  0.4929809145439433    0.4527326071623466    0.3871414849792326    0.3299612980005254    0.3083024043960732    
  0.3299626134120739    0.387138362330959    0.45272740635818065    0.4930023515832704    0.5032150052790305    
  0.4929809145439433    0.5139816728073453    0.5032128880840582    0.4527326208586532    0.37942250785018766    
  0.33010418579623435    0.33010148202625855    0.37942370592691543    0.4527358198836913    0.5032150069060142    
  0.5139606607117553    0.5139816728073453    0.511087538174783    0.5139816620522706    0.4929809461049425    
  0.4270292121166607    0.35788665829563254    0.3303225003498934    0.357886631279759    0.42702918799620204    
  0.4929809185012711    0.5139816531503799    0.511087538174783    0.2557119874749746    0.30608114760048977    
  0.41222520946610464    0.461138969046816    0.43449346508001596    0.4131365810466128    0.43449345527212874    
  0.46113895218073475    0.4122251760958414    0.3060811516029408    0.2557119874749746    0.3060811527463212    
  0.3060154154830931    0.38448256821581456    0.4537997054981477    0.44572878505883534    0.41139662357231815    
  0.4114113112590414    0.4457168685849427    0.45378286085583297    0.3844822936561378    0.3060811527463212    
  0.41222517750031007    0.3844825517242621    0.4123086632275144    0.4537671925935383    0.44736603382763973    
  0.40867689735284823    0.3890774783125322    0.4086745582194223    0.44739256373260794    0.4537828701569093    
  0.41222517750031007    0.46113896697180207    0.45379969890427346    0.453767180440895    0.4610978133870948    
  0.4457149647441819    0.4087098282302342    0.3802544563508865    0.3802643343455733    0.40867457663510015    
  0.44571687177708663    0.46113896697180207    0.43449347089552015    0.4457287654127604    0.44736606572464765    
  0.4457149682220908    0.4345464151020711    0.41140518826424627    0.38904884767658543    0.38025446448535877    
  0.389077474726012    0.4114113170639858    0.43449347089552015    0.4131365359609034    0.41139662667288546    
  0.4086769058589969    0.4087098032283033    0.4114051904904504    0.41308303036058314    0.41140518735189024    
  0.4087097895206526    0.4086768957923001    0.4113966288023072    0.4131365359609034    0.43449344643479415    
  0.4114112947256943    0.3890774892842344    0.3802544576742861    0.3890488553767881    0.41140518409898236    
  0.4345464221484842    0.44571498353085715    0.44736606070900437    0.4457287907325489    0.43449344643479415    
  0.46113894041433506    0.4457168260788842    0.4086745652705021    0.38026433065795867    0.3802544600530989    
  0.40870978429093097    0.4457149753655606    0.46109777698445165    0.45376720346740557    0.4537996757147194    
  0.46113894041433506    0.41222517479140836    0.45378287317981497    0.44739254937463613    0.4086745638885939    
  0.38907748479085175    0.40867689321564726    0.447366058657531    0.45376716707854853    0.41230866630703794    
  0.38448255909048856    0.41222517479140836    0.3060811600800208    0.3844822915737156    0.45378287000668505    
  0.44571686463569843    0.41141129522361675    0.4113966316691743    0.44572877272651795    0.4537996746178563    
  0.3844825766724429    0.30601539177659465    0.3060811600800208    0.2557119874749746    0.30608114760048977    
  0.41222520946610464    0.461138969046816    0.43449346508001596    0.4131365810466128    0.43449345527212874    
  0.46113895218073475    0.4122251760958414    0.3060811516029408    0.2557119874749746    0.08970411477662989    
  0.14108542699124058    0.30515605527577894    0.4672422203862307    0.5004299518497112    0.48990738307111154    
  0.5004299092705887    0.46724219963887753    0.30515603069702274    0.14108543427192585    0.08970411477662989    
  0.14108542939617813    0.14104596625045476    0.2526758595045382    0.42182937384614033    0.4965993695097251    
  0.48628387288255703    0.48630655539586587    0.4965862783970704    0.42178405976666    0.2527005667733141    
  0.14108542939617813    0.3051560376054573    0.2526758401304975    0.30524743701969465    0.4217835913799183    
  0.49038758522645987    0.4804161509702367    0.4646826086083155    0.4804036891155364    0.49045493812584023    
  0.4217840293241738    0.3051560376054573    0.4672422145228871    0.42182936244580327    0.42178356601600503    
  0.4671882480058637    0.4965710143051272    0.4804824590150659    0.4547811759453874    0.4548093782925821    
  0.48040371633167334    0.4965862558874466    0.4672422145228871    0.5004299427231904    0.4965993708580421    
  0.49038759274421007    0.4965710033455766    0.5005133616272175    0.4862983710693756    0.46462438811894796    
  0.4547811714762612    0.4646826105901317    0.486306551678665    0.5004299427231904    0.48990733050282526    
  0.4862838898779849    0.4804161548225766    0.4804824834725996    0.4862983738725735    0.4898220785826683    
  0.48629837461180875    0.4804824655265681    0.4804161532860554    0.4862838780767351    0.48990733050282526    
  0.5004299392218383    0.48630654384345573    0.4646826068445579    0.45478116985754147    0.4646244044137133    
  0.4862983778679945    0.5005133683877688    0.4965709987270283    0.49038760121823055    0.49659938047770846    
  0.5004299392218383    0.4672421863932899    0.49658623723393686    0.4804036762115021    0.4548093849114276    
  0.45478117354500813    0.48048245697251313    0.496570989318433    0.46718823896708966    0.42178357499549174    
  0.4218293511328589    0.4672421863932899    0.3051560247886958    0.4217840290841423    0.49045494990944744    
  0.4804036893264246    0.46468261827342955    0.4804161424936362    0.49038760430177997    0.4217835693525437    
  0.3052474696921061    0.25267585417306376    0.3051560247886958    0.14108543031090673    0.25270056822080156    
  0.42178403156762573    0.49658626402895384    0.48630654917154464    0.48628387921751576    0.49659937766729345    
  0.4218293660736144    0.25267585458468944    0.1410459739207013    0.14108543031090673    0.08970411477662989    
  0.14108542699124058    0.30515605527577894    0.4672422203862307    0.5004299518497112    0.48990738307111154    
  0.5004299092705887    0.46724219963887753    0.30515603069702274    0.14108543427192585    0.08970411477662989    
  0.04980374619907176    0.09281035400270875    0.25984782950629876    0.46334424496282145    0.5259576873730473    
  0.5212724638412704    0.5259576851637168    0.46334423212084086    0.2598478161033445    0.0928103542940936    
  0.04980374619907176    0.09281036178261996    0.09280174063054719    0.20237891975512218    0.4018219757317518    
  0.5144875455195487    0.5168322686788422    0.5168422183994769    0.5144904982216536    0.4017557052331554    
  0.20242239910564125    0.09281036178261996    0.2598478066324484    0.20237890363157685    0.25991263259287434    
  0.4017721722941232    0.504577220269877    0.509571758953067    0.4958985513280446    0.5095542482899326    
  0.5046590042107211    0.4017556886083392    0.2598478066324484    0.4633442202293205    0.40182195722075037    
  0.40177216326711035    0.46331432276756074    0.514455043959505    0.5096529829682842    0.485501231530412    
  0.48554144339293465    0.5095542724815172    0.514490487756706    0.4633442202293205    0.5259577010902227    
  0.5144875453481296    0.5045772563902052    0.514455029756788    0.5260309453057763    0.5168418347494587    
  0.49582937969730123    0.4855012019579417    0.49589854352052215    0.516842228903179    0.5259577010902227    
  0.5212724432427989    0.5168322545279297    0.5095717731867979    0.5096529935294378    0.5168418501507019    
  0.5211969822897391    0.5168418427412599    0.5096529782389426    0.509571762998504    0.51683224844068    
  0.5212724432427989    0.5259576748158064    0.5168422050736728    0.49589855490937657    0.48550119523590757    
  0.49582936419710233    0.5168418423081027    0.5260309549151991    0.5144550340295345    0.5045772448048769    