#     DFTpy    
  CRYSTAL 
    
  PRIMVEC    
  6.994585729297588    5.579019525586207e-07    9.210472213793102e-07    
  5.579020851103448e-07    6.994588127894852    9.311206357827587e-07    
  9.210473391793102e-07    9.31120657162069e-07    6.994587643073899    
  PRIMCOORD    
  16    1    
  Si    1.032122929539127    5.962464086348079    2.4651712411523516    
  Si    5.962463290454329    1.0321251501915012    4.529415399031041    
  Si    1.03212398098531    1.0321242392776635    1.0321246025186095    
  Si    2.465174861814019    2.4651758855491996    2.4651756279906953    
  Si    5.962461594334905    2.465171413170953    1.0321234454835702    
  Si    1.0321226988801315    4.529419329403395    5.962464031798528    
  Si    2.4651704901510225    1.0321253618005024    5.962464594653018    
  Si    4.5294151445302555    5.96246570342889    1.032123529522393    
  Si    4.52941479113281    2.465176297189835    5.962467852467571    
  Si    2.4651723140024604    4.5294131855076785    1.0321201357704637    
  Si    4.529412471339726    4.529416664819773    4.529415303230335    
  Si    5.962463488564758    5.96246678400304    5.962465478574289    
  Si    2.465175136013259    5.96246995007343    4.529415550319198    
  Si    4.529411436169081    1.0321197525840151    2.4651732540904336    
  Si    5.962465989195331    4.52941602524164    2.465175793792459    
  Si    1.0321200542834796    2.465174101336737    4.5294131269514555    
  BEGIN_BLOCK_DATAGRID_3D    
  3d_datagrid_density    
  BEGIN_DATAGRID_3D#0    
  31    31    31    
  0.0    0.0    0.0    
  6.994585729297588    5.579019525586207e-07    9.210472213793102e-07    
  5.579020851103448e-07    6.994588127894852    9.311206357827587e-07    
  9.210473391793102e-07    9.31120657162069e-07    6.994587643073899    
  0.07938909274698068    0.0817587894640657    0.08820088834393876    0.09707371402913807    0.10630773246320836    
  0.11385386214582156    0.11883836479362343    0.12138520927578891    0.12138548617511766    0.11883830979307641    
  0.11385419865707519    0.1063076980832767    0.09707416633778766    0.08820091547278622    0.08175933562651523    
  0.0793891010244089    0.0817594944484678    0.08820113725961036    0.09707462614310507    0.10630802623296481    
  0.11385476250299628    0.11883858042283076    0.1213859824291848    0.12138539244181648    0.11883891471888028    
  0.11385403164186145    0.1063081378680537    0.09707384544937118    0.088201143578763    0.08175883815669603    
  0.07938909274698068    0.08175879007839738    0.09372328981085108    0.11059487105298327    0.13042376878977316    
  0.15015013560735188    0.1665230234101675    0.17778870122175217    0.183611746949575    0.18361158885869533    
  0.17778912947804104    0.16652305323352493    0.1501506296609557    0.13042387527485583    0.11059548837152836    
  0.09372338011796165    0.08175933951093332    0.07529418302983353    0.07351116482527877    0.0747694392489889    
  0.07735734271575755    0.07986056364431825    0.08151584525129614    0.08227299300663098    0.08227344286322558    
  0.08151532924336072    0.07986082828511064    0.0773567212508434    0.07476954598961555    0.0735106277297252    
  0.07529420256775908    0.08175879007839738    0.08820093465747722    0.10974142963049902    0.13839454214438252    
  0.17153563149978285    0.20470642762713254    0.2336388623494139    0.25481408589525295    0.26574242444729695    
  0.2657427956836248    0.25481416923834543    0.23363949354532307    0.2047066454430698    0.171536396935925    
  0.13839464317470854    0.10974204029073009    0.08820089968073158    0.07414385599389088    0.0663741141650151    
  0.06287482111309657    0.06174816927650773    0.06163603939236168    0.061723257343601005    0.06172864498627043    
  0.06172824804564541    0.06172364084584991    0.06163562494272825    0.06174840065897458    0.06287432613539325    
  0.06637430205034471    0.07414340805531307    0.08820093465747722    0.09707366737072652    0.1264477734531173    
  0.16538773310831076    0.21048768952329291    0.25624204370716813    0.29825367181179246    0.3309497166795414    
  0.3482263861708136    0.34822628518188675    0.3309503881517726    0.29825386971727197    0.2562427324729116    
  0.21048789414719918    0.16538845345226486    0.1264478122769187    0.09707422077460046    0.07744205041305537    
  0.06582034564611285    0.05969143561208891    0.05675308859124417    0.05548300773714399    0.05497494865326629    
  0.05475781462396116    0.05475817431843298    0.054974619372920704    0.055483389934441116    0.056752766146984    
  0.059691669771801945    0.06582002255660957    0.07744224694444955    0.09707366737072652    0.10630776422783673    
  0.13950336396631394    0.18341065042414145    0.2340943903734597    0.2864125785145105    0.33623318546078607    
  0.376530908155917    0.39863811173391417    0.39863857593298296    0.3765310647374851    0.33623395259968036    
  0.28641277229259166    0.2340952061128869    0.18341081000530463    0.13950406086968478    0.10630772995526978    
  0.08417674984267463    0.07109198595859138    0.06423273796469538    0.061042329350876036    0.05974021451868848    
  0.05925372801634511    0.05904682580138656    0.05904647279079655    0.05925414371751737    0.05973989284171715    
  0.06104274177480668    0.06423242669908572    0.07109230379449955    0.08417632123417422    0.10630776422783673    
  0.11385376205670557    0.14496431439106564    0.18638094980267156    0.2341229011901478    0.2837571845258059    
  0.3311917135818506    0.36965763486175823    0.39131970405422173    0.39131960834166113    0.36965828591568484    
  0.33119181134925557    0.2837579025645425    0.2341231212563565    0.18638171802180148    0.14496427928614938    
  0.11385436257940533    0.0936426392415779    0.08230819493324618    0.07713715180835751    0.07553587031801103    
  0.07549242859209024    0.07585269048736168    0.07609748799031353    0.07609798081038638    0.07585236634667497    
  0.07549290429958674    0.07553559133435425    0.07713753670229526    0.08230782565968367    0.09364282478166577    
  0.11385376205670557    0.11883846849777968    0.14174967385090734    0.17357376527554116    0.21084780387402213    
  0.24952861921856434    0.28571046946932993    0.31434668559380874    0.33037768517617044    0.33037817860815283    
  0.31434674995145306    0.2857112247698983    0.24952875712622383    0.21084860651810303    0.1735739227639629    
  0.14175041452229634    0.11883843148793796    0.10541616676314979    0.09986364303548624    0.09982727673491805    
  0.10265281009924529    0.10608196711490708    0.10888507683394445    0.1104647348568754    0.11046434922354016    
  0.10888573118001613    0.10608165592398393    0.10265333395475633    0.09982687419770236    0.09986398801737563    
  0.10541568965706397    0.11883846849777968    0.1213852235881782    0.13196382238482882    0.14995467654251027    
  0.17279552454635017    0.19698598543348725    0.21925119222542833    0.23633486327123626    0.24557888049546234    
  0.24557876421201041    0.23633528673906135    0.21925120816670352    0.19698652698678212    0.17279565075316486    
  0.14995533739291736    0.13196391165261784    0.12138589216750696    0.11881462891914839    0.12330497807539584    
  0.13272080602499162    0.14410284532854714    0.1547691133091244    0.16285703469815163    0.16717965938922408    
  0.16718024741309906    0.16285655208667416    0.15476974746597927    0.14410230605172072    0.13272114482948524    
  0.12330438907382926    0.11881470799214369    0.1213852235881782    0.12138550356724086    0.11881444595716442    
  0.12330464874362725    0.1327208059286139    0.14410273304637103    0.1547695458706738    0.1628572032635062    
  0.16718025615979257    0.16718054723634376    0.16285712675803    0.1547699672841957    0.14410263317278849    
  0.13272137959916064    0.12330472474996998    0.11881517165888644    0.12138565169575151    0.13196453225541924    
  0.1499550734603789    0.1727963256982905    0.19698616428568924    0.21925149237593658    0.2363345659344164    
  0.24557887175586388    0.24557816368527835    0.23633520813878944    0.21925077620283837    0.19698644201760682    
  0.17279540242986788    0.14995516062322498    0.13196368814690088    0.12138550356724086    0.11883833210567228    
  0.10541600281798119    0.09986375083359804    0.0998271922883473    0.10265313407739042    0.10608211909022591    
  0.10888561245861184    0.11046493119288672    0.11046481518305375    0.10888591006372805    0.10608202259020529    
  0.10265349205360781    0.09982722429339001    0.09986435713697017    0.10541626232627452    0.11883936537860348    
  0.14175062190096493    0.17357514870250523    0.21084893784278383    0.24953004804102225    0.2857112087540531    
  0.31434764924509173    0.33037782535275473    0.3303785985243482    0.31434649073414234    0.2857113515716857    
  0.24952856703060322    0.2108486361710903    0.17357381660466534    0.14175024187171867    0.11883833210567228    
  0.11385429862477052    0.09364274258420507    0.08230811213328819    0.07713738911141639    0.07553593429806864    
  0.0754927685064284    0.07585276468812774    0.0760978827366507    0.0760980704789126    0.07585270325702657    
  0.07549304861044237    0.07553587601274672    0.07713785927440807    0.08230827748628983    0.09364360813826672    
  0.11385480235913986    0.14496588352999115    0.18638261166566425    0.23412513287903294    0.28375897121861904    
  0.33119401915868024    0.36965906129952425    0.3913213919389439    0.39132023941623595    0.36965926035111646    
  0.3311920146733238    0.28375831367829524    0.23412315632587874    0.1863818803077439    0.14496435495545695    
  0.11385429862477052    0.1063078708632777    0.08417664745254655    0.0710921274246749    0.06423266962545414    
  0.061042556228613314    0.059740170011574306    0.059253981330988054    0.05904689155741858    0.05904678985123157    
  0.05925421755073476    0.05974017758945689    0.06104292938860692    0.06423283771753004    0.07109279521929178    
  0.08417711397081744    0.10630912540527977    0.13950501428897957    0.18341313529449654    0.2340968119078312    
  0.2864156692739614    0.3362358242197296    0.3765340424772867    0.39864023710034513    0.3986408470241988    
  0.3765320832760389    0.336234949985626    0.2864131273990093    0.23409560224327924    0.1834110475366837    
  0.1395041257213462    0.1063078708632777    0.09707421540612661    0.07744214636750953    0.06582027757044061    
  0.05969151182156445    0.05675297652983494    0.05548319120764063    0.05497485321413627    0.05475804878087434    
  0.05475822991858564    0.054974891961847065    0.05548357701167793    0.056753148648557544    0.05969211733448621    
  0.0658206074267286    0.0774431544506234    0.09707491221168088    0.12644970953091375    0.16538990294270642    
  0.21049076262222755    0.2562449543517495    0.29825730540193124    0.3309526703212563    0.34822958169734664    
  0.3482282059071436    0.3309522161198272    0.2982547615006444    0.2562436373148368    0.2104882538292248    
  0.16538881639631178    0.12644802452376275    0.09707421540612661    0.088200955060578    0.07414371700869532    
  0.06637416420488176    0.0628745467998081    0.061748183284073964    0.061635885152477164    0.06172340793633204    
  0.061728560022601645    0.061728562019157746    0.06172378505934479    0.06163615187995276    0.06174886960863111    
  0.06287502297395214    0.06637501241840885    0.07414434036941668    0.08820226684377379    0.1097430554364027    
  0.13839688788104243    0.1715381266376785    0.20470964438220068    0.2336415420578373    0.2548172666289161    
  0.26574467279580266    0.26574499861320633    0.2548154846976942    0.23364069557493541    0.20470724214227942    
  0.1715368445255229    0.1383949535381555    0.10974217568196895    0.088200955060578    0.08175923609297134    
  0.07529411504260645    0.07351089292282434    0.0747693255129594    0.07735698648868711    0.07986049461379657    
  0.08151559658877268    0.08227318555641805    0.08227356285864684    0.08151599127671415    0.07986138761240984    
  0.07735763829684089    0.07477039132017442    0.07351157234923368    0.07529534386746364    0.08175998682280546    
  0.09372491418638837    0.11059661635247711    0.1304260312873465    0.15015216680831528    0.16652547574534274    
  0.1777905686256135    0.18361381163398705    0.18361285945767225    0.17779041710678334    0.1665236771365711    
  0.15015129983278305    0.1304241794212092    0.11059567703735722    0.09372342965328426    0.08175923609297134    
  0.07938907540385874    0.08175918342246213    0.08820095099183153    0.09707407793231015    0.1063078050218723    
  0.11385424316044168    0.11883853351430507    0.12138591678709634    0.12138607093031882    0.11883958674147001    
  0.11385529255589494    0.10630935304848783    0.09707524743858383    0.08820241704388901    0.081760114471957    
  0.07939041124555955    0.08176000260654637    0.08820238276883297    0.0970750240794378    0.10630937217012573    
  0.11385510381766205    0.11883990531588305    0.12138613156231634    0.1213865018202245    0.11883888283286273    
  0.11385484430720279    0.10630794399825379    0.09707439864884983    0.08820104741875552    0.08175928912476567    
  0.07938907540385874    0.08175924906314241    0.09372337441618266    0.11059541114125851    0.13042393190049245    
  0.15015062516536481    0.16652321152843655    0.17778939287597784    0.18361230791020738    0.18361303776073135    
  0.17779053244315432    0.16652528368675162    0.15015246208407063    0.1304261253796746    0.11059687296916051    
  0.09372506764407465    0.08176007243999708    0.07529533395078367    0.0735115023221023    0.07477043867463529    
  0.077357504348217    0.0798614925116984    0.08151584151329978    0.08227384720569708    0.08227332306925798    
  0.08151601801666193    0.07986062845398821    0.07735728499065388    0.0747693935699152    0.0735110609767046    
  0.07529415048437907    0.08175924906314241    0.0882010177075857    0.10974204323284101    0.13839475330675782    
  0.1715362604314079    0.20470664197547156    0.23363944622423272    0.25481446263013885    0.26574360176830075    
  0.2657441254988302    0.25481662040303266    0.23364180362879633    0.20470964292994928    0.17153856235774304    
  0.13839712960655356    0.10974334590387863    0.08820239928543756    0.07414433617796234    0.06637505389249529    
  0.06287493381240797    0.0617489105681227    0.061635963729994137    0.0617239227628924    0.06172848192086198    
  0.06172877344196011    0.06172340789140264    0.061636071012926785    0.06174820182580848    0.06287474688364975    
  0.06637419293331001    0.07414385071051065    0.0882010177075857    0.09707424683591476    0.12644797093080531    
  0.16538846268721452    0.21048794829070724    0.2562426413339546    0.2982537899670664    0.3309504555551494    
  0.3482269356205407    0.34822809551601375    0.3309522842230497    0.2982568987560785    0.25624534789988634    
  0.21049101122001077    0.1653904628248706    0.12644998404873806    0.09707512170954567    0.07744323177179    
  0.06582058826264081    0.05969217348592122    0.05675302533896727    0.05548363329778191    0.054974757149425506    
  0.05475833486549851    0.05475792952287671    0.05497504163063348    0.05548310740785621    0.05675311859159363    
  0.059691476130050845    0.06582041709798203    0.07744223166707846    0.09707424683591476    0.10630792382953977    
  0.1395041110836505    0.18341094218713308    0.23409510501116637    0.28641256099250223    0.33623342276223495    
  0.37653062138630256    0.3986386079940499    0.3986391789461071    0.3765330597282942    0.3362358615629283    
  0.2864156475308341    0.23409737142822493    0.18341345965443773    0.13950547470881508    0.10630931988928567    
  0.08417721538494398    0.07109290593635    0.0642327916848529    0.06104303829476053    0.05974005341620928    
  0.0592542673823337    0.059046592273468784    0.059046926546292025    0.059253840286473576    0.05974029871856853    
  0.061042458055526626    0.06423278394068331    0.07109215685655207    0.08417680218747396    0.10630792382953977    
  0.11385438865922716    0.14496451380376385    0.18638170849945382    0.23412295536859784    0.28375753382406405    
  0.33119109950458553    0.3696574286587693    0.39131900154465654    0.39132003516747776    0.36965874731332454    
  0.33119353630782983    0.28375935755043763    0.23412548096958674    0.1863831727531566    0.14496626611772406    
  0.1138550425919948    0.0936437809440695    0.08230834163117057    0.07713795994080458    0.0755357783348632    
  0.0754930863793353    0.07585250174298627    0.07609805265323924    0.07609763832335736    0.0758528412654054    
  0.07549254500029548    0.07553591733843376    0.07713725391602837    0.08230823028295904    0.09364280179294843    
  0.11385438865922716    0.1188384772095424    0.14175027952559313    0.17357388256793557    0.21084831121010786    
  0.24952827853143067    0.28571022225734916    0.3143455140088399    0.33037708518652203    0.33037726557191177    
  0.314347033126575    0.28571138678566577    0.24953004749950178    0.2108494668819064    0.17357553831699643    
  0.14175110131358187    0.1188396650923532    0.1054164228197512    0.09986459164060538    0.09982725639489881    
  0.1026536308978251    0.10608184967353954    0.10888586141824498    0.1104644591133966    0.11046491081015455    
  0.10888530021014578    0.10608207262287958    0.10265286255467881    0.09982719216432509    0.0998637199729324    
  0.10541614774076381    0.1188384772095424    0.1213856812719426    0.13196387046798513    0.14995513641078237    
  0.172795489117581    0.1969860304448955    0.21925039684969883    0.23633426173287703    0.24557769208522226    
  0.24557822530876658    0.23633447773684985    0.21925137068289915    0.1969865381850054    0.17279653525418384    
  0.14995563389271901    0.131964924384663    0.12138601781858441    0.11881547690369204    0.12330490430331216    
  0.13272166661432314    0.14410264657070562    0.15477002045907337    0.16285680644585024    0.1671804574580736    
  0.16717970950342093    0.16285703142048416    0.1547690977070305    0.14410261333896573    0.13272060524955126    
  0.12330476005159119    0.11881454117197414    0.1213856812719426    0.12138533228856417    0.11881485098232392    
  0.1233045952310822    0.13272108439221994    0.14410232815060978    0.15476938402245438    0.16285634715187638    
  0.16717977635013156    0.167179642186053    0.16285682265208992    0.15476939932812758    0.144102888374301    
  0.13272116677149307    0.12330526519333328    0.1188150243248304    0.12138629330374104    0.1319642662505787    
  0.1499557550689131    0.17279590558953525    0.19698690356379786    0.2192509573225351    0.23633536072765243    
  0.24557825923952437    0.24557865470169205    0.23633429059044095    0.21925107533686639    0.19698562700537553    
  0.17279559425699795    0.14995462809846172    0.1319640636085228    0.12138533228856417    0.11883863112620002    
  0.10541583602241612    0.0998640390961787    0.09982704759512115    0.10265319034911972    0.1060816666819382    
  0.10888540474794108    0.11046429109461406    0.11046452495063318    0.10888530134857205    0.10608190066940922    
  0.1026530370715328    0.09982739315128467    0.0998639766937853    0.1054165475373844    0.11883878920133284    
  0.14175091127435738    0.17357439626970048    0.2108493465268428    0.24952908070199895    0.2857117338745332    
  0.3143464990818543    0.330378346681712    0.33037728600861493    0.3143466753851276    0.2857100316423477    
  0.24952865013184228    0.21084772080715666    0.17357400408523566    0.14174979131724133    0.11883863112620002    
  0.11385395853014989    0.09364292898777134    0.08230797557343847    0.07713758389930817    0.07553574055059716    
  0.07549277493769385    0.07585240642043092    0.07609777805652798    0.07609762832408692    0.07585256868307978    
  0.07549257391303671    0.0755358182594638    0.07713739304952445    0.08230832107078234    0.0936430195659146    
  0.11385478332660215    0.14496489411719332    0.18638250493346933    0.23412375050517448    0.28375884495607456    
  0.3311922141643058    0.36965899602304797    0.39131950007169153    0.3913200728559984    0.36965744013095914    
  0.33119190101937546    0.28375704195017076    0.23412311070062394    0.18638104497001795    0.1449645264238072    
  0.11385395853014989    0.10630797164249972    0.08417639513504492    0.07109224835399132    0.06423252318768595    
  0.06104264855754256    0.05974000025938192    0.05925397981818533    0.059046608529095664    0.05904671452750572    
  0.05925384230188678    0.05974008819648581    0.061042454647746665    0.06423274839539445    0.07109220959788369    
  0.08417701130727426    0.10630819389221124    0.13950475229597764    0.183411576527326    0.23409626717186446    
  0.28641359775829883    0.3362350373245013    0.3765315853849604    0.39863945515850074    0.3986384274488848    
  0.37653168936783765    0.3362332488274873    0.2864130187729976    0.23409450740422483    0.18341103797977285    
  0.13950352908443475    0.10630797164249972    0.09707381585088036    0.07744222207041541    0.06582007572670216    
  0.059691631896671565    0.0567528257384214    0.0554832437257111    0.054974657581904084    0.054758038334166655    
  0.054757900397166846    0.05497478823041298    0.05548311458008825    0.05675297758863722    0.05969152627668956    
  0.06582042132535715    0.07744235588612647    0.09707458264280099    0.12644835429309342    0.165389311950962    
  0.21048874708158044    0.2562440006529532    0.2982547351921589    0.33095167011822635    0.34822685229575007    
  0.3482274179805737    0.3309501400328336    0.2982544777979552    0.25624221381999013    0.2104881867510886    
  0.16538798586978615    0.12644810123057046    0.09707381585088036    0.08820104540206704    0.07414343600952523    
  0.06637423772490418    0.06287437897316324    0.06174825649322324    0.06163566497663502    0.061723395345466024    
  0.061728262911170555    0.061728386037275956    0.061723275668959854    0.06163584295460054    0.06174817586319348    
  0.06287465566379387    0.06637417846299876    0.07414395761531549    0.08820114794176695    0.10974252307136322    
  0.1383951925361799    0.1715373392871618    0.20470745603171528    0.23364056158848925    0.2548148173527256    
  0.2657438570524684    0.26574284627716355    0.2548150833024796    0.23363920601175955    0.20470720071634962    
  0.17153592279223154    0.13839496562660736    0.10974164604289514    0.08820104540206704    0.08175885236492546    
  0.07529412383549171    0.07351061688799573    0.07476932533292492    0.07735670208599625    0.07986050764509314    
  0.08151523212210195    0.0822729951800358    0.08227291424589486    0.08151550120513726    0.07986043191806039    
  0.07735696446239591    0.07476932996312066    0.07351098739835177    0.07529421524901962    0.08175948996842111    
  0.09372360231480095    0.11059603027111446    0.13042439415665413    0.15015154571634007    0.16652360675339584    
  0.17778997774535207    0.1836120491059428    0.18361254474838803    0.1777890924915957    0.16652367752784006    
  0.1501503708320298    0.13042423871498623    0.11059510337295164    0.09372350745909512    0.08175885236492546    
  0.07938909274698068    0.0817587894640657    0.08820088834393876    0.09707371402913807    0.10630773246320836    
  0.11385386214582156    0.11883836479362343    0.12138520927578891    0.12138548617511766    0.11883830979307641    
  0.11385419865707519    0.1063076980832767    0.09707416633778766    0.08820091547278622    0.08175933562651523    
  0.0793891010244089    0.0817594944484678    0.08820113725961036    0.09707462614310507    0.10630802623296481    
  0.11385476250299628    0.11883858042283076    0.1213859824291848    0.12138539244181648    0.11883891471888028    
  0.11385403164186145    0.1063081378680537    0.09707384544937118    0.088201143578763    0.08175883815669603    
  0.07938909274698068    0.0817588096839596    0.09372327677728363    0.10974150210663677    0.12644773978529011    
  0.13950341341186984    0.14496422743676995    0.14174970621444918    0.13196378725310978    0.11881452822074212    
  0.10541590475660044    0.09364279287335708    0.08417661289479451    0.0774422024248272    0.07414381409719453    
  0.07529422812626232    0.0817594684531759    0.09372361545786052    0.10974251364513356    0.1264482929014794    
  0.13950454414960223    0.14496465057364954    0.1417506362732215    0.13196385244689482    0.11881502888096371    
  0.10541578199886803    0.09364309828047954    0.08417637028319229    0.07744235485721736    0.07414347062225389    
  0.0752941689138453    0.0817588096839596    0.0937232968504478    0.11820072077696016    0.14907396792015548    
  0.18094087296393652    0.20653321894096496    0.2193052247348837    0.21678255399819893    0.20115629027814338    
  0.17788028488673172    0.1531759318974301    0.1306112170486531    0.11139945657228614    0.09596362935193004    
  0.08452628157196504    0.07753676629652466    0.07529419849479893    0.07753689470074852    0.08306642691257014    
  0.08965991632502408    0.09482104307430728    0.09649000814197406    0.09398934484370294    0.08841226487101114    
  0.08157797723358615    0.07505460178835287    0.06982013094308621    0.0664653865971437    0.06569549520858517    
  0.06879495984790066    0.07753630550038833    0.0937232968504478    0.11059495108163545    0.14907400172008287    
  0.1970910644521237    0.24577842398371783    0.285036469940768    0.30875236308081605    0.31181071915263026    
  0.2915388116103877    0.25533016985280055    0.21500013854020322    0.17740797454786067    0.14517308072576532    
  0.11885296563096438    0.09813664618026903    0.08306626275009951    0.07351102232838094    0.06879484093505606    
  0.0677512156075904    0.0686610293165549    0.06975373646381507    0.06976694797029992    0.068175556928826    
  0.0653755327324535    0.06226229087928772    0.059582574257266985    0.05799296061157955    0.058177107860382694    
  0.06123301050506738    0.06910403954351707    0.08452627652533737    0.11059495108163545    0.13042382430284644    
  0.1809408020110743    0.24243157356789194    0.3011696750382074    0.3473023313938557    0.38221297266287385    
  0.39821459869671655    0.37991862590444936    0.3328668163722533    0.276378574217393    0.22300157187519742    
  0.17749934966359995    0.14057172455510114    0.11142724754533911    0.08965959193570398    0.0747693241724178    
  0.0656958533609019    0.06108903939482692    0.05929644333352712    0.058748915348665436    0.05846832368283384    
  0.057933919756681704    0.05711471231192748    0.056342721572969635    0.05594859193046863    0.05648111418374816    
  0.05873619816554199    0.06413447894339394    0.07530955132534391    0.09596316456675741    0.13042382430284644    
  0.15015011524653477    0.2065333337832537    0.2727127192942615    0.33125052697382223    0.375702233049033    
  0.4165781626627591    0.4447389004415935    0.43244205997293833    0.3803575150512189    0.31359045628191545    
  0.2503052649188823    0.19667790110563804    0.15355761660038694    0.11997451492963145    0.09482091240056123    
  0.07735710097334278    0.06646517815798876    0.06065339960270578    0.05826434806574921    0.057811325686716285    
  0.05842036942554398    0.05948397092466925    0.06069774481202499    0.06210421540829067    0.06371429211232418    
  0.06585050093388323    0.06924053521531406    0.07560247899848879    0.08819849880895789    0.11139955972527478    
  0.15015011524653477    0.16652302395320273    0.21930515087469848    0.2809764279588386    0.3345826716060041    
  0.3750218378076889    0.412676649124575    0.4384219701018319    0.4256689604470612    0.37430499183541505    
  0.308616011822157    0.24688722061571414    0.19469473327269876    0.15286701063054867    0.12059882679220454    
  0.09648974605976106    0.07986044082848125    0.0698204397000158    0.06503611021774677    0.06403864117147863    
  0.06543288651612977    0.06841740560175714    0.07242960188189952    0.07701066076382229    0.08175684892368146    
  0.0860708935573287    0.08976542226817483    0.09330073411941253    0.09863837628662214    0.1095804621605738    
  0.1306108263664122    0.16652302395320273    0.17778865825830165    0.21678259008437586    0.2647322657378495    
  0.30940580238671184    0.3440221423857963    0.37052444815243984    0.3813901912106101    0.3627186329572414    
  0.3180082225038879    0.2644913347107764    0.21473446756265058    0.1727033680887906    0.1390277410093745    
  0.11307546233429006    0.09398934396999889    0.08151573051368857    0.07505425831563571    0.07368919566667387    
  0.07635396368089276    0.08190914476004571    0.08973254424909408    0.09935068553931728    0.11004707777274093    
  0.12058143312063282    0.12906624377376624    0.13427961953668038    0.13619879647369626    0.13696554972694128    
  0.14103417068696758    0.15317599601622597    0.17778865825830165    0.1836117978479355    0.20115610133004388    
  0.22769547298325965    0.25613416360330554    0.2792003258138985    0.29237758649734263    0.29079596320586265    
  0.27115825258852333    0.2384644916537582    0.20210510637368923    0.1684175316816733    0.1399503929446931    
  0.11732103847988569    0.10016812175866353    0.08841219593758474    0.08227307101870741    0.08157835369838795    
  0.08595794527305373    0.09479152010477775    0.1074603369670165    0.12378090320424849    0.14317530374292797    
  0.16423578864810953    0.18416765191287957    0.19858107703154568    0.20425809010803475    0.2010991196500966    