#     DFTpy    
  CRYSTAL 
    
  PRIMVEC    
  3.1459509599581064    -1.7284468e-10    3.276146193103448e-10    
  -1.7284468e-10    3.145950959775304    1.5786056482758622e-10    
  5.986744103448276e-10    2.8851822068965515e-10    5.76344312916009    
  PRIMCOORD    
  4    1    
  Si    1.5729754799191165    1.5729754807533103    1.771072931091865    
  Si    5.832998930984743e-10    -5.39836276417871e-10    1.1106486315507895    
  Si    8.946449339276915e-11    4.0770530437200216e-10    4.652794494340231    
  Si    1.57297548039073    1.5729754795583164    3.9923702018227685    
  BEGIN_BLOCK_DATAGRID_3D    
  3d_datagrid_density    
  BEGIN_DATAGRID_3D#0    
  15    15    25    
  0.0    0.0    0.0    
  3.1459509599581064    -1.7284468e-10    3.276146193103448e-10    
  -1.7284468e-10    3.145950959775304    1.5786056482758622e-10    
  5.986744103448276e-10    2.8851822068965515e-10    5.76344312916009    
  0.6324615471468861    0.5864905889904019    0.470526267715706    0.33461388367064426    0.22247958163342363    
  0.1494960027779603    0.11110586196321737    0.09939389608582727    0.11110584130349375    0.14949600080563355    
  0.222479597509125    0.3346138743688452    0.4705262990021005    0.5864906389220159    0.6324615471468861    
  0.5864906017610323    0.5448136702968562    0.44002967454497216    0.3171040670563938    0.2144470405002712    
  0.1465333914610183    0.11038573301800123    0.0993125691224979    0.1103857374231212    0.1465333951462639    
  0.21444701106097494    0.31710407676403746    0.440029681043089    0.5448136730991822    0.5864906017610323    
  0.47052627552253534    0.4400296873758929    0.36301344748841774    0.2714416505822326    0.1925555176857005    
  0.13820342564597707    0.10842399335816091    0.09918027884127215    0.1084239924590698    0.13820341320545532    
  0.19255552363385786    0.2714416430358192    0.36301348030236125    0.4400297057034801    0.47052627552253534    
  0.3346138708013042    0.31710407642881483    0.27144161609579665    0.2149944202427916    0.16403612610137808    
  0.12694429883122488    0.10578100453947427    0.09911992780706326    0.10578097959294915    0.12694429343791452    
  0.1640361175065576    0.2149943988271131    0.2714416491528202    0.3171040675339315    0.3346138708013042    
  0.22247959401150985    0.2144470167416006    0.19255548696462094    0.16403612743490087    0.13688814889531298    
  0.11583312472017598    0.103182460980577    0.09910043319556629    0.10318244972901311    0.11583310951349685    
  0.13688812690760968    0.164036109284111    0.19255550662812396    0.21444701424855495    0.22247959401150985    
  0.14949601374708546    0.14653340517359242    0.13820343030174376    0.1269442854081906    0.1158331280938325    
  0.10683875005581021    0.10113776128639358    0.0992335712479566    0.10113775546564983    0.10683873034719771    
  0.11583312637584432    0.1269443137562364    0.1382034407808651    0.14653338182787742    0.14949601374708546    
  0.11110584577706614    0.11038574744296852    0.10842397191442069    0.10578099054644044    0.103182448065234    
  0.1011377663196816    0.09980127571665084    0.09928615245479126    0.09980128449080115    0.10113775647345943    
  0.10318244831621586    0.10578100519666239    0.10842398597146496    0.11038574974866805    0.11110584577706614    
  0.09939389784481538    0.09931254458482426    0.09918027385747671    0.0991199392739098    0.0991004368380188    
  0.09923357644480142    0.09928614056606798    0.09921863930006418    0.09928611699231572    0.09923355636011183    
  0.09910044316430622    0.09911991345267855    0.09918027179054024    0.09931256030265828    0.09939389784481538    
  0.11110584621491572    0.11038573444935082    0.10842397980719666    0.10578099330012229    0.10318245034168741    
  0.1011377533846231    0.09980127592631058    0.09928612906126331    0.09980127684770487    0.10113774470696109    
  0.1031824389524161    0.10578098436142858    0.10842398599342933    0.11038574642754422    0.11110584621491572    
  0.14949601789595182    0.14653340580702692    0.13820340136486883    0.12694429378070723    0.1158331235904081    
  0.10683873483439435    0.1011377585149253    0.09923357251131024    0.10113777414064555    0.10683872653001883    
  0.11583313331115355    0.126944298072782    0.13820344068104834    0.14653340047707356    0.14949601789595182    
  0.22247959729334138    0.21444702812176858    0.1925555079343824    0.16403612664305903    0.13688814592503357    
  0.11583312579531506    0.10318244386569493    0.09910043365122322    0.10318244119308044    0.11583310390158871    
  0.13688812704696016    0.16403610005013222    0.19255549218448959    0.21444699495764424    0.22247959729334138    
  0.33461386245161295    0.31710406200757807    0.2714416340211753    0.21499442183311315    0.16403612508325283    
  0.12694429204721594    0.10578099654656853    0.0991199249675061    0.10578099917678899    0.12694429272221028    
  0.16403612231687    0.21499440090693253    0.27144163144274946    0.31710405870314035    0.33461386245161295    
  0.4705263106615514    0.44002966765619334    0.3630134744299974    0.2714416347403741    0.19255550645036185    
  0.1382034267068727    0.10842398906569557    0.0991802745448871    0.10842398834678854    0.13820342323724824    
  0.1925555046458372    0.27144164830535494    0.3630134835887741    0.4400296610444524    0.4705263106615514    
  0.58649061875104    0.5448136444110158    0.44002964345841244    0.31710406861455304    0.21444703822190045    
  0.14653339188430298    0.11038573938877036    0.0993125703416123    0.11038574234230576    0.14653339725584777    
  0.2144470246459735    0.31710407554299164    0.44002965985412745    0.544813684321277    0.58649061875104    
  0.6324615471468861    0.5864905889904019    0.470526267715706    0.33461388367064426    0.22247958163342363    
  0.1494960027779603    0.11110586196321737    0.09939389608582727    0.11110584130349375    0.14949600080563355    
  0.222479597509125    0.3346138743688452    0.4705262990021005    0.5864906389220159    0.6324615471468861    
  0.6112407322835449    0.575140031657383    0.475884153262078    0.34769300539636916    0.23487923615972678    
  0.1590072744704807    0.11857799243745576    0.10621718388531816    0.1185779662673623    0.15900725569331037    
  0.23487925298417223    0.3476930023722267    0.47588417718474807    0.5751400608798045    0.6112407322835449    
  0.5751400093566573    0.5410601469579536    0.4488174082596617    0.33096026432261016    0.22696247483276824    
  0.15627276293437917    0.11821309362110673    0.106492242147392    0.11821310156497332    0.15627275066867588    
  0.2269624494102244    0.3309602397483729    0.4488174270803153    0.5410601449156549    0.5751400093566573    
  0.4758841472550493    0.44881746598760974    0.37702317183669865    0.286477047760516    0.20553105498691468    
  0.14882714715434056    0.1173698186265544    0.10750751471263399    0.11736982056715456    0.14882713464396086    
  0.2055310569600535    0.28647703062117813    0.3770232108323909    0.4488174650850266    0.4758841472550493    
  0.3476930183091714    0.3309602444172273    0.28647700595141873    0.2297402725428591    0.1773833390215704    
  0.13884017640750623    0.1164536545080914    0.1092557868844655    0.11645363741693711    0.13884018207177112    
  0.1773833472639285    0.22974025261703446    0.2864770554999851    0.33096025286385267    0.3476930183091714    
  0.23487922258001734    0.22696246149272284    0.20553102914923638    0.1773833555080386    0.1501379077155256    
  0.1287483119472091    0.11561156573405787    0.1112730478708267    0.11561155936391546    0.12874829809047805    
  0.1501379021168599    0.17738331698387072    0.20553104904441105    0.22696245885424784    0.23487922258001734    
  0.1590072573055974    0.15627278367145925    0.1488271368783514    0.13884017925190237    0.1287483237665332    
  0.12037723354237352    0.1149980626667284    0.1131721912388522    0.11499807462321263    0.12037721641772164    
  0.12874831566089992    0.13884018465123427    0.14882716276505328    0.1562727720546416    0.1590072573055974    
  0.11857795721134351    0.11821310567147594    0.11736979810125289    0.11645364833005163    0.11561157201931888    
  0.11499806626717714    0.11462371333221545    0.1144731260371525    0.11462373108667498    0.11499806515898388    
  0.11561155488725477    0.11645365610205739    0.11736981744175841    0.11821311310426566    0.11857795721134351    
  0.10621718712735399    0.10649221962884489    0.10750750087154763    0.10925580592457743    0.11127305948891879    
  0.11317217668813502    0.11447312940538178    0.1148742683930252    0.11447310720788607    0.11317216689779909    
  0.11127306623506446    0.10925579527396655    0.1075075058859261    0.1064922338390571    0.10621718712735399    
  0.11857797066167697    0.11821309034588943    0.11736981325409981    0.116453658404575    0.11561156921385134    
  0.11499806391676075    0.11462372783330801    0.11447312012210771    0.11462372428801205    0.114998063927887    
  0.1156115562011004    0.11645364480545335    0.11736980939226543    0.1182130931447497    0.11857797066167697    
  0.1590072689762064    0.15627279305572228    0.14882711344781063    0.13884018405468748    0.12874830976701496    
  0.12037723511614315    0.11499807923292772    0.11317218719240782    0.11499808212747835    0.12037722122685675    
  0.1287483251357254    0.13884017944166333    0.14882716176965843    0.15627278478342058    0.1590072689762064    
  0.23487924083010944    0.22696248132040123    0.20553102760303238    0.17738335484868065    0.15013790809490996    
  0.12874831571331663    0.11561156976162867    0.11127305399294946    0.11561156232831699    0.12874829539101518    
  0.15013790864348875    0.17738333218360652    0.20553104254873938    0.22696245768542758    0.23487924083010944    
  0.34769298933007553    0.33096025020284264    0.28647702122176727    0.22974028147992373    0.17738334465383662    
  0.13884017484705202    0.11645365764161932    0.10925579836151864    0.11645364923758526    0.13884016391165702    
  0.17738334077653162    0.2297402482045063    0.28647703062621394    0.3309602566679907    0.34769298933007553    
  0.4758842077428929    0.4488174585736643    0.3770231956587962    0.2864770374481298    0.20553105160363414    
  0.1488271604551171    0.11736981634261578    0.10750750234243284    0.11736982602948604    0.14882713214668924    
  0.2055310518793549    0.2864770482840434    0.37702323298706025    0.4488174440428135    0.4758842077428929    
  0.5751400183500083    0.5410601147594023    0.44881740382180263    0.330960270072395    0.22696248061547855    
  0.15627276738893164    0.11821309253724191    0.10649225547730204    0.11821308722493316    0.1562727745876696    
  0.22696246618586305    0.3309602627340943    0.4488174054069067    0.5410601457145836    0.5751400183500083    
  0.6112407322835449    0.575140031657383    0.475884153262078    0.34769300539636916    0.23487923615972678    
  0.1590072744704807    0.11857799243745576    0.10621718388531816    0.1185779662673623    0.15900725569331037    
  0.23487925298417223    0.3476930023722267    0.47588417718474807    0.5751400608798045    0.6112407322835449    
  0.4611972825480306    0.46728122709219416    0.4507074341701901    0.3733595687654226    0.2692299397996106    
  0.18704654210209593    0.14087373142720028    0.1265767221884964    0.1408737177789127    0.18704652198935265    
  0.2692299552158519    0.3733595802093678    0.45070745583417293    0.4672812684431476    0.4611972825480306    
  0.4672812537871752    0.46760205971146684    0.441046408494822    0.36164820388486435    0.2626275896131494    
  0.18557646342123993    0.14200204474371317    0.12838151735772013    0.14200205410244066    0.185576438699925    
  0.26262753917313675    0.36164818926535913    0.4410464395063226    0.46760203323579014    0.4672812537871752    
  0.4507074123406901    0.44104645251802527    0.4008584290637571    0.32627456707035607    0.24441126409868996    
  0.18173515639373602    0.14534421843799686    0.13363725178233313    0.14534421238316317    0.18173515417082517    
  0.2444112567307729    0.3262745444772417    0.40085847198442665    0.44104644833662443    0.4507074123406901    
  0.37335959454415163    0.3616482135648734    0.32627452896885406    0.27334083027715206    0.21884542563971507    
  0.17635171434401767    0.15037517941394102    0.14163982854439772    0.15037515700962062    0.1763517180603631    
  0.21884541241560282    0.2733408098402995    0.3262745600961778    0.3616481999067781    0.37335959454415163    
  0.2692299325945957    0.2626275578193449    0.24441124809589088    0.21884542126345896    0.19218008542802487    
  0.1702049796601662    0.15591740130852846    0.15090518087293212    0.15591738172302805    0.1702049667615506    
  0.19218005475768576    0.21884539362311856    0.24441126086498594    0.26262756058064807    0.2692299325945957    
  0.18704655496785277    0.18557645765044262    0.18173516529616354    0.17635171329943944    0.17020498904966583    
  0.16460054418488798    0.16075988424377308    0.15938887168860114    0.1607599010763751    0.16460052570525935    
  0.1702049909287641    0.17635173630953785    0.18173517141471787    0.18557643638389615    0.18704655496785277    
  0.14087370960815138    0.14200205344722627    0.14534419934853943    0.1503751804517681    0.15591738922882686    
  0.16075989433428814    0.16400907765277117    0.1651291625048417    0.1640090911303961    0.16075988864147808    
  0.15591738006366204    0.15037518466539104    0.14534421790475113    0.14200206442244986    0.14087370960815138    
  0.126576739670207    0.12838151745120055    0.1336372369153309    0.14163985325670972    0.15090518369850753    
  0.1593888588011153    0.16512916203203234    0.1671067655565994    0.16512913543899815    0.15938884222004618    
  0.15090520106608987    0.14163982516904128    0.13363724244768088    0.1283815355165012    0.126576739670207    
  0.1408737043715417    0.14200204996016105    0.14534420708305834    0.1503751850047296    0.15591738722094375    
  0.16075989528136267    0.16400907607820053    0.1651291475947963    0.16400908214759327    0.16075988698704508    
  0.15591737975060088    0.1503751696866164    0.14534420432900155    0.14200205921359949    0.1408737043715417    
  0.1870465474430118    0.18557646888972953    0.181735126319654    0.1763517413708165    0.17020497697996514    
  0.1646005474333151    0.16075991460270267    0.15938886242598488    0.16075991075268337    0.16460052844490847    
  0.17020499230956918    0.1763517223483906    0.1817351789846218    0.1855764762229724    0.1870465474430118    
  0.26922993870296197    0.26262756709254664    0.24441125055896967    0.21884541367751484    0.19218008734664907    
  0.17020497773020943    0.15591737814445972    0.15090519071951364    0.1559173752080216    0.1702049618801658    
  0.19218005401840732    0.21884539651614104    0.24441125034225775    0.2626275466284801    0.26922993870296197    
  0.3733595482044276    0.361648187808017    0.3262745526217613    0.2733408275640163    0.21884542813240362    
  0.1763517219488197    0.1503751957800887    0.14163984134911853    0.15037518246580975    0.17635170622982665    
  0.21884541083863723    0.27334082973911694    0.3262745664659614    0.3616482138861724    0.3733595482044276    
  0.4507074653749743    0.4410464427493279    0.40085845202736686    0.3262745505043448    0.24441125235617647    
  0.18173517698100208    0.1453442135935888    0.1336372343345456    0.14534421982403375    0.18173514240283933    
  0.2444112582138211    0.32627457221195494    0.4008584698311471    0.44104643596761306    0.4507074653749743    
  0.4672812396130738    0.46760204334914    0.44104642909436925    0.3616482465686474    0.2626275681268031    
  0.18557645826125108    0.1420020395458778    0.12838154195429796    0.14200205323998596    0.18557645560438013    
  0.2626275752550138    0.36164821137891245    0.4410464116812552    0.4676020617574553    0.4672812396130738    
  0.4611972825480306    0.46728122709219416    0.4507074341701901    0.3733595687654226    0.2692299397996106    
  0.18704654210209593    0.14087373142720028    0.1265767221884964    0.1408737177789127    0.18704652198935265    
  0.2692299552158519    0.3733595802093678    0.45070745583417293    0.4672812684431476    0.4611972825480306    
  0.20223008670802106    0.24838492144819568    0.34895125834887714    0.38392177953696893    0.31622560482789663    
  0.23019738537191792    0.17607729449312615    0.15885100622340798    0.1760772777292255    0.2301973617959828    
  0.31622564088196425    0.383921744658676    0.34895126812046634    0.2483849448776431    0.20223008670802106    
  0.2483849358200379    0.28994993331974556    0.37138722273167446    0.38561436738752686    0.31408241661076136    
  0.23194072517513564    0.1805526724555906    0.16406256729378396    0.18055266840136291    0.2319407097643133    
  0.3140823866872654    0.3856143600598383    0.3713872436064199    0.2899499290570073    0.2483849358200379    
  0.3489512456480519    0.37138725938793676    0.40146556209383816    0.37705323788571804    0.305726418750013    
  0.23641719446430665    0.192889613102867    0.17852492031062994    0.19288961553008288    0.23641718128394784    
  0.3057264153588275    0.3770532393702079    0.40146561006895043    0.3713872849005536    0.3489512456480519    
  0.3839217430755907    0.3856143475457275    0.37705321254717405    0.3411891603185184    0.2887199867141051    
  0.24158111618309877    0.21070079128971855    0.1999452262543121    0.2107007713792046    0.24158110717575612    
  0.2887199928593403    0.3411891334596664    0.3770532542747477    0.38561434558942653    0.3839217430755907    
  0.3162256092952834    0.31408240264330806    0.3057263818537235    0.2887200050781783    0.2663784115929296    
  0.2454568288811085    0.23043891826522572    0.22479934512357466    0.2304388831601851    0.24545682337088853    
  0.26637838520889123    0.288719960984901    0.3057264075125142    0.31408238227800844    0.3162256092952834    
  0.23019738276192012    0.2319407385728452    0.23641720322480397    0.2415811347182748    0.24545686325135802    
  0.24714878509133947    0.24700035321534602    0.24659157217576894    0.2470003380271395    0.24714874498129227    
  0.2454568555889175    0.24158113747452722    0.23641722503710066    0.2319407188177508    0.23019738276192012    
  0.1760772753857455    0.18055268582124204    0.19288960216094483    0.210700790005074    0.23043890504816175    
  0.24700036301958928    0.25684215561181545    0.2599177000567904    0.2568421794823146    0.24700034068969587    
  0.23043888749244226    0.21070079345425075    0.19288959866263977    0.18055268939535318    0.1760772753857455    
  0.15885101907237537    0.16406254219957594    0.17852491086147798    0.19994523903146802    0.22479934942491825    
  0.2465915791103489    0.259917689241986    0.2641258432650131    0.25991764930976163    0.24659154418006268    
  0.22479937008631717    0.1999452112701318    0.17852492152568586    0.16406255869125017    0.15885101907237537    
  0.1760772738121317    0.18055268813447983    0.19288959427536015    0.2107007927732621    0.23043889067146278    
  0.24700034598520723    0.25684214535335476    0.25991768256484094    0.2568421601151338    0.24700033471421087    
  0.2304388666913747    0.2107007640681006    0.19288960054025742    0.18055267854851012    0.1760772738121317    
  0.2301973758112983    0.23194073581702448    0.23641718094809192    0.2415811177773728    0.24545684805029938    
  0.24714876791653087    0.2470003778571987    0.24659155553276946    0.24700035752336538    0.2471487548887942    
  0.24545686838365738    0.24158112690546624    0.23641721124735662    0.2319407383580649    0.2301973758112983    
  0.3162256381223683    0.3140824126798959    0.3057264095536268    0.2887199885543996    0.26637839860142737    
  0.24545684585804053    0.2304388789599799    0.22479934513131838    0.230438864385991    0.2454568257336335    
  0.2663783860604665    0.28871995144334406    0.3057264133564446    0.3140823747254376    0.3162256381223683    
  0.3839217401332542    0.3856143799633896    0.3770532175775756    0.3411891561926604    0.2887200082277986    
  0.24158110791941775    0.2107007943991947    0.19994522606272108    0.2107007854497355    0.24158110978691794    
  0.288719991177488    0.34118911189741424    0.37705322903729316    0.38561434355430346    0.3839217401332542    
  0.3489512857805308    0.37138725819811075    0.4014655957380442    0.3770532353220096    0.30572642396287963    
  0.23641721046000946    0.192889611343951    0.17852491908167073    0.19288962198834542    0.2364172098076917    
  0.3057264204690423    0.377053259469391    0.4014656322238388    0.37138721575146894    0.3489512857805308    
  0.24838494339785983    0.28994995020886116    0.3713872084915945    0.38561437173554153    0.3140824196880706    
  0.23194072437659966    0.1805526601896146    0.16406258175427674    0.18055267202760442    0.23194073004181237    
  0.31408238587774445    0.3856143645151783    0.3713872315389319    0.2899499302569774    0.24838494339785983    
  0.20223008670802106    0.24838492144819568    0.34895125834887714    0.38392177953696893    0.31622560482789663    
  0.23019738537191792    0.17607729449312615    0.15885100622340798    0.1760772777292255    0.2301973617959828    
  0.31622564088196425    0.383921744658676    0.34895126812046634    0.2483849448776431    0.20223008670802106    
  0.06752772274376409    0.10983964286083453    0.250474895721929    0.38191328992919554    0.3637695489378768    
  0.279240520282586    0.21802483056415248    0.197830413014767    0.21802478172202255    0.27924050249396926    
  0.36376957133713866    0.3819132674480009    0.25047489029975356    0.10983964005392066    0.06752772274376409    
  0.10983965576492218    0.15790086176489748    0.2951147973474141    0.40024766791414473    0.3690466253898437    
  0.28608763767091894    0.22744366675711564    0.20806752085117408    0.2274436863950213    0.28608762561801027    
  0.3690466084916937    0.4002476240523521    0.2951148300726896    0.15790087235648537    0.10983965576492218    
  0.2504748727184474    0.2951148611043547    0.38978028483004035    0.42823253693254393    0.3775722806170859    
  0.3042584335712693    0.2540183506030333    0.23712729413214095    0.2540183504213916    0.30425842381011403    
  0.37757226947698513    0.42823250339473523    0.38978032214778324    0.2951148281185454    0.2504748727184474    
  0.38191329463923845    0.4002476579995377    0.4282324883449719    0.42076307434347265    0.3773103930412592    
  0.3281248170178713    0.29319493090711507    0.28076016832200484    0.29319489556481    0.3281248286952488    
  0.37731035982695244    0.4207630304623107    0.42823253706391773    0.4002476650723005    0.38191329463923845    
  0.36376955486432994    0.36904662614612194    0.37757225230948127    0.37731039012785555    0.36636938508987693    
  0.35011689638978244    0.3348348972469872    0.32832897086447427    0.3348348735802666    0.35011687715509    
  0.3663693573950927    0.3773103527332712    0.37757227375187713    0.3690466025178868    0.36376955486432994    
  0.27924050307883475    0.28608765323900587    0.3042584290728427    0.3281248209573589    0.3501169287276932    
  0.36191977516628987    0.3621531035985339    0.3600808054511245    0.3621531094543363    0.3619197276759745    
  0.3501169313878056    0.3281248454376355    0.304258448554678    0.2860876386416883    0.27924050307883475    
  0.21802479907141473    0.22744369018766245    0.2540183353060508    0.293194919175375    0.3348348964308463    
  0.3621531205425975    0.3686464067034772    0.36747663897289645    0.3686464078416058    0.3621531141736564    
  0.33483484931234275    0.29319493644319955    0.25401835054106864    0.22744370493357016    0.21802479907141473    
  0.19783042166669387    0.20806749980145556    0.23712727195152644    0.2807601995533193    0.3283289910420401    
  0.3600808125130755    0.3674766316091925    0.365974416609954    0.36747661651801544    0.36008077570974073    
  0.32832899862393883    0.2807601905589826    0.23712727650251011    0.20806751509330035    0.19783042166669387    
  0.2180247896058427    0.2274436825566355    0.25401834290787634    0.29319494028508225    0.33483488446397497    
  0.36215311260105115    0.36864641344884247    0.3674766235193955    0.3686463896037883    0.36215310813625384    
  0.334834876463994    0.2931949132547797    0.2540183706883095    0.22744366929622814    0.2180247896058427    
  0.2792405107663611    0.2860876729054977    0.3042583945061399    0.3281248492517421    0.35011690859864725    
  0.36191973200810673    0.36215312128787    0.3600807958876133    0.3621531443372037    0.3619196910047188    
  0.35011691568116005    0.3281248449136459    0.30425844190666174    0.2860876633372193    0.2792405107663611    
  0.3637695660406214    0.3690466293691617    0.37757224350887897    0.3773103963198072    0.3663693910293589    
  0.3501169152963359    0.3348348848728013    0.32832899012141875    0.3348348776959104    0.3501168753437255    
  0.36636936824597627    0.37731035862363227    0.3775722750728984    0.3690465966354849    0.3637695660406214    
  0.3819132453143348    0.4002476591365636    0.42823249552646436    0.42076305639933714    0.3773103786821641    
  0.3281248347270353    0.2931949397577793    0.2807601836659291    0.2931949105523513    0.32812479962068936    
  0.3773103754406425    0.42076301348079587    0.42823252052231847    0.4002476340015466    0.3819132453143348    
  0.2504748969650942    0.29511483415429446    0.3897803041742999    0.42823253311581283    0.3775722701616271    
  0.30425844046248923    0.25401835754413055    0.23712727332605435    0.2540183744728988    0.3042584073444235    
  0.3775722710267114    0.4282325479431935    0.3897803471830701    0.29511483034524283    0.2504748969650942    
  0.10983963922999837    0.15790086398482586    0.2951148054055305    0.40024767149495183    0.3690466520477646    
  0.2860876223513717    0.2274436763037456    0.2080675342200943    0.22744367135318416    0.28608763704846774    
  0.36904663045599956    0.4002476731385816    0.2951147874049418    0.15790087029601255    0.10983963922999837    
  0.06752772274376409    0.10983964286083453    0.250474895721929    0.38191328992919554    0.3637695489378768    
  0.279240520282586    0.21802483056415248    0.197830413014767    0.21802478172202255    0.27924050249396926    
  0.36376957133713866    0.3819132674480009    0.25047489029975356    0.10983964005392066    0.06752772274376409    
  0.05633394962225096    0.09769955017627904    0.24644948964109137    0.4028838388047982    0.4007063006516842    
  0.317328688695719    0.25318722873032445    0.23156935832260658    0.25318720303448167    0.31732868564880307    
  0.400706303935835    0.402883828704743    0.24644950026757742    0.09769956284563662    0.05633394962225096    
  0.09769956674331155    0.1470619872776546    0.2976976767094546    0.42914436437837156    0.41246165306370247    
  0.3299040213893491    0.26812280889143963    0.24730026444321    0.26812281839839863    0.3299040029688171    
  0.41246162885808174    0.42914437839655356    0.29769768791686846    0.1470619916660659    0.09769956674331155    
  0.2464494944587037    0.2976977156561472    0.4134598120554409    0.476388536230358    0.4373949550501764    
  0.36455833908241714    0.3116202003759466    0.29346479027708916    0.31162019463133583    0.3645583090280385    
  0.4373949965297638    0.4763885048191428    0.4134598949913815    0.29769770962909387    0.2464494944587037    
  0.4028838452867832    0.4291443480275135    0.4763885082791125    0.4884371692909903    0.4571178085626409    
  0.4116329226951141    0.37544042997727806    0.36183538995571973    0.37544040753015834    0.4116328963854164    
  0.4571178200718416    0.48843717270704895    0.4763885480952293    0.4291443497448867    0.4028838452867832    
  0.4007062718034204    0.4124616285878375    0.43739494349017893    0.4571178304564424    0.46256427837356956    
  0.4514217826402155    0.4303770936037493    0.41941091634785893    0.43037707843932826    0.4514217713025058    
  0.4625642235243557    0.4571177796701314    0.43739497012646833    0.41246161389239344    0.4007062718034204    
  0.31732868678324344    0.329904053533514    0.3645583545419338    0.41163295232564745    0.45142179161470075    
  0.4572696715396308    0.4306802536389244    0.41333130529893497    0.4306802734661707    0.45726966134243746    
  0.4514218028173833    0.41163294012442286    0.3645583784397488    0.32990401252574353    0.31732868678324344    
  0.2531871879265336    0.2681228317278122    0.31162017183621366    0.3754404218696687    0.4303770612448365    
  0.4306802357027228    0.3823027331047454    0.3539851755210229    0.3823027258043868    0.4306802415895792    
  0.43037707110816553    0.375440452676068    0.31162020576839966    0.2681228335208471    0.2531871879265336    
  0.2315693802141326    0.24730024870076303    0.2934647829653463    0.3618354160660816    0.41941091361751526    
  0.4133312968204348    0.35398519369161235    0.32116548935102657    0.3539851330921003    0.41333128485682213    
  0.4194109425347186    0.36183539067604475    0.29346476913238584    0.24730026586115825    0.2315693802141326    
  0.25318719826905456    0.2681228147939369    0.3116201581636439    0.37544045327079795    0.43037709248287853    
  0.4306802536546584    0.3823027203290848    0.3539851489845605    0.3823027282287662    0.43068021728880435    