#     DFTpy    
  CRYSTAL 
    
  PRIMVEC    
  3.303103448275862    0.0    0.0    
  0.0    3.303103448275862    0.0    
  0.0    0.0    3.303103448275862    
  PRIMCOORD    
  2    1    
  Si    0.0    0.0    0.0    
  Si    1.651551724137931    1.651551724137931    1.651551724137931    
  BEGIN_BLOCK_DATAGRID_3D    
  3d_datagrid_density    
  BEGIN_DATAGRID_3D#0    
  15    15    15    
  0.0    0.0    0.0    
  3.303103448275862    0.0    0.0    
  0.0    3.303103448275862    0.0    
  0.0    0.0    3.303103448275862    
  0.060422247639722676    0.10823110182483155    0.26777251964015414    0.3821186677123877    0.3144405850173767    
  0.20816354595372397    0.14537517270245737    0.12631611714042876    0.1453751791591898    0.20816355637642497    
  0.31444059322902523    0.38211866162697117    0.2677725195833374    0.10823112083697357    0.060422247639722676    
  0.10823111590746433    0.16306711145747757    0.31129740560435165    0.3852326682953542    0.30460584161456733    
  0.202623724316052    0.14346854167245204    0.1255025498538603    0.14346852101575952    0.2026237480285932    
  0.30460579781268504    0.38523268338503863    0.31129741709508724    0.16306710425185852    0.10823111590746433    
  0.2677725461411462    0.3112973865647818    0.38401064253626055    0.36788567294469016    0.2734919421071631    
  0.1871743286963134    0.1385434885365509    0.1236481649250162    0.13854347139807524    0.1871743236697918    
  0.27349194620973893    0.36788565742566887    0.3840106077420376    0.3112974000481379    0.2677725461411462    
  0.382118656727854    0.3852327094196629    0.36788568737439487    0.305697960830619    0.22745834183119842    
  0.16694952304589317    0.13280174814775741    0.12208530629934257    0.13280173400265996    0.16694949475690626    
  0.22745831817991558    0.3056979439481683    0.36788570392489556    0.38523269130328214    0.382118656727854    
  0.31444060677133956    0.30460583870145735    0.27349196159867345    0.22745833292550588    0.18212765620234822    
  0.1481806015176686    0.12843600604807306    0.1220856661386053    0.12843599952306367    0.14818061021451046    
  0.18212768503671498    0.22745830306477668    0.2734919715052845    0.3046058230428311    0.31444060677133956    
  0.20816359559420963    0.20262372512207766    0.187174330035593    0.1669494999163739    0.14818062400778215    
  0.13419658403991952    0.12614217569569824    0.12364780372423348    0.12614217982362222    0.1341965752356068    
  0.14818060863587776    0.16694948163942241    0.18717429199666608    0.20262374155548765    0.20816359559420963    
  0.14537516453949928    0.14346853844751312    0.13854350213406108    0.13280172748466693    0.12843598630490913    
  0.12614217215947648    0.12549652030584146    0.12550289429614891    0.1254965175326794    0.12614218613328987    
  0.12843599869477457    0.13280173808003262    0.13854347880785745    0.14346853193180442    0.14537516453949928    
  0.12631611546477264    0.12550253248640536    0.12364814308313803    0.12208530010230137    0.12208563115548009    
  0.12364779656890813    0.1255028716708637    0.1263157791268426    0.12550285917721343    0.12364778393758251    
  0.12208563389375045    0.12208529156443998    0.12364813732984835    0.12550253940413988    0.12631611546477264    
  0.1453751909078095    0.1434685359767364    0.13854349936332436    0.13280172929631173    0.12843600310766948    
  0.12614218019117618    0.12549650712694554    0.12550289255087302    0.1254965130637335    0.12614218760377766    
  0.1284359944151371    0.13280173760246783    0.13854347622290122    0.1434685279119061    0.1453751909078095    
  0.20816356901296598    0.20262372969372852    0.18717433625392219    0.16694947925025436    0.14818061515337083    
  0.13419659002088583    0.12614218848449557    0.12364780295362476    0.12614218269876767    0.134196573711905    
  0.14818061018195483    0.1669494886793808    0.18717430240946806    0.20262372821632876    0.20816356901296598    
  0.314440607496898    0.304605777711661    0.27349197411734216    0.2274583104175284    0.18212766785821016    
  0.1481806104260473    0.12843600737772556    0.12208566208956693    0.1284359989193318    0.14818059403792577    
  0.1821276857634912    0.22745833687917297    0.27349197091504523    0.30460581986115093    0.314440607496898    
  0.38211868645442826    0.38523270778355306    0.3678856975959019    0.3056979563411304    0.22745833497623588    
  0.16694948987815253    0.1328017393683072    0.12208532404507474    0.13280173372800683    0.16694950568871877    
  0.22745832044907732    0.3056979555640324    0.36788570618443056    0.3852326945883146    0.38211868645442826    
  0.2677725456798114    0.31129739095811104    0.38401063617886017    0.3678856822278826    0.27349193315746956    
  0.18717432403430534    0.13854348411951967    0.12364814782900935    0.13854349092853324    0.18717429125913837    
  0.2734919546233325    0.3678856762124451    0.38401060056774067    0.31129740667421496    0.2677725456798114    
  0.10823111587584025    0.16306710024461668    0.31129740909797404    0.38523267051970966    0.3046058269256486    
  0.20262371887145755    0.14346853518699193    0.12550255055674628    0.14346852317958292    0.202623709358872    
  0.3046058296074323    0.3852327016066936    0.3112974064569086    0.16306710228814317    0.10823111587584025    
  0.060422247639722676    0.10823110182483155    0.26777251964015414    0.3821186677123877    0.3144405850173767    
  0.20816354595372397    0.14537517270245737    0.12631611714042876    0.1453751791591898    0.20816355637642497    
  0.31444059322902523    0.38211866162697117    0.2677725195833374    0.10823112083697357    0.060422247639722676    
  0.10823112112347973    0.16306709881705772    0.3112973885536744    0.38523270298449797    0.3046058182422523    
  0.2026237258976454    0.14346854000314432    0.12550253590087596    0.14346853156988107    0.2026237071624848    
  0.30460583685591464    0.385232698996462    0.3112974088128713    0.16306711972004895    0.10823112112347973    
  0.16306711468610888    0.2188124961741219    0.34600037474561074    0.3841003720223292    0.2952660289300854    
  0.19812519594481348    0.1424604003647433    0.12549686928675033    0.14246039705120075    0.1981252248624009    
  0.29526600648910994    0.3841004021427146    0.34600037310777165    0.21881249886337412    0.16306711468610888    
  0.31129741458878574    0.34600034950219055    0.3939923668721491    0.3604338644585648    0.2669451281511837    
  0.1859546252113922    0.14027000715879348    0.1261418648376568    0.14027000117366797    0.18595462019538028    
  0.266945119687204    0.3604338490222953    0.39399231999369083    0.34600036742381757    0.31129741458878574    
  0.38523272107276635    0.3841003909972604    0.36043388274521954    0.2989648892618212    0.22626423307817367    
  0.17045504728571173    0.1385827529232247    0.12843637289981658    0.1385827389414306    0.17045502993552455    
  0.2262642749624422    0.2989648574244425    0.3604338800206708    0.38410038793384016    0.38523272107276635    
  0.30460585144562374    0.29526602714535577    0.2669451632309512    0.22626425298178393    0.18639788752706415    
  0.15631149325101426    0.1385831094663716    0.1328014030353957    0.13858310996935602    0.1563114968956145    
  0.1863979020619761    0.2262642237944341    0.2669451737788809    0.29526601139751907    0.30460585144562374    
  0.2026237405098074    0.1981252107181801    0.18595461225529264    0.1704550195770018    0.15631150718536196    
  0.1460021244749649    0.1402696443537765    0.13854385587131163    0.14026963007503931    0.14600211664545576    
  0.15631149817243284    0.17045503043380136    0.18595457738077334    0.19812520353429688    0.2026237405098074    
  0.14346854575858856    0.14246040189818934    0.14027001905293798    0.1385827448017005    0.13858310888709313    
  0.14026964398894823    0.1424607690033114    0.14346818951433207    0.14246077181739975    0.14026965092407156    
  0.138583111470525    0.13858275625375888    0.14027001014284407    0.14246039786942957    0.14346854575858856    
  0.12550254860045817    0.12549685747217856    0.12614184381446616    0.1284363429856945    0.1328013821333826    
  0.1385438537042054    0.14346816736228035    0.14537554682981924    0.14346813790318766    0.13854383259429331    
  0.13280139360448986    0.12843633282052672    0.12614184914651425    0.12549686778568744    0.12550254860045817    
  0.14346852156659606    0.1424604009612732    0.1402700183465994    0.13858274130688178    0.13858311206828927    
  0.14026963638232157    0.14246077931699916    0.14346818365380937    0.14246077469603766    0.1402696556423033    
  0.13858310880548685    0.13858275229214784    0.14027001373501427    0.1424604031764168    0.14346852156659606    
  0.20262373036448225    0.19812521464007551    0.18595461186683956    0.1704550280953923    0.1563115119760374    
  0.1460021386441346    0.14026964887756554    0.13854386050916034    0.14026964545635628    0.14600211242653524    
  0.15631151575744107    0.17045501967300608    0.1859546089110211    0.19812520969200983    0.20262373036448225    
  0.30460583352077747    0.29526600048428464    0.26694517048830324    0.226264256840376    0.18639789801965478    
  0.15631151269874347    0.13858313357276716    0.13280140925478012    0.13858310744799873    0.15631149335220726    
  0.18639790215540794    0.22626423236211374    0.2669451452576599    0.2952660212098609    0.30460583352077747    
  0.3852327122930485    0.38410040776719623    0.36043387346564165    0.2989648481474892    0.2262642420337026    
  0.17045504596166344    0.1385827529830139    0.12843637363776753    0.13858275233026723    0.17045504535165504    
  0.22626425508677905    0.2989648717004405    0.36043390253499724    0.38410040255180683    0.3852327122930485    
  0.3112974282825765    0.34600036240170534    0.39399237482515725    0.3604338446628939    0.2669451246297091    
  0.1859546157815122    0.14027001254935637    0.12614184098918949    0.14027001289846008    0.18595459976576326    
  0.2669451393289218    0.3604338458745262    0.39399235188691145    0.3460003613416205    0.3112974282825765    
  0.1630671077684545    0.21881249697217972    0.34600036565000597    0.384100382464749    0.29526602017648107    
  0.19812520535940997    0.14246041519603284    0.12549686235646626    0.14246040634981713    0.198125204288592    
  0.29526600914018614    0.3841004175915429    0.3460003596680847    0.21881250397261037    0.1630671077684545    
  0.10823112112347973    0.16306709881705772    0.3112973885536744    0.38523270298449797    0.3046058182422523    
  0.2026237258976454    0.14346854000314432    0.12550253590087596    0.14346853156988107    0.2026237071624848    
  0.30460583685591464    0.385232698996462    0.3112974088128713    0.16306711972004895    0.10823112112347973    
  0.2677725241967615    0.3112973795583642    0.384010627492004    0.36788567965196906    0.27349194224944773    
  0.18717431408967283    0.13854349648261274    0.12364813758697567    0.1385434787359392    0.18717429525101642    
  0.27349194872299054    0.3678856651754226    0.3840106209676311    0.3112974233217732    0.2677725241967615    
  0.311297392560913    0.3460003637216404    0.3939923476327154    0.3604338353458    0.2669451323608236    
  0.1859545913145539    0.14027000609842852    0.12614186802980412    0.1402700153154527    0.18595461122172288    
  0.2669451227115967    0.36043385949947243    0.39399236053163295    0.34600032112737394    0.311297392560913    
  0.3840106319406452    0.3939923270922019    0.3891389700548724    0.3308600551927701    0.24843710723669601    
  0.18319180485903166    0.14600175459276624    0.13419694705496885    0.14600173971568345    0.18319178608284892    
  0.24843710611381878    0.3308600615661115    0.3891389513263365    0.3939923352289694    0.3840106319406452    
  0.3678857033688944    0.36043387518361225    0.33086007880413704    0.2788692665745025    0.22334722762079676    
  0.18106701366912795    0.1563118811910067    0.1481802629688755    0.1563118777087494    0.18106701697866537    
  0.22334725835231745    0.27886923036012373    0.3308600899600595    0.3604338585420586    0.3678857033688944    
  0.27349197242340423    0.2669451376086534    0.24843712056445702    0.22334724360298536    0.19918000690423204    
  0.1810674430569122    0.1704546429832562    0.16694991911761434    0.17045464308243813    0.18106743270412443    
  0.19918003327753747    0.22334721474079394    0.24843713064651482    0.2669451286580888    0.27349197242340423    
  0.1871743195390051    0.18595459273288478    0.18319181158077946    0.18106700625586225    0.18106742562425582    
  0.18319138022695844    0.1859550124839867    0.18717389466048026    0.18595499811939575    0.18319135848835857    
  0.18106743831876845    0.18106700982698043    0.1831917739852289    0.18595459456972496    0.1871743195390051    
  0.1385434967961087    0.14027001817721554    0.1460017502419715    0.15631186250275952    0.17045464880495143    
  0.18595499892874098    0.19812477708457366    0.20262418708572297    0.1981247873134152    0.18595501049610955    
  0.17045463978112185    0.15631188719010022    0.14600174060261678    0.1402700101433524    0.1385434967961087    
  0.123648153604351    0.12614182392341167    0.1341969431631755    0.14818025012505479    0.16694987838505287    
  0.18717389309353194    0.20262417206990452    0.20816312646196725    0.20262414725082525    0.18717388275349567    
  0.16694989015385323    0.148180223738232    0.13419694058733603    0.1261418379602994    0.123648153604351    
  0.1385434899096728    0.1402700257892709    0.14600175257080122    0.15631187423875756    0.17045464572009136    
  0.18595499976674215    0.1981247797476665    0.20262419339574622    0.19812478566158276    0.1859550043095116    
  0.1704546294292867    0.15631188570329405    0.1460017406802871    0.14027000491372837    0.1385434899096728    
  0.18717431122191241    0.18595459826740238    0.1831918002951469    0.18106700245067506    0.18106743299188838    
  0.18319138163850512    0.18595501436924775    0.18717391638440464    0.1859549947499224    0.18319137096464405    
  0.18106743509158857    0.1810670084391441    0.18319178624888588    0.18595460160993338    0.18717431122191241    
  0.2734919651807568    0.26694513085254107    0.24843712987537056    0.22334724832747246    0.19917999754472618    
  0.18106743759720775    0.17045464430190424    0.1669499037030844    0.1704546281968335    0.18106740985816444    
  0.19918001921997702    0.22334722939753893    0.24843712361102702    0.26694513686739446    0.2734919651807568    
  0.36788569690111916    0.36043388487776856    0.3308600828280243    0.2788692477323894    0.22334724441028483    
  0.18106703105840244    0.15631188104375032    0.1481802882353189    0.1563118942683507    0.1810670155622383    
  0.22334724448254487    0.27886922490524235    0.33086008484713625    0.36043386472238603    0.36788569690111916    
  0.3840106459442526    0.3939923478932406    0.3891389735667854    0.3308600706292155    0.2484370834641008    
  0.1831917869793883    0.14600174153362808    0.1341969458883402    0.1460017342404259    0.18319177102561834    
  0.24843712125691816    0.3308600580183314    0.3891389394463254    0.393992332460372    0.3840106459442526    
  0.3112974062184644    0.34600033456673074    0.393992364195653    0.3604338400659259    0.26694515174662603    
  0.18595459874292594    0.1402700202068328    0.12614185764363958    0.14026999554114952    0.18595461370720767    
  0.2669451253738914    0.36043388436833174    0.3939923369046404    0.3460003550728672    0.3112974062184644    
  0.2677725241967615    0.3112973795583642    0.384010627492004    0.36788567965196906    0.27349194224944773    
  0.18717431408967283    0.13854349648261274    0.12364813758697567    0.1385434787359392    0.18717429525101642    
  0.27349194872299054    0.3678856651754226    0.3840106209676311    0.3112974233217732    0.2677725241967615    
  0.3821186828776891    0.38523269835364304    0.36788569564458495    0.3056979490349083    0.22745830434422468    
  0.16694950279944515    0.13280173714994997    0.12208530538964622    0.13280174121857982    0.16694948808403584    
  0.22745831639903272    0.3056979592390032    0.36788567981478987    0.38523273138543485    0.3821186828776891    
  0.3852326985468202    0.38410039567168014    0.3604338908911841    0.29896485855088856    0.2262642448901306    
  0.17045504109872625    0.1385827509130478    0.12843636951738707    0.13858274445728994    0.17045503889278532    
  0.226264230983148    0.2989648576553007    0.3604338750422415    0.38410039147608316    0.3852326985468202    
  0.3678857071063065    0.36043386905006924    0.33086009659289    0.2788692392084914    0.2233472367086174    
  0.18106703335281557    0.15631189041329194    0.14818027351165483    0.15631187630524163    0.18106703380090292    
  0.22334724023902963    0.2788692292253106    0.33086005914153177    0.36043386763670926    0.3678857071063065    
  0.3056979667752449    0.29896484413317526    0.27886924880999897    0.24995457600018364    0.22101685116160263    
  0.1991804275738685    0.18639748367473613    0.18212810144904676    0.18639749331511268    0.19918042900917593    
  0.22101687092266828    0.24995456266607805    0.27886926039531834    0.298964863495986    0.3056979667752449    
  0.22745833790110173    0.2262642527224595    0.2233472449796456    0.22101687239908438    0.22101730040950138    
  0.223346797014398    0.22626470197255183    0.22745790558465812    0.2262646866038589    0.22334677949152434    
  0.22101731226361898    0.22101684583953496    0.22334725843239792    0.2262642372563312    0.22745833790110173    
  0.1669495040744535    0.1704550354134033    0.1810670446637981    0.19918042907890784    0.2233467848315284    
  0.24843758868862234    0.266944670733193    0.2734924696307993    0.26694465098918646    0.2484375775734052    
  0.22334677901061098    0.19918042313135736    0.1810670137069735    0.17045503860424827    0.1669495040744535    
  0.132801758734165    0.13858277105952382    0.15631188647598204    0.18639746416498487    0.22626468911965472    
  0.26694464461121664    0.29526651270658955    0.3046053373071598    0.2952665053124182    0.26694465078994045    
  0.22626468396538124    0.18639748490774885    0.1563118828981579    0.13858275174779167    0.132801758734165    
  0.12208530809550845    0.12843633715689873    0.14818024829917462    0.18212807738608414    0.22745787035515544    
  0.2734924464839587    0.3046053145617679    0.3144411484646473    0.30460528114658747    0.27349241631424287    
  0.2274578830388359    0.18212804557547055    0.14818025080791022    0.12843636176463283    0.12208530809550845    
  0.13280174955151128    0.13858275728185296    0.15631189387031003    0.18639747523661168    0.22626469281225056    
  0.26694465637272996    0.29526653156467914    0.3046053420722845    0.2952665120162424    0.26694465526051886    
  0.22626468172777556    0.18639750381627546    0.15631190601291728    0.13858275243409315    0.13280174955151128    
  0.16694950892012475    0.17045503818266194    0.1810670462974644    0.19918042342675124    0.22334677926235258    
  0.2484376053473262    0.266944656491782    0.2734924589082759    0.26694464998450873    0.2484375818909732    
  0.22334680582212785    0.19918040165363626    0.18106702682356862    0.17045504353332802    0.16694950892012475    
  0.22745834191195646    0.22626422919680836    0.22334724968722436    0.221016858004325    0.2210172991450908    
  0.22334679320169312    0.22626470547902705    0.22745790439008817    0.22626467782560725    0.2233467889015284    
  0.22101730079003634    0.22101683718156745    0.223347242346129    0.2262642463319673    0.22745834191195646    
  0.3056979590249939    0.2989648915913652    0.27886924203357744    0.24995457262675025    0.22101686263857462    
  0.19918042643740613    0.18639748684803675    0.18212810678771063    0.18639747952187966    0.19918042601721636    
  0.2210168557103089    0.24995458712749408    0.2788692604448142    0.2989648404616036    0.3056979590249939    
  0.3678857221846884    0.36043389378621676    0.33086008406301043    0.2788692239876834    0.22334723115255314    
  0.18106703217921594    0.15631186162448285    0.14818026325243472    0.1563118760664929    0.18106702336463013    
  0.2233472228965828    0.2788692151409312    0.3308601043838065    0.3604338599980751    0.3678857221846884    
  0.38523268772712677    0.38410040457093375    0.3604338725944049    0.298964858374406    0.22626423885940017    
  0.1704550387416279    0.13858277147030337    0.12843637777829242    0.13858274466149115    0.17045503772869103    
  0.22626422210787117    0.2989648693535201    0.3604338586407383    0.38410039588774736    0.38523268772712677    
  0.3821186828776891    0.38523269835364304    0.36788569564458495    0.3056979490349083    0.22745830434422468    
  0.16694950279944515    0.13280173714994997    0.12208530538964622    0.13280174121857982    0.16694948808403584    
  0.22745831639903272    0.3056979592390032    0.36788567981478987    0.38523273138543485    0.3821186828776891    
  0.31444060624939024    0.30460582001183983    0.273491948336643    0.22745831584691883    0.18212765170229633    
  0.14818061124976104    0.1284360040129955    0.12208564137681115    0.12843598726912142    0.14818060386941703    
  0.18212765824167576    0.22745831217415    0.2734919536699095    0.3046058621100296    0.31444060624939024    
  0.3046058333617607    0.2952660242830078    0.26694515881895653    0.2262642229052894    0.1863978974610184    
  0.156311509377103    0.1385831104579715    0.13280140522074368    0.13858310387550982    0.1563115151164981    
  0.18639788803687385    0.22626424095345793    0.2669451424179269    0.29526602744309816    0.3046058333617607    
  0.2734919848099695    0.2669451409982963    0.24843712520706326    0.22334723828239378    0.19918001014009604    
  0.18106743852333063    0.1704546486819264    0.1669499103666112    0.170454631121521    0.18106742987722926    
  0.1991800019537921    0.22334723049235403    0.2484371079666732    0.26694513404847386    0.2734919848099695    
  0.22745834215828017    0.22626424818643603    0.22334723864741898    0.22101687381083784    0.22101730053178406    
  0.2233468001086704    0.2262646803939479    0.22745790451129738    0.2262646875339874    0.2233467945783028    
  0.22101731750489362    0.22101683177194706    0.22334725993435017    0.22626425194742783    0.22745834215828017    
  0.1821276694360784    0.18639791341855091    0.19918000590987678    0.22101730548460674    0.24995409634670215    
  0.27886973960573647    0.2989643690815479    0.3056984851528661    0.29896435648821196    0.2788697054270275    
  0.24995412267922212    0.2210172883853075    0.19918002937769286    0.1863979016333147    0.1821276694360784    
  0.1481806253598896    0.15631150528208684    0.18106744460734697    0.22334679828771825    0.27886971496932994    
  0.3308595447526257    0.3604344254050603    0.36788515078624534    0.36043441452422026    0.33085954269832235    
  0.2788697257411261    0.22334678241623845    0.18106742505576193    0.15631151716901734    0.1481806253598896    
  0.1284360125858162    0.13858312536521378    0.17045465329135703    0.2262646671356062    0.2989643664594498    
  0.3604344030403967    0.38409981872560417    0.3852332825158752    0.3840997983826718    0.3604344169105116    
  0.29896435478557937    0.226264699382622    0.17045464126742826    0.13858312212250162    0.1284360125858162    
  0.12208565125849657    0.13280139115333087    0.16694988500884175    0.22745789045962445    0.30569845609160645    
  0.36788514625102275    0.38523327745045505    0.382118133053781    0.3852332208889902    0.36788510790880796    
  0.3056984488975682    0.22745784116399934    0.16694989260417994    0.13280140452833902    0.12208565125849657    
  0.12843600585497095    0.13858312254290112    0.17045465397276321    0.22626468046397535    0.2989643562467553    
  0.36043440749528854    0.38409984047505    0.38523328327539513    0.3840998132288412    0.36043440860538456    
  0.2989643359196887    0.22626469562800583    0.170454665937338    0.13858310674469596    0.12843600585497095    
  0.14818061274348268    0.15631150501839153    0.181067444785462    0.2233467821826645    0.2788697144667644    
  0.33085957752331807    0.3604344318788086    0.36788516873298716    0.36043440158716084    0.33085954738237494    
  0.27886974451806196    0.22334678112748027    0.18106741795507142    0.15631150550622322    0.14818061274348268    
  0.18212768448703548    0.18639789167145332    0.19918002680048075    0.22101730885567994    0.24995411037076895    
  0.2788697194595711    0.29896439066098157    0.3056984874123592    0.2989643504386482    0.27886970811901574    
  0.24995411164299747    0.22101728935717999    0.19918001168467508    0.1863978910264204    0.18212768448703548    
  0.2274583290494284    0.22626425194964647    0.22334723098131087    0.22101686819289723    0.2210172926418357    
  0.2233468076259879    0.2262647063957557    0.22745790728648765    0.2262646957627116    0.22334679726215434    
  0.22101730305243455    0.22101686669126958    0.22334725876120268    0.22626422566827797    0.2274583290494284    
  0.2734919911614057    0.26694514488297133    0.24843713811436044    0.22334722367133805    0.19918000741602163    
  0.18106743155442764    0.17045462229630823    0.16694990047927144    0.17045463750684448    0.1810674235003695    
  0.19917999480459192    0.223347204167269    0.24843713553914082    0.2669451309033901    0.2734919911614057    
  0.3046058195098837    0.29526602740947167    0.26694515353324144    0.2262642390068253    0.18639788741446917    
  0.15631151027638152    0.1385831198829755    0.13280140918485958    0.13858309660800489    0.15631152108777607    
  0.18639787665958854    0.22626424327281938    0.26694513191214214    0.295266019658563    0.3046058195098837    
  0.31444060624939024    0.30460582001183983    0.273491948336643    0.22745831584691883    0.18212765170229633    
  0.14818061124976104    0.1284360040129955    0.12208564137681115    0.12843598726912142    0.14818060386941703    
  0.18212765824167576    0.22745831217415    0.2734919536699095    0.3046058621100296    0.31444060624939024    
  0.20816357364577678    0.20262372478260904    0.18717430535814628    0.1669494950827649    0.14818060217454557    
  0.13419656983732703    0.1261421924754945    0.12364779446667439    0.12614217267726321    0.13419656173723166    
  0.1481806131146171    0.1669494876319582    0.1871743005359242    0.20262374175186523    0.20816357364577678    
  0.20262373293492025    0.19812520603913975    0.18595461604768573    0.17045501995548734    0.1563115044526354    
  0.14600210901369534    0.1402696410316597    0.13854387163372026    0.14026964045787582    0.14600212608057675    
  0.1563114980151856    0.17045502751404362    0.1859546243092885    0.19812517556634712    0.20262373293492025    
  0.18717433322663873    0.18595460325107208    0.18319178460762703    0.18106700331253955    0.18106742264109116    
  0.1831913910266974    0.18595501164665926    0.1871739145375717    0.18595499600296708    0.18319137610385175    
  0.18106742992112615    0.18106700483382718    0.1831917879742706    0.1859545883733471    0.18717433322663873    
  0.1669495271780269    0.17045503768996614    0.18106703362074278    0.19918044758244288    0.22334679081035338    
  0.24843756236767509    0.2669446649566354    0.2734924643514893    0.26694465146026797    0.2484375532132112    
  0.22334680693696796    0.19918042736630545    0.18106703338012908    0.1704550301614387    0.1669495271780269    
  0.14818063176775498    0.15631151617829114    0.18106741693518782    0.22334680659943776    0.2788697305203423    
  0.3308595764835793    0.36043439799036    0.36788515985389364    0.36043441455111896    0.33085954286520697    
  0.27886974455412405    0.22334677061879088    0.18106743547358564    0.15631149891530785    0.14818063176775498    
  0.13419659380355087    0.14600211319154507    0.1831914085954002    0.24843758189232118    0.33085955473875095    
  0.38913953181051    0.3939917912926996    0.3840111648647057    0.3939917788703364    0.38913948452095687    
  0.33085953763569304    0.24843757002175879    0.18319137113882614    0.14600210659808666    0.13419659380355087    
  0.12614219737345897    0.14026965651299822    0.185955013161256    0.266944617532287    0.36043443105640305    
  0.39399176602568997    0.34600088716551763    0.3112968877707919    0.34600089249739874    0.39399175510612405    
  0.3604344006058296    0.26694465340476503    0.1859549963710496    0.14026965180166417    0.12614219737345897    
  0.12364781289472371    0.1385438263377116    0.18717391632565625    0.273492435539616    0.367885118232323    
  0.38401117073767305    0.31129689690743806    0.2677730291845839    0.3112968434241466    0.38401115712036893    
  0.36788512979917504    0.2734924165896037    0.18717392183409728    0.13854385992071364    0.12364781289472371    
  0.12614218740725192    0.1402696693294715    0.18595501886511473    0.26694465385436283    0.3604344121067426    
  0.3939917748745115    0.3460008824209967    0.3112969067186929    0.346000916179788    0.3939917730965678    
  0.3604344017827167    0.2669446650616989    0.1859550157651283    0.14026964966835626    0.12614218740725192    
  0.13419657852750327    0.14600212018312506    0.1831913980819103    0.2484375535815265    0.33085955388817306    
  0.3891395258235666    0.3939917908374195    0.3840111988804916    0.3939917396078629    0.38913949848651963    