#     DFTpy    
  CRYSTAL 
    
  PRIMVEC    
  1.9685044883420442    -3.4095497887357964    0.0    
  1.9685044883420442    3.4095497887357964    0.0    
  0.0    0.0    6.507315020845757    
  PRIMCOORD    
  4    1    
  Si    1.9685044883420442    1.1365165962452648    0.4100226658059794    
  Si    1.9685044883420442    -1.1365165962452664    3.6636801762288584    
  Si    1.9685044883420442    1.1365165962452652    2.843634844616899    
  Si    1.9685044883420444    -1.1365165962452661    6.0972923550397775    
  BEGIN_BLOCK_DATAGRID_3D    
  3d_datagrid_density    
  BEGIN_DATAGRID_3D#0    
  17    17    29    
  0.0    0.0    0.0    
  1.9685044883420442    -3.4095497887357964    0.0    
  1.9685044883420442    3.4095497887357964    0.0    
  0.0    0.0    6.507315020845757    
  0.060758607160964886    0.064123755204115    0.07565852375224338    0.10020284949181148    0.1453849246573127    
  0.21734549861856872    0.31115324291834157    0.3980027112536963    0.4341060446719576    0.39800280727210946    
  0.31115330610379544    0.21734548108629204    0.14538490946727775    0.1002028288451867    0.07565850619941054    
  0.06412375932743694    0.060758607160964886    0.06412375572835768    0.06412762532882461    0.07161873228032711    
  0.08990108259879956    0.12569003489833824    0.18690467919878856    0.2749687612533724    0.3716843612595524    
  0.436892859418323    0.4368592632694558    0.371628208655255    0.27504241811478847    0.18692596945150658    
  0.12565227532711892    0.08990652902266791    0.07162239983529385    0.06412375572835768    0.07565850392694487    
  0.07161873825254636    0.07565865323489714    0.08991268794162252    0.12002492576557487    0.174537510197477    
  0.2581333999645896    0.35441189485314806    0.4258840975580657    0.4499098919736728    0.4259668082017207    
  0.35438552973266446    0.2580395234910558    0.17456663934723707    0.12004918734256675    0.08990653143717706    
  0.07565850392694487    0.1002028461015987    0.08990108182816373    0.08991270622053427    0.10018678456894806    
  0.12569388758526104    0.17455160732758787    0.25312017742552256    0.3423097474337068    0.38956410368942035    
  0.38712141635451947    0.38707172533883955    0.38957829835306584    0.34238110459361926    0.2531234587399759    
  0.17456663946896242    0.12565228158494945    0.1002028461015987    0.1453849206107002    0.12569003575737725    
  0.12002493494588388    0.1256939063676778    0.14534690931375055    0.18693477899040728    0.25807920826719155    
  0.3423706957413608    0.36758636166614495    0.3091512485941935    0.26976779187384664    0.3091461714648612    
  0.3676104857184579    0.3423811327799168    0.25803951036947526    0.1869260253153928    0.1453849206107002    
  0.21734549656744198    0.18690469839740223    0.174537500717565    0.17455160741148604    0.186934814709319    
  0.21736147383302187    0.2749645621110078    0.35440677569932216    0.3896085877960462    0.3091386868250991    
  0.21353985036003648    0.21358468305662592    0.30914612951867    0.38957842002924176    0.35438560126442975    
  0.27504241940824    0.21734549656744198    0.31115322003908136    0.2749687453468897    0.25813340893242465    
  0.2531201101873305    0.2580792517342933    0.2749646123478214    0.3112250614802853    0.37160719221662397    
  0.42596724718257545    0.3869851108073736    0.26985296177803253    0.21353983891360645    0.269767714951757    
  0.38707167028009914    0.42596680990028624    0.37162819489414745    0.31115322003908136    0.39800275817910247    
  0.37168433433458714    0.3544119552037529    0.3423097890743124    0.3423706666070471    0.3544067150256823    
  0.3716072676518514    0.39804521851124985    0.43687883934192084    0.4499975848533031    0.3869851854590062    
  0.3091386576120278    0.30915122028302816    0.38712128574202403    0.44990991013010184    0.4368592900914074    
  0.39800275817910247    0.4341061131261508    0.43689288951240635    0.42588402009194065    0.3895641479577821    
  0.3675864346403832    0.3896086373852296    0.4259672582757712    0.43687880670338536    0.4340528136276936    
  0.43687883603418803    0.4259672790187379    0.38960856507846625    0.3675863477721386    0.3895641633281474    
  0.42588405546227814    0.43689285595923516    0.4341061131261508    0.3980027154914943    0.4368591967484166    
  0.449909912128759    0.387121264389476    0.309151254160144    0.3091386265628996    0.3869851685757206    
  0.44999767754088654    0.4368788221349204    0.39804530221165446    0.3716072574061311    0.35440676118601244    
  0.3423706723373437    0.34230978696445613    0.35441194605582155    0.37168439789400076    0.3980027154914943    
  0.311153207091482    0.3716282048183918    0.42596671823180066    0.38707170749838155    0.26976775270723163    
  0.21353987192918386    0.26985285387599794    0.3869851420531767    0.42596725334019236    0.3716072183871481    
  0.31122509694257827    0.2749645474824009    0.258079228365961    0.25312009846936784    0.2581334263310679    
  0.2749687987486565    0.311153207091482    0.21734552981741895    0.27504235297598045    0.3543855692920106    
  0.38957828593543414    0.3091461816867169    0.2135846476540472    0.21353984373055984    0.3091386246938533    
  0.38960862332670393    0.3544067535404942    0.2749645894744666    0.21736146867621933    0.18693473978031294    
  0.17455163719276262    0.17453750386080116    0.1869047128833377    0.21734552981741895    0.145384908734679    
  0.18692598015469536    0.25803954536976076    0.3423812058357422    0.367610465281146    0.3091461713329372    
  0.26976775939824765    0.3091512514199699    0.36758642768328026    0.34237069736950004    0.2580792752583492    
  0.18693479649838754    0.14534687951490274    0.12569390211679995    0.12002492205721989    0.1256900652303053    
  0.145384908734679    0.10020284236118356    0.12565226417808067    0.1745666647887083    0.2531234454880455    
  0.34238117401169005    0.3895783702985818    0.38707164741485967    0.3871213162920716    0.3895641298187396    
  0.3423097531609301    0.25312012750226365    0.17455163008991018    0.1256938634877729    0.10018679116626525    
  0.08991268953440205    0.08990112323845365    0.10020284236118356    0.07565850455758388    0.08990651826282267    
  0.12004918430342244    0.17456662013552604    0.2580395194899149    0.3543856199560834    0.4259668010826796    
  0.44990985166264374    0.4258840229429055    0.35441188256011186    0.25813346396873527    0.17453751856039854    
  0.12002490244105278    0.08991266527766469    0.07565863986050235    0.07161875835449212    0.07565850455758388    
  0.06412376018603479    0.07162237081557286    0.08990655662675905    0.1256522815204034    0.18692597496269214    
  0.275042406724328    0.37162823882449514    0.4368592224710957    0.4368929210653272    0.3716844016544494    
  0.27496877415625454    0.18690468911415223    0.12569004529523248    0.08990108286367512    0.07161873993757738    
  0.06412764258396408    0.06412376018603479    0.060758607160964886    0.064123755204115    0.07565852375224338    
  0.10020284949181148    0.1453849246573127    0.21734549861856872    0.31115324291834157    0.3980027112536963    
  0.4341060446719576    0.39800280727210946    0.31115330610379544    0.21734548108629204    0.14538490946727775    
  0.1002028288451867    0.07565850619941054    0.06412375932743694    0.060758607160964886    0.05986905082555665    
  0.06313666022702548    0.074242635535138    0.09766933775201066    0.140370422772706    0.20793299448982885    
  0.29521875509185663    0.37511394693604333    0.40817714896089147    0.3751305573338154    0.29511092117316    
  0.20794636974720837    0.14042255743498855    0.09765797787359702    0.07423981784091141    0.06313633658026162    
  0.05986905082555665    0.06313633350506422    0.06313721970354132    0.06964158873578286    0.08537052687860548    
  0.11608467857990391    0.16816432435093    0.24286061554676547    0.3258710493608469    0.38292115277004124    
  0.3828815075782911    0.3258607591606928    0.24296662285868104    0.1681584059821305    0.11602671076067571    
  0.08538357555698853    0.0696447896595972    0.06313633350506422    0.0742398167232668    0.0710963636801425    
  0.07424265098025845    0.08539308019880336    0.10895696394382583    0.1516677531546478    0.21792065265050167    
  0.2989660230247436    0.3678845899360708    0.39472633751112024    0.36791509124962113    0.2989681353301094    
  0.21782307534547837    0.15168543779845928    0.10900562101866662    0.08538358389818713    0.0742398167232668    
  0.09765799889740685    0.0904395554227658    0.09044118081538466    0.09764578157325195    0.11608562061031753    
  0.1516822572345555    0.2104464082782651    0.28695348682267424    0.3539854986642564    0.3867229237559591    
  0.38671702988388235    0.3539791042650913    0.2869531029425287    0.2105194557712402    0.15168541254985943    
  0.11602670549788589    0.09765799889740685    0.14042256552082802    0.12789291492979799    0.12457957282686297    
  0.12789951867707516    0.14035618898088376    0.16816216171786177    0.21790786394244974    0.28693860391314546    
  0.34675670323225066    0.3655543801060752    0.36288236135398394    0.3655510989928913    0.3468067864899266    
  0.28695317623508854    0.21782309976149664    0.16815842134155873    0.14042256552082802    0.2079464111919446    
  0.19140705762251273    0.18571495090836804    0.18572506370391567    0.19148367010284156    0.20795282413003785    
  0.24286328336186935    0.29898363573381875    0.35401411442933967    0.3655542804777808    0.3428072383524448    
  0.3428029857382477    0.3655510626081467    0.35397918463042805    0.29896811678526997    0.24296663113542716    
  0.2079464111919446    0.29511089933347673    0.2813744995325413    0.2766796954972459    0.2755049311986414    
  0.276565741581173    0.2813648392880024    0.29523597530755    0.3258256177723412    0.3679033477952915    
  0.3866820915661106    0.36289400646801356    0.3428072363922557    0.3628822758624578    0.3867169767374689    
  0.36791504564333644    0.32586071514595105    0.29511089933347673    0.375130529438134    0.376675068361108    
  0.3716434820917832    0.35976966416791567    0.35992198872897724    0.37162244896262187    0.376561023309865    
  0.37515788377367715    0.38293103268656425    0.3947371410281029    0.38668220159156946    0.36555424350518523    
  0.3655543753271914    0.3867228709381006    0.3947263439644614    0.38288147093016256    0.375130529438134    
  0.4081771803240613    0.43808120749707036    0.4270128748281431    0.3649425185419316    0.3285737476928545    
  0.36500239933337475    0.4271500909267444    0.4380636012552954    0.4081120104866929    0.3829309975076001    
  0.36790342148488986    0.35401413723894576    0.34675665816006923    0.35398551510386983    0.3678845986998591    
  0.3829211904376347    0.4081771803240613    0.3751140228255153    0.4380525116236404    0.4399023946889609    
  0.3193343877874688    0.2053120443313625    0.20526940838029145    0.31914574090325337    0.4400441547554621    
  0.43806355474078323    0.3751579128646173    0.3258256228477272    0.2989836267463262    0.2869385298804196    
  0.28695357691677964    0.2989660690873161    0.32587105973411346    0.3751140228255153    0.29521876378610895    
  0.3765581549297363    0.4271567015191027    0.3192551601949391    0.15005878107453674    0.09217528017904371    
  0.15017839121184318    0.3191457452195607    0.4271501490129347    0.3765610002724892    0.29523597659045275    
  0.242863231961103    0.2179078318591895    0.2104463645473625    0.21792067485725677    0.2428606606487904    
  0.29521876378610895    0.207933025276089    0.2814089309283925    0.37160566055901073    0.36495178980772364    
  0.20531627074600683    0.09222015161330238    0.09217526780753568    0.20526938745202683    0.3650023522788683    
  0.3716224973494732    0.2813647779818122    0.20795281270658125    0.16816212373378323    0.15168230204200897    
  0.1516677670671416    0.16816432657631988    0.207933025276089    0.14037037794541712    0.19147655199414812    
  0.2765633698855909    0.3599424755026096    0.32854721025758016    0.20531623183151798    0.1500587333015422    
  0.20531204543828044    0.3285737609021418    0.35992202217013075    0.2765657525531986    0.19148365526071934    
  0.1403562066884379    0.11608561299353162    0.10895695718966411    0.11608469420638144    0.14037037794541712    
  0.09766933258718656    0.12786228978977895    0.18576001238797174    0.2754252389404745    0.3599424975192901    
  0.36495183544460685    0.3192550978482608    0.3193343630879888    0.3649424879977737    0.35976960602046637    
  0.27550498054364836    0.18572512065883032    0.12789950131389782    0.09764580174914236    0.08539307617083369    
  0.08537056264994125    0.09766933258718656    0.07424263142185296    0.09044212669010357    0.1245824825536152    
  0.18575998499879687    0.2765633131870802    0.37160563383902995    0.4271566922345489    0.4399022606642985    
  0.4270128452521324    0.3716434000858298    0.2766797198594951    0.18571498729920552    0.12457954357454376    
  0.09044117289629716    0.07424264460891392    0.06964161058140994    0.07424263142185296    0.06313666022995837    
  0.07109485245089331    0.09044216710680934    0.12786231668574347    0.19147655985688639    0.2814089351302152    
  0.37655821286302577    0.43805249123040396    0.43808126602542247    0.3766751159495398    0.2813745419034438    
  0.1914070532441602    0.12789290689422958    0.09043957397865579    0.07109635841977434    0.06313723431407256    
  0.06313666022995837    0.05986905082555665    0.06313666022702548    0.074242635535138    0.09766933775201066    
  0.140370422772706    0.20793299448982885    0.29521875509185663    0.37511394693604333    0.40817714896089147    
  0.3751305573338154    0.29511092117316    0.20794636974720837    0.14042255743498855    0.09765797787359702    
  0.07423981784091141    0.06313633658026162    0.05986905082555665    0.057430677721285524    0.06037017030208209    
  0.07028080746473411    0.09081595527106968    0.1273279325667252    0.18366259498206441    0.25460237018547893    
  0.3179803703218446    0.34386758935748485    0.31799629288410236    0.25447636799573287    0.18367952573565366    
  0.12738992375237224    0.0908017056555736    0.07027741032806889    0.06037043895737481    0.057430677721285524    
  0.060370425421930184    0.06037068143789738    0.0656165499562404    0.0781162317962606    0.10214479247197539    
  0.14192596786512415    0.1976704927413447    0.25855604255478337    0.2999313364785393    0.29990053038800457    
  0.2585509883393928    0.19777403926277184    0.14191440750619605    0.10208771393056768    0.07812932757613814    
  0.06561949119107316    0.060370425421930184    0.07027740061089202    0.06805930323593867    0.07028128939924819    
  0.07813816913746895    0.09473973992773116    0.12460997101856311    0.17043251850031316    0.22679523212315203    
  0.2763500035520111    0.2963849361271874    0.27637018311991884    0.22680512517522478    0.17034334431741835    
  0.12462156098039584    0.09479131241546662    0.07812932528916289    0.07027740061089202    0.0908017334379748    
  0.08660448852758218    0.08659954662251831    0.09079392134566198    0.1021451262881495    0.12462403001877194    
  0.16227560875908095    0.21388270264094641    0.2663008252395188    0.2992274904250534    0.29922735591133137    
  0.2662859159276892    0.2138676631719012    0.1623578293279853    0.12462157009013779    0.10208770891543381    
  0.0908017334379748    0.12738990986139218    0.12187445063880482    0.12076227372042658    0.12188156737568563    
  0.12732123492061534    0.14191427591821054    0.17042918036031324    0.21385185909465    0.26347306926781844    
  0.3007649445950417    0.31349866559405165    0.30076337699049743    0.26351155834101403    0.21386775408625192    
  0.17034334875728416    0.14191446733092544    0.12738990986139218    0.18367957787604422    0.18036559967902543    
  0.18115892046603446    0.18116898443597837    0.1804496298052603    0.18368341297923302    0.1976765353795883    
  0.2268213345055625    0.2663152510572707    0.3007649207723037    0.31695611381168914    0.3169461583610185    
  0.3007633418833486    0.2662859588705947    0.22680516708939544    0.19777405779248444    0.18367957787604422    
  0.2544763077584521    0.261008226064276    0.26889798147179356    0.27196437552298036    0.268770361497973    
  0.26099947898113374    0.25460027817757086    0.2585184980300186    0.2763503779486631    0.2992199478346773    
  0.3134932868933468    0.31695606586671643    0.3134986380161184    0.29922731863635244    0.27637013498920293    
  0.2585510123701788    0.2544763077584521    0.31799628946006586    0.3435195524676772    0.3556863138209602    
  0.35161402425491317    0.35177729519429823    0.355670280297306    0.3433989736523508    0.3180212340190592    
  0.2999477424329549    0.2963751254749613    0.299219968229634    0.3007649082460538    0.3007649126033623    
  0.2992274170794317    0.29638491185229643    0.299900526992509    0.31799628946006586    0.34386758697425784    
  0.39476391659646526    0.3996421631560304    0.3436305908417997    0.30802843532167645    0.3436949989981096    
  0.39978259329755694    0.3947460267120976    0.3438061515031244    0.29994775866415885    0.27635045368575883    
  0.26631523653886324    0.2634730277539626    0.2663007792003818    0.2763500221384284    0.2999313415893577    
  0.34386758697425784    0.31798037876900254    0.3947410847161906    0.4068807506655417    0.2881103396013927    
  0.17613182459469515    0.1760843654954966    0.28792149199806066    0.40702921629872885    0.3947460363350634    
  0.31802128498387316    0.2585185766742459    0.2268213231650627    0.21385180437799564    0.21388271689544971    
  0.22679522473049174    0.25855600920042576    0.31798037876900254    0.2546024188119982    0.3433854202257728    
  0.39979193551436787    0.2880280009910346    0.12158461145873817    0.06900983587994527    0.12169978783138917    
  0.28792145111297723    0.399782585824857    0.3433989334344084    0.25460032106745517    0.19767651772730932    
  0.17042920620745527    0.16227554027934027    0.1704325209792037    0.19767052017064424    0.2546024188119982    
  0.183662613237764    0.26103195721139566    0.35565332641644853    0.34364427128857694    0.1761391935571382    
  0.06904719597062017    0.06900983630110478    0.1760843724521779    0.343694992816602    0.35567028920089344    
  0.2609994472758042    0.1836834037355179    0.14191425408882097    0.1246240412748503    0.12460996533425932    
  0.14192600508687694    0.183662613237764    0.12732791500719567    0.18044333065253748    0.26877962867588595    
  0.3518045743017012    0.30798375394337446    0.176139183103189    0.12158457700100651    0.17613178153048228    
  0.30802839274619714    0.35177736995794817    0.2687703640520572    0.18044962896338074    0.12732122241107088    
  0.10214511122501053    0.09473972512849875    0.10214478331532952    0.12732791500719567    0.09081594601195664    
  0.12184977002429381    0.18120682041004804    0.27186272684266566    0.351804548805911    0.3436443108754142    
  0.2880279135635308    0.2881103054600492    0.34363056456953817    0.3516139103482779    0.271964427857225    
  0.18116900732754246    0.12188152412660891    0.0907939256488332    0.07813816482069272    0.07811626624673333    
  0.09081594601195664    0.0702808011300619    0.08660325004032164    0.12075806173123244    0.18120678701133136    
  0.26877962787247284    0.3556533534746428    0.39979193867096197    0.40688068162530017    0.39964215876995796    
  0.355686161319035    0.2688979670526052    0.18115891837269546    0.12076223629297478    0.0865995100887985    
  0.07028129519260543    0.06561657339298552    0.0702808011300619    0.0603701682310294    0.06805833637206479    
  0.08660329739197115    0.12184978933496102    0.18044336545966125    0.26103195424499687    0.34338542423113055    
  0.39474104984959646    0.39476397413250436    0.3435196243543785    0.26100823078855206    0.18036562162283826    
  0.12187445789741148    0.08660449225866529    0.06805931619676123    0.06037070029133574    0.0603701682310294    
  0.057430677721285524    0.06037017030208209    0.07028080746473411    0.09081595527106968    0.1273279325667252    
  0.18366259498206441    0.25460237018547893    0.3179803703218446    0.34386758935748485    0.31799629288410236    
  0.25447636799573287    0.18367952573565366    0.12738992375237224    0.0908017056555736    0.07027741032806889    
  0.06037043895737481    0.057430677721285524    0.053860750625420166    0.05634855476962965    0.06466346315279563    
  0.08147119695920531    0.11027955069870349    0.15295676496936883    0.20476469281021814    0.24981457141591257    
  0.26794388668806474    0.24981534233054592    0.20467914143679014    0.15297426270743059    0.11031828854262216    
  0.08146006646749826    0.064662684135969    0.05634934312037912    0.053860750625420166    0.056349350349665366    
  0.0563494247152678    0.0604070417614432    0.06986972171278874    0.08745754411274605    0.11548334256550585    
  0.15327109885929233    0.1930674218985301    0.21942594151060718    0.21940918625627517    0.1930709726433182    
  0.153334663712657    0.11547399235158844    0.08742215564663362    0.06987916569038247    0.06040724753191662    
  0.056349350349665366    0.06466267455827243    0.06316577411374345    0.06466369579347969    0.06988590289575847    
  0.08078962641686985    0.1000332029343395    0.1287454248712821    0.16309175469746462    0.192792053676807    
  0.20477542484357145    0.1928040574380553    0.16309484578446917    0.12869124812118268    0.10003955412042548    
  0.08082369897735675    0.0698791713566865    0.06466267455827243    0.08146006879183568    0.07938120661441711    
  0.07937892840816121    0.08145491349634389    0.08745869789666735    0.10004254514627013    0.12152557994209995    
  0.15101859554503838    0.18151736143880853    0.20156732201286143    0.20156632587434237    0.18150737409108142    
  0.15100995323263883    0.12157793380781912    0.10003955766360115    0.08742215936234288    0.08146006879183568    
  0.11031831367816261    0.10958862424848702    0.10979766852725797    0.10959205858959138    0.11027482171971845    
  0.1154737539262265    0.1287442405418844    0.15099912635197837    0.17871525547512598    0.2025693252062471    
  0.21196913463730305    0.2025685988950915    0.17873403109571157    0.1510099761095685    0.12869126127274852    
  0.11547403813482598    0.11031831367816261    0.15297430884606295    0.15830312194151192    0.16308532020468125    
  0.16308991431232908    0.1583612237642201    0.15297231590387836    0.15327293787822435    0.1631117459044495    
  0.18152043189351386    0.20257209919498856    0.21639502569937652    0.2163967814801849    0.20256859426774548    
  0.18150744067047597    0.1630948464137631    0.1533346610576039    0.15297430884606295    0.20467907567932214    
  0.22366651996523185    0.2404484911741918    0.24676833012232918    0.24036351432752606    0.22366498400811513    
  0.20476139794147055    0.19304490683006262    0.19279094739368993    0.20156328435896248    0.21196826068261912    
  0.21639498252212302    0.21196907634517953    0.2015663304495454    0.1928040724965586    0.19307097919556993    
  0.20467907567932214    0.24981532533004389    0.2896732345902398    0.32056337157872955    0.3315223289115932    
  0.33163665306655626    0.320543351494341    0.2895890772461498    0.24984248314251142    0.21943119681415715    
  0.20477490309217256    0.20156328410478208    0.20257204659158018    0.20256932296660196    0.20156726822832235    
  0.2047754587750879    0.21940917215072903    0.24981532533004389    0.2679438849190692    0.33079384590495176    
  0.36845505763414266    0.3541916598819594    0.3357807559626724    0.3542423124955393    0.3685734452725024    
  0.33075830170881737    0.2679182267682946    0.21943118557217273    0.19279102256819958    0.18152041192447174    
  0.17871520798769788    0.1815173567221946    0.19279207781613394    0.21942596127420824    0.2679438849190692    
  0.2498145387440079    0.33076526852668897    0.3802733932088892    0.32643624131486426    0.24464092084719263    
  0.244610706108207    0.3262643036082816    0.380394847217658    0.33075833611526806    0.24984250807128086    
  0.19304496261638016    0.16311177411817906    0.15099911895036    0.15101858861305273    0.16309175382118166    
  0.19306737714991015    0.2498145387440079    0.2047647245594708    0.2895812361779105    0.3685656527651294    
  0.3263677979250308    0.19546432767192642    0.13927548320539948    0.1955804642356795    0.3262642799655132    
  0.36857345509193745    0.28958901655028546    0.20476143369157493    0.15327288940060807    0.1287442254855274    
  0.12152554996779667    0.1287454328278257    0.15327117116997957    0.2047647245594708    0.1529567815099833    
  0.22368414767605038    0.32053271474211015    0.3542179636266811    0.24463763735494864    0.13932862966979284    
  0.13927548731588982    0.2446107156552248    0.3542423432544461    0.3205434162423066    0.22366494409318494    
  0.15297231116886284    0.11547375005272381    0.10004258693446344    0.10003316445571846    0.11548335836545263    
  0.1529567815099833    0.1102795365449245    0.15835290363112353    0.24038118154043897    0.3316462749872087    
  0.3357643223895661    0.24463763118309867    0.1954642900256144    0.24464089781358853    0.335780772452877    
  0.33163666341873493    0.24036352879918946    0.15836120901794623    0.1102748211769519    0.08745869007884294    
  0.08078961257613847    0.08745753543367708    0.1102795365449245    0.0814712030404596    0.1095718087368984    
  0.16311646496165155    0.24669267379066137    0.331646227242362    0.35421798163817125    0.3263677338452046    
  0.3264362312626432    0.35419159400371936    0.33152229744278144    0.24676835631136979    0.1630899756229477    
  0.10959200079174769    0.08145491264158557    0.06988589594656368    0.06986974189373357    0.0814712030404596    
  0.06466345197171226    0.07938004855749838    0.10979431602985824    0.16311645397231941    0.24038118846113812    
  0.3205327460288552    0.3685656890742808    0.38027334293637505    0.3684550754617156    0.32056334696430616    
  0.24044852451246013    0.16308532809957557    0.10979766181642138    0.0793789020492226    0.0646636829126129    
  0.06040704820962472    0.06466345197171226    0.0563485533321027    0.06316669537069776    0.07938007559874659    
  0.1095718318867484    0.15835290716953393    0.22368413802214132    0.28958125391094514    0.33076527131481603    
  0.33079387911752844    0.2896732536275425    0.22366648264491595    0.15830313979136248    0.10958863350795742    
  0.07938121995774428    0.06316579253159557    0.056349436025319076    0.0563485533321027    0.053860750625420166    
  0.05634855476962965    0.06466346315279563    0.08147119695920531    0.11027955069870349    0.15295676496936883    
  0.20476469281021814    0.24981457141591257    0.26794388668806474    0.24981534233054592    0.20467914143679014    
  0.15297426270743059    0.11031828854262216    0.08146006646749826    0.064662684135969    0.05634934312037912    
  0.053860750625420166    0.049824771188643556    0.05189043539885988    0.05863766587241372    0.07175649045664878    
  0.0933252232593445    0.12386431526804394    0.15933418601106908    0.18928701313972782    0.2011841716781397    
  0.18927908924687636    0.15930736944917032    0.12387423678942887    0.09333672158138967    0.07175160817743814    
  0.058637625782732    0.051891450016822986    0.049824771188643556    0.051891451547073204    0.05189158621667949    
  0.055035189151164336    0.06211446050171068    0.07456285654575277    0.09345906891028077    0.11781396046288994    
  0.14228834960123377    0.15802884140500834    0.15802599606361395    0.14229682028136736    0.11782951148817242    
  0.0934560248551333    0.07455142875903198    0.06211925814718511    0.055034103382677856    0.051891451547073204    
  0.0586376103308807    0.057626597538935634    0.05863727673908686    0.06212183145888984    0.06917088569084412    
  0.0810636994335879    0.09811797188233086    0.11780364805829548    0.1343146319607456    0.14090080410910313    
  0.1343163339408928    0.11780173295217453    0.0981034188785079    0.08106477352599517    0.06918248758483247    
  0.06211926300557907    0.0586376103308807    0.07175161101662762    0.07091835523309721    0.07091831550040843    
  0.07174938266137329    0.07456468593510956    0.08106476639118872    0.09248885074508473    0.10802370186015338    
  0.12385363701782229    0.13422790566088105    0.1342293798332029    0.12384973377482855    0.10802328394457106    
  0.09250452396097518    0.08106478005632475    0.07455142723818975    0.07175161101662762    0.09333673388696886    
  0.09501261150291353    0.09586377547101017    0.09501273421659023    0.09332278642067722    0.09345543926060614    
  0.09812004537617852    0.1080209600509677    0.12119548239861014    0.13285143701335625    0.1375369048966282    
  0.13285116747017273    0.1212014752555548    0.10802328298954039    0.09810341936758933    0.09345608052154233    
  0.09333673388696886    0.12387426494433312    0.13271980161110236    0.13894164262940303    0.13894327497643308    
  0.1327407666224433    0.12387078849222388    0.11781160899512418    0.11780723826622953    0.12385232045004342    
  0.13285445153414482    0.13932032714708803    0.13932267945078605    0.13285116583273712    0.12384980252724813    