#     DFTpy    
  CRYSTAL 
    
  PRIMVEC    
  9.025271908771083    7.198734871724139e-07    1.188448027586207e-06    
  7.198736582068966e-07    9.025275003735294    1.2014459816551724e-06    
  1.1884481795862068e-06    1.2014460092413794e-06    9.025274378159873    
  PRIMCOORD    
  16    1    
  Si    1.3317715219859705    7.693502046900747    3.180866117615938    
  Si    7.69350101994107    1.3317743873438725    5.844406966491667    
  Si    1.3317728786907226    1.3317732119711785    1.331773680669174    
  Si    3.180870789437444    3.180872110386064    3.1808717780525106    
  Si    7.693498831399878    3.180866339575423    1.3317721877207358    
  Si    1.3317712243614601    5.844412037939865    7.693501976514232    
  Si    3.1808651485819652    1.331774660387745    7.693502702778089    
  Si    5.844406638103556    7.693504133456632    1.3317722961579264    
  Si    5.844406182106853    3.180872641535271    7.6935069064097705    
  Si    3.1808675019386587    5.844404110332488    1.3317679171231793    
  Si    5.844403188825455    5.844408599767449    5.844406842877852    
  Si    7.693501275567431    7.6935055277458595    7.693503843321664    
  Si    3.180871143242916    7.693509612997973    5.844407161702193    
  Si    5.844401853121396    1.331767422689052    3.180868714955399    
  Si    7.693504502187525    5.844407774505343    3.1808719919902706    
  Si    1.3317678119786835    3.1808698081764346    5.844404034776073    
  BEGIN_BLOCK_DATAGRID_3D    
  3d_datagrid_density    
  BEGIN_DATAGRID_3D#0    
  41    41    41    
  0.0    0.0    0.0    
  9.025271908771083    7.198734871724139e-07    1.188448027586207e-06    
  7.198736582068966e-07    9.025275003735294    1.2014459816551724e-06    
  1.1884481795862068e-06    1.2014460092413794e-06    9.025274378159873    
  0.014140742334356516    0.0146270661599271    0.016010250184026957    0.01801722004608009    0.02017817538772539    
  0.02193663575176423    0.02283904569920989    0.022807024665084462    0.022216277748557226    0.021580293878570904    
  0.021312901416031427    0.021580283495669473    0.022216297577412954    0.022807070747026335    0.022839108289856056    
  0.021936692720923932    0.02017822642300626    0.018017254104255212    0.016010327403046545    0.014627087063754367    
  0.014140833457227798    0.014627133346876679    0.016010372259771026    0.01801736771775064    0.020178338344990283    
  0.021936845680252406    0.022839208255385404    0.022807187174902033    0.022216399662987666    0.021580370439289124    
  0.021312988374209262    0.021580329900181713    0.022216347502650884    0.022807094279872913    0.022839162168296977    
  0.021936714723182146    0.02017824769736532    0.018017269476021835    0.016010292213213703    0.014627077236687935    
  0.014140742334356516    0.014627044606521885    0.016747993219340524    0.020029825650456384    0.024139142634294654    
  0.028317261831820865    0.0315647535336562    0.03309174406179707    0.03285416686935707    0.03157385407448301    
  0.0302555012189954    0.029711953298908238    0.030255531469827436    0.031573905252218926    0.03285428799148129    
  0.03309184251542125    0.031564908386035845    0.028317306949168185    0.02413926275570494    0.02002986581568302    
  0.01674806925190516    0.014627083174612893    0.013646492875654769    0.013614602906846305    0.014256308989133633    
  0.01520431872360056    0.01608505933306716    0.01660874580929804    0.016680723781745805    0.016456798082742856    
  0.01618383362854241    0.01606333861156898    0.016183830593624944    0.01645675599177632    0.016680696281913626    
  0.016608690364193778    0.01608500108679824    0.01520424316410009    0.014256249542799962    0.013614544701060825    
  0.013646425235568034    0.014627044606521885    0.01601025472919534    0.02002720992425318    0.02583821988069555    
  0.033010244586607715    0.04029146520210904    0.04587915300702477    0.048391456021952474    0.0477928260536989    
  0.04535075733509534    0.04289736756642773    0.0419019510055469    0.0428974264848997    0.045350849746197915    
  0.04779295831442061    0.04839162953438749    0.045879306567242255    0.04029162954126635    0.03301033021686748    
  0.025838364587698545    0.020027250175871317    0.01601034350583188    0.013619032867730871    0.01247761687031451    
  0.012203515935955377    0.012424097187951694    0.012804995152921638    0.013114465023730515    0.013237653488328085    
  0.013201911273498203    0.01311342363714348    0.013070797078176655    0.01311339156717892    0.013201903304536673    
  0.013237605240962416    0.013114453186225675    0.012804926970319534    0.012424056508292253    0.012203478171489819    
  0.012477568974223675    0.013619003275671773    0.01601025472919534    0.018017204140148527    0.024152009913218142    
  0.03304516118717279    0.04415742155914722    0.05555993739183577    0.06434262864668888    0.06824672287302098    
  0.06714020365079303    0.06307415495830732    0.05907648820250532    0.057476064783236296    0.0590765551998729    
  0.06307428933879036    0.0671404733844914    0.06824692427322733    0.06434289491436991    0.0555600885506479    
  0.044157642189999735    0.033045246080935106    0.024152125881636215    0.018017254183168477    0.014264216621831855    
  0.012223177058671585    0.01131762662478622    0.01109959141071876    0.01121447269154733    0.011415464661269805    
  0.01156407510973403    0.011620866031189316    0.011626490459382544    0.01162426795684903    0.011626477639675416    
  0.011620856713830795    0.011564061669985807    0.011415428870590223    0.011214446385410307    0.011099563181386527    
  0.011317604963529994    0.012223143646863194    0.014264161544952619    0.018017204140148527    0.020178162656118315    
  0.02832677535975831    0.04034457353317926    0.05561810926239001    0.07150193999516494    0.08383671163459243    
  0.08933259823317545    0.08770072925234451    0.08187978521232506    0.07622299446180204    0.07397626969313939    
  0.07622306795946929    0.08188001338999133    0.08770103590385124    0.08933287776597332    0.08383706473967935    
  0.0715022346222515    0.05561827629473737    0.04034477904867077    0.028326839745304304    0.02017827085141319    
  0.015251264296977669    0.012543305685602723    0.011242576153568516    0.010796681060243491    0.010798018911233368    
  0.01096583578174094    0.0111340757353905    0.011235462764759523    0.011282980149186267    0.011299814053176005    
  0.011282964968516811    0.011235475212925554    0.011134081835911828    0.010965872493346306    0.010797981645788797    
  0.01079667889299791    0.011242544797890299    0.012543267209065135    0.015251229426733955    0.020178162656118315    
  0.021936620889337604    0.031443953544450516    0.0457046203374164    0.06412360106349571    0.08351507715514578    
  0.09870759201606227    0.10554921152901317    0.1036294101810076    0.09654371535796304    0.08963415655675205    
  0.0868867034113626    0.08963426699713391    0.09654386315428044    0.10362980433438926    0.10554954590070233    
  0.09870797627026963    0.08351528750667497    0.06412392363208164    0.045704789549176644    0.031444105201585346    
  0.021936670962393046    0.016282938933784852    0.013228852498915464    0.011795636019866567    0.01132636488139339    
  0.011352260698850059    0.011555110684263424    0.01175403799257558    0.011868673660553247    0.011916612087415672    
  0.01193108656025301    0.011916608036251101    0.011868648781749678    0.011754070732485624    0.011555107815034025    
  0.011352246454754418    0.011326360948436955    0.011795629746610943    0.013228845100622612    0.01628287628415507    
  0.021936620889337604    0.022839063096674637    0.032556164892501537    0.04734374690177946    0.06665755776497662    
  0.08717710624563567    0.10341613570546457    0.1108794251166401    0.10905510634858459    0.10171276639767873    
  0.09446924654539614    0.09157171090450628    0.09446934517097876    0.10171312470875747    0.10905547489010954    
  0.11087987067068072    0.10341653134012238    0.0871774984310031    0.06665780813715297    0.04734397943891683    
  0.03255624763091495    0.022839163168285315    0.017172725554710538    0.014234807982186501    0.012999995264745887    
  0.01275867844564044    0.012981686110105566    0.013308717127973366    0.013545146921353075    0.013631610038560192    
  0.013632125239689676    0.013625372116894803    0.013632115723595635    0.01363166216537768    0.013545153143411717    
  0.013308785381514707    0.012981669838893775    0.012758698254635017    0.013000000487785775    0.014234776878420653    
  0.01717270347224398    0.022839063096674637    0.02280698723512267    0.03143903818874464    0.04477044126171257    
  0.06230824672693956    0.08107510731401797    0.09613113297850646    0.10325937782946355    0.101837195789856    
  0.09530267784026514    0.08877990610932673    0.08615597290655695    0.08878000992614245    0.09530292877288199    
  0.10183754250834272    0.10325969404997155    0.09613157387271899    0.08107539237499259    0.062308599018956676    
  0.04477057997188718    0.031439199047961636    0.022807054767060114    0.0179579723696212    0.015699160403108047    
  0.015088153485232316    0.015416726405124842    0.01609477473853622    0.016679305764865128    0.01695496220631169    
  0.016937325301248977    0.01681334180250971    0.016753778318802346    0.016813367074761595    0.01693735633936377    
  0.016955026548465656    0.016679358185224986    0.016094800247565304    0.01541673813718318    0.01508814700860354    
  0.015699164452258094    0.017957900857797065    0.02280698723512267    0.02221629423080638    0.02873886784383033    
  0.03910901107479899    0.05289337720005413    0.06777088761043591    0.07989448124301143    0.08587117236053951    
  0.08504509586894575    0.08009284238233585    0.07503724841376554    0.07297945755263287    0.07503734030131044    
  0.08009301548775628    0.0850453627041637    0.08587145071896024    0.0798947362430828    0.06777119446946948    
  0.052893534652306416    0.039109237349356375    0.028738946326035814    0.02221641010057759    0.01890396663070823    
  0.017918735191211534    0.01848686374129962    0.019906185015006215    0.021444498826997588    0.0224932233280773    
  0.022799149028047742    0.022534764529180577    0.02213267985095204    0.02195776349567683    0.022132713574384816    
  0.022534880981593283    0.02279923474794737    0.022493308101101245    0.02144455368536719    0.019906197134895266    
  0.01848688105117859    0.017918692596275126    0.018903945488850125    0.02221629423080638    0.021580234808660427    
  0.025477873261008036    0.03232060953879692    0.04171102118179464    0.052014185295439844    0.06056818117660704    
  0.06499646392693496    0.06474653462554777    0.061557154135501405    0.058169627558599474    0.05676806683597286    
  0.05816965733642007    0.06155727838175985    0.06474671964260886    0.06499657454156052    0.06056840630988526    
  0.052014298243102844    0.041711253271330066    0.03232069389771943    0.025478005697682573    0.021580283687139348    
  0.020349546265389106    0.021286598882653936    0.023810116336042197    0.027116341760831546    0.03014174106736873    
  0.031951790177267125    0.0322345278972427    0.031452395123827616    0.030487902213059494    0.03007806458747984    
  0.03048796291945564    0.03145250178212492    0.03223470264132002    0.031951919197427396    0.030141813255275464    
  0.02711637861547368    0.023810081079902706    0.021286594128517248    0.02034946754673539    0.021580234808660427    
  0.021312938600266975    0.02253706492490506    0.026108167114863495    0.03157826178069282    0.03784461067906991    
  0.04320563055332351    0.04615402014536804    0.04627713506810946    0.04454008857889651    0.0425848605405696    
  0.041764131488800205    0.042584872889653534    0.04454017991805821    0.04627725615286301    0.04615416444272606    
  0.04320570909560968    0.037844767388051176    0.031578351594252554    0.026108313410319363    0.022537147230186492    
  0.021313062001837232    0.022537182476044984    0.026108349433671536    0.03157841683854983    0.037844793211460996    
  0.04320572148966331    0.046154032049019814    0.046277071206332905    0.04453999315639156    0.04258473406761418    
  0.041764054707746606    0.042584787927435426    0.04454011192386062    0.046277259111497805    0.04615416561972444    
  0.043205743742511876    0.037844745431838835    0.03157835447637218    0.026108231057277033    0.022537097631932252    
  0.021312938600266975    0.021580268684074932    0.020349455376749516    0.02128656341639545    0.023810033969399746    
  0.02711632426364393    0.03014171630048908    0.03195183649025259    0.032234637372499944    0.03145252763866543    
  0.03048801685271487    0.030078175933169825    0.030488018582446184    0.031452580603354076    0.03223471208848956    
  0.031951911998125644    0.030141849139609794    0.02711636584040821    0.02381018329805237    0.021286604920107477    
  0.0203496015311889    0.021580372853195404    0.02547813183524406    0.03232089934514011    0.04171139736901762    
  0.05201457083055133    0.060568542434899814    0.06499667697764779    0.06474666709395406    0.06155713730542551    
  0.05816961063646763    0.05676799762124406    0.058169684480986014    0.06155726703878413    0.06474681116776534    
  0.06499672004023924    0.06056845801202177    0.05201440979715728    0.04171120320514718    0.032320754704848596    
  0.02547793570101897    0.021580268684074932    0.022216347497195008    0.018903965945037817    0.017918696773032095    
  0.01848687476546696    0.019906175300037257    0.021444539252356575    0.022493265740511196    0.022799235687179283    
  0.022534885213036933    0.022132791088214285    0.021957796792036424    0.022132788436810213    0.022534896737807973    
  0.02279927937813854    0.022493348871304976    0.021444569159656517    0.01990625679630582    0.01848692061404442    
  0.017918841064564792    0.018904066457068366    0.022216566626210705    0.028739209538447313    0.039109567089304666    
  0.05289398918827795    0.06777172413722864    0.07989522541641521    0.08587181494722931    0.0850455499547792    
  0.08009312125023994    0.07503737635882009    0.07297957492097897    0.07503740397698919    0.08009318158109995    
  0.08504553086426651    0.08587162521927307    0.07989490998235013    0.0677712865264188    0.05289366512256794    
  0.039109186375104986    0.028739012150742052    0.022216347497195008    0.022807091009254127    0.017957939449231814    
  0.015699169799859497    0.015088162394243558    0.015416745541177695    0.016094805637409487    0.016679340499786484    
  0.016955021043125403    0.01693739597600304    0.016813419686519785    0.01675386093663358    0.016813435800849756    
  0.016937415541061054    0.016955046674457946    0.016679380726496062    0.016094849028901022    0.015416760312063658    
  0.015088255533185197    0.015699241996660788    0.017958132382641122    0.022807266762857357    0.03143957422027876    
  0.044771170557114055    0.06230929479596518    0.0810763362021935    0.09613245631886509    0.10326049414221411    
  0.10183810697091945    0.0953032677738073    0.08878033429688238    0.08615620782003833    0.08878027870853988    
  0.09530319749622888    0.10183787889234003    0.10326009435840332    0.09613175731047216    0.0810756972308469    
  0.06230862024563959    0.044770732183331004    0.031439192123120144    0.022807091009254127    0.02283914501242034    
  0.017172764698617553    0.01423481358316413    0.013000007914850186    0.012758700195810137    0.012981686205166555    
  0.013308786999367925    0.013545169967648015    0.013631682423382403    0.013632182986859816    0.013625393526481287    
  0.01363215738249839    0.013631688327996749    0.01354519200125961    0.013308793844633612    0.012981717699152018    
  0.012758747516941392    0.013000063039310115    0.01423494227686948    0.01717288304323654    0.022839461461714616    
  0.03255673671728172    0.04734473825370972    0.06665886313647917    0.08717880234793678    0.10341788231592383    
  0.11088111665714033    0.10905640833083437    0.10171385858543887    0.09446985950646845    0.09157230354271605    
  0.09446975863225099    0.10171356819861274    0.10905594104657994    0.11088035486203528    0.10341700453558383    
  0.08717773233464263    0.06665807583073366    0.04734403131465206    0.032556365121385794    0.02283914501242034    
  0.021936729101693895    0.01628293858313577    0.013228848675577094    0.011795657351706873    0.011326350737063912    
  0.011352283098363038    0.011555125035791885    0.011754088486136587    0.01186867923073974    0.011916641739298033    
  0.011931084093286215    0.011916642722260453    0.011868685830455174    0.011754109988649656    0.011555140737966804    
  0.011352313969218108    0.01132639872469165    0.011795736075162669    0.013228946227874492    0.016283152954654774    
  0.021936967963663238    0.03144465422919542    0.045705631628910566    0.06412510305298331    0.08351686814007299    
  0.09870966717735324    0.10555108754465942    0.10363115704540166    0.09654484705041068    0.08963519813770619    
  0.08688731315302106    0.08963493277891203    0.09654439590311567    0.10363040420612786    0.10555010294033028    
  0.09870841483986217    0.08351575427672137    0.06412407577465826    0.045704978516808464    0.03144413202581364    
  0.021936729101693895    0.02017826803334858    0.015251277579550434    0.012543307744009396    0.011242539109064881    
  0.010796695110537739    0.01079796657253318    0.010965855183863237    0.01113407718535162    0.011235481109864259    
  0.011282972297800032    0.01129983738223639    0.011282973830558493    0.01123551498472829    0.011134122908709847    
  0.010965901403034457    0.010798038420074456    0.010796768294503996    0.011242626718029884    0.012543445937222807    
  0.015251415844915458    0.020178590621566954    0.028327377679978314    0.040345606435932685    0.05561943157172712    
  0.07150377073410934    0.08383861025452234    0.0893345092461671    0.087702273572005    0.0818811304002576    
  0.0762238437244876    0.07397709683431913    0.07622362515192653    0.08188058727742219    0.08770152886751775    
  0.08933342675269473    0.08383745956740456    0.07150254016762911    0.05561855514966551    0.04034485755140868    
  0.028326966240349756    0.02017826803334858    0.01801727711958471    0.014264224237588953    0.012223156145958494    
  0.01131763576515879    0.011099537853434484    0.011214468233733777    0.011415416371348498    0.01156407573758864    
  0.011620842157356032    0.01162651809374513    0.011624280163971691    0.011626549529964737    0.01162089936974983    
  0.011564168696470149    0.011415496568573219    0.011214577380823564    0.011099635967204268    0.011317768503820713    
  0.012223278553071973    0.014264419986725695    0.018017508603664373    0.024152591512953046    0.03304593087383582    
  0.044158587299876276    0.05556132432269233    0.06434430089506374    0.06824817014682992    0.06714167103971228    
  0.0630751219696529    0.059077383867698785    0.05747661579660397    0.05907718427039135    0.06307472525277609    
  0.06714093847703367    0.06824734998167266    0.06434322321660947    0.05556038390183063    0.04415777298914334    
  0.03304538363969577    0.02415215777021979    0.01801727711958471    0.0160103377766498    0.013619024588525822    
  0.012477595573548023    0.012203448793504846    0.012424086654288444    0.01280491055147624    0.013114468525152575    
  0.013237561368674901    0.01320190693440007    0.01311339442124905    0.013070849623645592    0.013113451265420652    
  0.013202002289311985    0.013237714599407988    0.01311462105332274    0.012805066152660725    0.012424242782864156    
  0.012203600140219257    0.012477787609726797    0.013619179279116555    0.01601059485328658    0.020027591545910772    
  0.025838885173318532    0.03301102191243718    0.040292576413029184    0.045880240832950975    0.048392657826888015    
  0.047793744574392685    0.045351642610119446    0.04289787994425743    0.041902528009307986    0.04289770496478741    
  0.045351292951772586    0.04779320893736608    0.04839198527077669    0.04587951145161892    0.04029181388662682    
  0.03301047695299177    0.025838413033262935    0.020027314169350496    0.0160103377766498    0.01462707173449818    
  0.013646478218725104    0.013614532314294936    0.014256276058645866    0.01520420078537757    0.0160850114209303    
  0.016608616916011742    0.01668070071945267    0.01645672247538621    0.016183859874413547    0.016063348789060114    
  0.01618393799798042    0.016456914300726943    0.01668091940053321    0.01660889574950679    0.01608528756543252    
  0.015204451816757643    0.01425651529135029    0.013614722597605454    0.0136466916470811    0.01462725525190037    
  0.016748356523444075    0.020030210685082827    0.02413975326975277    0.028317888289409152    0.031565579230257115    
  0.033092398946845604    0.0328548692527404    0.031574320277387845    0.030256013250343203    0.029712190616902997    
  0.030255881908317836    0.03157408449535321    0.032854562283992375    0.03309201246086228    0.03156506942862723    
  0.02831743079365699    0.024139329914859394    0.02002992001074915    0.01674808667049833    0.01462707173449818    
  0.014140804859735274    0.01462707220525843    0.016010318689080014    0.018017219963229216    0.020178248886690554    
  0.02193662426984076    0.02283911676058584    0.022806985072842578    0.022216368088238073    0.02158030358543926    
  0.021313084300306994    0.021580452646063935    0.02221664005213498    0.022807417152928302    0.022839577861961703    
  0.021937100650006692    0.020178686074615586    0.01801756974263423    0.01601063140797929    0.014627290535146033    
  0.014141042387334483    0.014627273866037247    0.016010597021957517    0.01801754166067531    0.020178628153279175    
  0.021937034554874106    0.022839531643697935    0.022807357939756752    0.022216674000759933    0.02158047732549621    
  0.021313186917456095    0.02158040924586083    0.022216498854285522    0.022807142438391395    0.022839273107119147    
  0.021936746603803296    0.020178304793603028    0.018017291823849035    0.016010344211060623    0.014627095553511419    
  0.014140804859735274    0.014627088614702983    0.016748067132423487    0.020029866883684792    0.02413926726765213    
  0.02831727986499003    0.03156487661400227    0.03309172209034743    0.03285426334074841    0.031573845877589476    
  0.030255661217222007    0.029712103699823977    0.03025591025084635    0.0315743613470926    0.032854940606485035    
  0.03309254219152048    0.03156567720205946    0.02831799018473012    0.02413983447359802    0.020030269000310425    
  0.016748380017308415    0.014627277970293043    0.013646685126898699    0.013614729652640054    0.014256480602977217    
  0.01520443537488636    0.016085253639618893    0.016608849566260287    0.016680904885075874    0.016456877155525053    
  0.01618399359685955    0.01606338315072259    0.016183937914306546    0.016456777324577197    0.01668077323229079    
  0.016608712814856486    0.016085058871695052    0.015204258818528348    0.014256280503084324    0.013614586709479933    
  0.013646479772011628    0.014627088614702983    0.016010324758886082    0.02002729946935098    0.025838368332695347    
  0.03301034089191979    0.04029161730940923    0.045879196052304366    0.048391532673032644    0.0477928056018278    
  0.04535084963044834    0.04289742865920853    0.04190227695453447    0.04289785784999778    0.04535162028534246    
  0.047793919156456956    0.048392808765512725    0.04588048680958548    0.04029273515572116    0.03301117546558761    
  0.025838981289744406    0.02002766424481421    0.01601061323019053    0.013619214747918449    0.012477761443604596    
  0.012203602806791024    0.012424234944326951    0.012805065052035889    0.013114605590250869    0.013237699061461992    
  0.013202024379967823    0.01311345093543302    0.01307088575556574    0.013113416563887124    0.013201969949014163    
  0.013237628916008711    0.013114483769538107    0.012804953349140983    0.012424078972297551    0.01220350954217608    
  0.012477599816846189    0.013619053626369818    0.016010324758886082    0.0180173090602893    0.024152146194024244    
  0.033045319100942404    0.044157616396845706    0.055560099522698636    0.06434277668582647    0.06824672284335433    
  0.06714024977816066    0.06307413176797003    0.05907668234716847    0.05747637994974759    0.05907724310154232    
  0.06307526319910432    0.06714187057789645    0.06824856816708115    0.06434457797734149    0.05556162488733046    
  0.0441588074065019    0.03304609727144053    0.024152650400459098    0.018017566052118118    0.014264417571843454    
  0.012223306372304772    0.011317740124641571    0.011099659049282421    0.011214548679806549    0.011415501044669953    
  0.011564156751516003    0.011620900303083744    0.011626559151912224    0.01162427829022283    0.011626528644325795    
  0.011620868566353458    0.011564114460529022    0.011415462772259521    0.01121447453848385    0.011099573897179861    
  0.011317623921639637    0.012223201979519201    0.014264212962676836    0.0180173090602893    0.020178273178510942    
  0.028326971072690863    0.04034481217138165    0.05561838698240425    0.07150219101466425    0.08383688377169675    
  0.08933264034402497    0.08770065137777404    0.08187980339613778    0.07622305480144863    0.07397664644304794    
  0.07622378862945543    0.0818812072528666    0.0877026959212471    0.08933492110858479    0.08383918184788547    
  0.07150410388976244    0.055619754998496904    0.04034575517131327    0.02832750149661229    0.020178614357723147    
  0.015251478958094387    0.012543432916859148    0.011242656860321665    0.010796749201036956    0.010798041478309458    
  0.01096589726483807    0.011134099230633594    0.011235514084323987    0.011282984431619906    0.011299857993824974    
  0.011282986102665855    0.011235491448220362    0.011134108789127925    0.010965870231122674    0.01079799747939067    
  0.01079669220927684    0.011242580933602314    0.012543306089030341    0.015251331067558882    0.020178273178510942    
  0.02193677698891346    0.03144415103755141    0.045704926297060064    0.06412391969459741    0.08351535402467039    
  0.09870778167950492    0.1055492140198908    0.10362939145597432    0.0965435423128738    0.08963418846228981    
  0.08688697263813308    0.08963493361243868    0.0965450422210279    0.10363148222073434    0.10555171845728821    
  0.09871019526322206    0.08351740910830065    0.06412544638826288    0.045705880113778824    0.03144474565359614    
  0.021937068144341636    0.016283141835273428    0.013228990177848477    0.01179572644902183    0.011326427461682395    
  0.011352308196546309    0.011555160279895064    0.011754094681305357    0.011868694027168104    0.011916648513791258    
  0.011931089241501595    0.011916628992137879    0.011868672360880678    0.011754085900557942    0.011555120031233847    
  0.01135225701535076    0.011326374130060301    0.011795632932717579    0.013228911065992865    0.01628294074181283    
  0.02193677698891346    0.022839164936232725    0.03255642214277076    0.047344051972733    0.06665795942315438    
  0.08717743403090515    0.10341638104447126    0.11087942101484154    0.10905492824727116    0.10171266091507591    
  0.09446907372294261    0.0915718212214069    0.09446977344214169    0.10171395631280308    0.1090569073554892    
  0.11088163140683681    0.10341857656034088    0.08717929769854461    0.06665925405576914    0.047344933092163165    
  0.032556882689528846    0.022839487026062914    0.01717296993295125    0.014234920779061007    0.01300010031129791    
  0.012758745254171627    0.012981727710879602    0.013308781199523655    0.013545187383154703    0.01363168277483426    
  0.013632166361568077    0.013625386532629168    0.01363212931326427    0.013631664813202521    0.013545165951736724    
  0.013308751285846814    0.01298170179171775    0.012758681321807233    0.013000047503572861    0.01423480623839331    
  0.01717281391390237    0.022839164936232725    0.022807142927210387    0.031439207294459336    0.044770751590962596    
  0.062308554124026715    0.08107541631728492    0.09613128624337595    0.10325934688972027    0.10183702270656683    
  0.09530241453043707    0.08877963842227897    0.08615588717021942    0.08878018286604755    0.0953034212599129    
  0.10183850033720096    0.10326105046324202    0.09613298435382836    0.0810767957353546    0.0623096304762527    
  0.04477139478330443    0.031439643699671276    0.02280736736230238    0.01795812111661872    0.01569929383060806    
  0.01508822377165766    0.015416816726124093    0.01609484393190073    0.01667938452612586    0.016955039609476544    
  0.016937390558034095    0.01681341354236336    0.01675380900485426    0.016813401774659058    0.016937372354464904    
  0.01695500316170531    0.016679346516437557    0.01609477946427994    0.015416739083753727    0.015088145816481359    
  0.01569921674098463    0.01795795692045943    0.022807142927210387    0.02221637570206612    0.02873906277830199    
  0.039109237940847204    0.052893619582981874    0.06777112454023934    0.07989461301172918    0.08587112241142363    
  0.0850449353561621    0.08009256108992002    0.07503698884352204    0.07297925285875949    0.0750373387069144    
  0.08009323193171311    0.08504591136861205    0.08587216373147381    0.07989563370110735    0.06777201820296766    
  0.05289428829606326    0.03910970502742535    0.028739322628154703    0.02221658877961757    0.018904138021390276    