#     DFTpy    
  CRYSTAL 
    
  PRIMVEC    
  6.253862068965517    0.0    0.0    
  0.0    6.253862068965517    0.0    
  0.0    0.0    6.253862068965517    
  PRIMCOORD    
  8    1    
  Si    0.0    0.0    0.0    
  Si    1.5634655172413792    1.5634655172413792    1.5634655172413792    
  Si    0.0    3.1269310344827583    3.1269310344827583    
  Si    1.5634655172413792    4.690396551724137    4.690396551724137    
  Si    3.1269310344827583    0.0    3.1269310344827583    
  Si    4.690396551724137    1.5634655172413792    4.690396551724137    
  Si    3.1269310344827583    3.1269310344827583    0.0    
  Si    4.690396551724137    4.690396551724137    1.5634655172413792    
  BEGIN_BLOCK_DATAGRID_3D    
  3d_datagrid_density    
  BEGIN_DATAGRID_3D#0    
  27    27    27    
  0.0    0.0    0.0    
  6.253862068965517    0.0    0.0    
  0.0    6.253862068965517    0.0    
  0.0    0.0    6.253862068965517    
  0.07355888737922593    0.13136243533713288    0.313956642893231    0.414705021414158    0.30624555185997804    
  0.17411634037091991    0.0960188152507063    0.0573543420876814    0.03896041317930633    0.03019493459108161    
  0.025884342799361505    0.023781030850353692    0.02281861447842561    0.022553672214778806    0.022818606362221563    
  0.023781014781801238    0.02588433467909328    0.03019491410032199    0.03896041734656847    0.05735433327072145    
  0.09601883178584976    0.17411634032636697    0.3062455766059695    0.4147049593904179    0.31395660552834465    
  0.13136245012370668    0.07355888737922593    0.13136248244193446    0.1962576574425907    0.3596238064104006    
  0.4112867509641222    0.2922947417179472    0.16772015674766494    0.09450993690996623    0.05765846665857462    
  0.039737144010131946    0.03095483565740356    0.02649283115096215    0.024227933780868138    0.02313409358086523    
  0.022818611940212997    0.023134096918074172    0.0242279321170001    0.02649282754482637    0.030954851380189406    
  0.039737158330489276    0.057658467058370744    0.09450992460412312    0.16772016550450622    0.2922947441923527    
  0.41128675885446886    0.35962377643409854    0.1962576648847567    0.13136248244193446    0.3139566932073191    
  0.35962381623813694    0.42313397903382033    0.37556859131312054    0.2527894080780196    0.15090813427444671    
  0.09063680585504273    0.05869788202829004    0.0421444185032421    0.03332536036160575    0.02841922582111494    
  0.02567302402470885    0.024227944140529284    0.023781023304763376    0.024227939300042085    0.025673016989410182    
  0.028419217431536307    0.0333253535871048    0.04214443701271483    0.05869786692354406    0.0906367972214944    
  0.15090816147231592    0.2527894104309977    0.37556859024086076    0.4231340411772734    0.3596237864402266    
  0.3139566932073191    0.41470499954909346    0.41128671109893344    0.3755685051544113    0.2919892006855117    
  0.19892269414379057    0.12923462792693394    0.08586679105278384    0.0607344780213157    0.04622242624148725    
  0.03741490988643688    0.031870215814475925    0.02841920428885978    0.026492845169620145    0.025884336864234365    
  0.026492821760749432    0.02841921064652274    0.03187019529014239    0.037414921402479734    0.046222431311067284    
  0.0607344688903726    0.08586679315322196    0.12923462433329858    0.19892268752872438    0.2919891948898767    
  0.37556854994653316    0.41128675042082724    0.41470499954909346    0.30624562198972505    0.2922947077342972    
  0.2527894472460517    0.1989227037482574    0.14756203651742408    0.10833966099391107    0.08149960173019168    
  0.06381596728230852    0.0519025913354011    0.04344170163023528    0.0374149111122607    0.03332535597568462    
  0.030954863996432852    0.030194927469184053    0.03095484755549732    0.03332536975164202    0.037414908293656436    
  0.043441710106330994    0.051902598255117983    0.0638159339464238    0.08149961198500845    0.10833964825036323    
  0.1475620050428821    0.1989227245954412    0.2527894401263002    0.2922947174837367    0.30624562198972505    
  0.17411633911629232    0.16772014536449467    0.15090813423754115    0.12923463612894454    0.10833962850887581    
  0.09119173147488092    0.07792343557206256    0.06756182621291192    0.059049123028374284    0.051902581281673806    
  0.0462224276047291    0.042144422678500326    0.03973715101934946    0.03896040299971855    0.0397371374841027    
  0.04214441955749269    0.04622241895625355    0.05190259724840308    0.05904913709486137    0.06756183127957159    
  0.07792342929982027    0.09119172747647748    0.10833962309233147    0.12923461563972755    0.15090812972474058    
  0.1677201309381568    0.17411633911629232    0.09601881929902663    0.09450996789172336    0.09063681796328853    
  0.0858668060659943    0.08149961837306458    0.07792344357922647    0.07471631465623914    0.07132505648013363    
  0.06756183398747576    0.06381595528510839    0.060734488241259155    0.05869784829932037    0.057658483165571484    
  0.0573543187820111    0.05765847050441337    0.058697859589626915    0.06073446043182499    0.06381595734817623    
  0.06756184703684513    0.07132507670857052    0.07471631834840337    0.07792342768059167    0.08149960660352044    
  0.08586681910609013    0.09063681163253104    0.09450993661123269    0.09601881929902663    0.057354341712952256    
  0.05765848591064338    0.058697846042670344    0.060734482631789447    0.06381595024261574    0.06756184030873008    
  0.07132507831194684    0.07471632651662952    0.07792343177442848    0.08149962195641942    0.08586682102606773    
  0.09063680935839934    0.0945099462965414    0.09601883361883919    0.09450996369589135    0.09063681495188612    
  0.08586680884165344    0.08149962270150818    0.07792343278902243    0.07471631002968301    0.07132507934257477    
  0.067561835617522    0.06381594470098427    0.060734495207183846    0.05869786491464348    0.057658478215957834    
  0.057354341712952256    0.03896040886379128    0.03973712970276861    0.042144418164691694    0.04622243495492744    
  0.051902582819231234    0.05904913714102923    0.06756183177680868    0.07792342465570175    0.09119171144640213    
  0.1083396505485468    0.12923464303064933    0.15090812552010208    0.16772015800879214    0.17411630389242347    
  0.16772015771992865    0.15090811443496296    0.1292346247527741    0.1083396358871444    0.09119170326409563    
  0.07792341747438469    0.06756183860721693    0.059049124548796926    0.05190257678968782    0.04622243359709286    
  0.04214441718671811    0.03973712698469038    0.03896040886379128    0.03019494549207763    0.03095484211173749    
  0.03332536185949435    0.03741491531697583    0.043441693447112385    0.051902602278699785    0.06381594806904625    
  0.08149961104396658    0.10833963099822858    0.14756201932946622    0.19892273235950791    0.2527894437336923    
  0.2922947638586429    0.30624561762767327    0.29229472033018283    0.25278942314327685    0.19892272050479312    
  0.14756202163220883    0.1083396421673787    0.0814995991852916    0.06381594720933406    0.05190260469750247    
  0.043441678317374534    0.03741492386528271    0.03332535677889608    0.030954836545166155    0.03019494549207763    
  0.025884333719935135    0.026492839463221906    0.028419202454342502    0.03187020319049374    0.0374149046446352    
  0.04622243874194492    0.06073447209354918    0.08586681206221836    0.1292346332370168    0.19892264698234866    
  0.29198917898102283    0.3755685565636671    0.41128673854069603    0.414705005861743    0.41128676506141515    
  0.3755684753704192    0.29198918848699484    0.1989226704292327    0.12923461879841217    0.0858668164022715    
  0.06073449233658166    0.04622241433742418    0.037414893413605196    0.031870198959786274    0.028419222295801225    
  0.026492840953459815    0.025884333719935135    0.02378103829893603    0.0242279360415753    0.0256730294520646    
  0.02841921982148069    0.033325381825201006    0.042144422709952827    0.05869785417081719    0.09063682582769451    
  0.15090814585222387    0.2527894487727294    0.37556853883227515    0.42313404298114965    0.3596238255624782    
  0.3139566114475392    0.3596237746306311    0.4231340281767788    0.37556858713979174    0.2527894486857321    
  0.1509081730701229    0.0906368160752865    0.05869786871690298    0.04214442060272891    0.0333253588874882    
  0.028419232836432388    0.025673033567739045    0.024227950362475062    0.02378103829893603    0.02281862603223092    
  0.02313409276083974    0.024227931454452456    0.026492826183830444    0.030954840472994637    0.03973714524051037    
  0.057658452352050166    0.09450994686144536    0.16772020285663666    0.2922947136544029    0.4112866720836572    
  0.3596237898194546    0.196257696992665    0.13136244997885033    0.19625766664379696    0.3596238138184537    
  0.4112867167697868    0.292294768352393    0.16772015721613856    0.09450995429458033    0.0576584777692932    
  0.03973712513473252    0.030954831531905272    0.026492844333429695    0.024227927729892948    0.02313408929304212    
  0.02281862603223092    0.022553666161967238    0.022818611212726478    0.023781022696202546    0.025884335652167592    
  0.03019494134161177    0.03896040786162641    0.057354337465340945    0.09601881507815084    0.1741163302857131    
  0.3062455861556791    0.41470499831683416    0.3139565825412839    0.13136246218958886    0.07355887141174224    
  0.13136247058855413    0.31395655527594585    0.4147049126587342    0.30624560503168313    0.17411633869028487    
  0.09601881401171296    0.05735434370683555    0.038960406314048915    0.030194941519667624    0.025884335579368752    
  0.02378101680418306    0.02281860142353802    0.022553666161967238    0.022818611619367907    0.023134097113258846    
  0.024227917498447268    0.02649283276503798    0.030954835546776673    0.03973714883931177    0.05765846864007951    
  0.09450995009871004    0.16772019710324876    0.29229473414704676    0.4112866863644876    0.35962381544893407    
  0.1962577068850759    0.1313624383769619    0.1962577002020575    0.3596237946501402    0.41128672381554876    
  0.29229471964720954    0.16772015500514167    0.09450996274811223    0.057658482287319686    0.039737129972612806    
  0.03095484234162555    0.02649282747460182    0.024227918572150946    0.02313409720856619    0.022818611619367907    
  0.023781029753401274    0.02422793851816457    0.0256730323852168    0.02841921698269273    0.0333253708095974    
  0.042144425703231445    0.058697866943812675    0.09063683012643356    0.15090816389331466    0.2527893925491466    
  0.37556857328470916    0.4231340786692684    0.35962380004246053    0.3139566112757332    0.35962380086392964    
  0.42313402798788075    0.37556857611313876    0.252789470313395    0.1509081594188073    0.09063682167955552    
  0.058697872030778274    0.042144423709813354    0.03332535113071109    0.02841921985814096    0.025673029839244868    
  0.02422793157982688    0.023781029753401274    0.025884320390078156    0.026492826826882913    0.02841922221000195    
  0.031870207219957924    0.037414906878298335    0.04622243565303522    0.060734459472464544    0.08586678644747893    
  0.1292346472846675    0.19892266099221165    0.291989221979416    0.3755685407863871    0.41128677476624953    
  0.4147049856209886    0.41128675686306493    0.37556848877654353    0.29198920062234185    0.19892269238262983    
  0.12923462243350042    0.08586678640664167    0.06073447596879444    0.04622243582851862    0.03741490349653199    
  0.031870206543305066    0.02841921517761798    0.02649283054211441    0.025884320390078156    0.03019494450315152    
  0.03095484084937554    0.03332536385699779    0.0374149151785565    0.04344169246056354    0.05190259736315949    
  0.06381594605546273    0.0814996173433493    0.10833966426345101    0.14756200216886015    0.19892267753395215    
  0.2527894263240854    0.2922947823896022    0.3062456382730631    0.29229471746730323    0.25278939157556674    
  0.19892270148656085    0.1475620344525555    0.10833963574409847    0.08149959149015512    0.063815960138404    
  0.05190260483828915    0.04344168608124155    0.03741492362540971    0.03332537358391633    0.030954828516486583    
  0.03019494450315152    0.03896041936877499    0.03973713646122401    0.04214442058498019    0.04622243172416287    
  0.05190258345825792    0.05904913731790152    0.06756183410599886    0.07792343475735586    0.09119169525699834    
  0.10833962911409209    0.12923464259377435    0.1509081292258441    0.167720151789658    0.17411631660087348    
  0.16772014095861743    0.1509081392561499    0.12923462492261464    0.10833965546442421    0.09119172180414091    
  0.07792341436788375    0.06756183131557805    0.05904913762199844    0.05190257738611071    0.04622242129489475    
  0.04214443153456827    0.039737136748528655    0.03896041936877499    0.05735433302672787    0.05765848069277735    
  0.05869784626369199    0.06073448684767991    0.06381596462045692    0.06756183802731623    0.07132507348941032    
  0.07471630892888165    0.07792344203503138    0.0814996316117446    0.08586680526032893    0.09063681650542162    
  0.09450996895056873    0.0960188106147891    0.09450996086451954    0.0906368381603994    0.08586680170270108    
  0.08149961896125187    0.07792344446186286    0.07471631657781358    0.07132508620118788    0.06756181987758143    
  0.06381594927590763    0.060734496449635106    0.05869786615790468    0.057658462929058414    0.05735433302672787    
  0.09601881706526903    0.09450995797595463    0.09063681484341156    0.08586682369243637    0.08149960459687339    
  0.07792344167636911    0.07471631449325401    0.07132506331686912    0.06756184610148541    0.06381596427512465    
  0.060734476962613075    0.05869784782991447    0.05765848511521261    0.05735432754705247    0.05765849092269669    
  0.058697880133372134    0.060734493210562825    0.06381593983832534    0.06756185706101299    0.07132507218926011    
  0.07471632524486137    0.07792343662185823    0.08149960446513517    0.08586682231568006    0.09063681425513273    
  0.09450996213661851    0.09601881706526903    0.17411631760936047    0.16772013896473867    0.15090812789131133    
  0.12923462723305065    0.10833964098187038    0.09119170698199648    0.07792345174136901    0.06756180971506039    
  0.05904913049454674    0.05190258426117128    0.04622244464577622    0.042144411220807886    0.039737156098093154    
  0.03896040157812378    0.039737134943826274    0.04214439416895583    0.04622243782100686    0.051902589121031704    
  0.059049153064414744    0.06756182236156122    0.07792341586183464    0.0911917232019867    0.10833962119851753    
  0.12923462357748328    0.15090816067859206    0.16772012542770265    0.17411631760936047    0.30624560029191433    
  0.2922947396166598    0.25278943075710203    0.19892272105664746    0.14756201903027721    0.1083396382845642    
  0.08149961487653527    0.06381597007665912    0.051902566206275    0.043441702552760225    0.03741492212782331    
  0.033325362432909185    0.030954839677051045    0.03019493058831811    0.030954834735678827    0.03332536997460222    
  0.03741491734303149    0.043441707656221636    0.051902588013836105    0.06381595628056588    0.08149960481018081    
  0.10833966596742763    0.14756200781850679    0.19892271667202707    0.25278946544578923    0.2922947754552991    
  0.30624560029191433    0.41470501105167346    0.4112867230130718    0.37556852064734686    0.29198921416575024    
  0.1989226898419412    0.12923463618768782    0.08586680530455164    0.06073446768990788    0.04622243150315997    
  0.03741489607735291    0.03187019560838197    0.028419197599295242    0.026492839314860163    0.025884325234256912    
  0.02649283500551249    0.028419211214729633    0.0318701961225423    0.03741491212302592    0.04622242298293323    
  0.06073446865440023    0.08586679396335414    0.1292346298418784    0.1989226807264793    0.29198919589719063    
  0.3755685563946155    0.4112867179886566    0.41470501105167346    0.3139566465453551    0.3596237670971873    
  0.42313397139990966    0.3755686009911699    0.25278945405221676    0.15090814483726997    0.09063682223828898    
  0.058697870629210544    0.04214442991837765    0.0333253575812827    0.02841920674956473    0.025673032172301977    
  0.024227944577292486    0.023781023805454826    0.02422793523826919    0.025673027967459527    0.028419217057585815    
  0.033325352204444464    0.042144437969638834    0.0586978576678781    0.09063683745826227    0.15090814814999487    
  0.2527894159411181    0.3755685944300229    0.4231340736552452    0.35962383131030734    0.3139566465453551    
  0.13136249158924004    0.19625764624000233    0.35962380386292664    0.411286697998029    0.29229470797957713    
  0.16772017960462796    0.09450993033994128    0.057658480253287854    0.039737144577035706    0.030954840366383525    
  0.02649283033191253    0.02422794084733452    0.023134096814226124    0.022818606799871424    0.02313409783197724    
  0.02422793249356126    0.02649282062517204    0.030954843223704023    0.03973714915079054    0.0576584671076077    
  0.09450995462242931    0.16772014401786953    0.29229476277582106    0.41128675725243674    0.3596237867044832    
  0.196257662035879    0.13136249158924004    0.07355888737922593    0.13136243533713288    0.313956642893231    
  0.414705021414158    0.30624555185997804    0.17411634037091991    0.0960188152507063    0.0573543420876814    
  0.03896041317930633    0.03019493459108161    0.025884342799361505    0.023781030850353692    0.02281861447842561    
  0.022553672214778806    0.022818606362221563    0.023781014781801238    0.02588433467909328    0.03019491410032199    
  0.03896041734656847    0.05735433327072145    0.09601883178584976    0.17411634032636697    0.3062455766059695    
  0.4147049593904179    0.31395660552834465    0.13136245012370668    0.07355888737922593    0.13136247579584975    
  0.1962576499489013    0.35962383108666607    0.41128672468753164    0.2922947162385296    0.16772017486228885    
  0.09450995686440332    0.05765848693021238    0.03973714243155316    0.03095483286596084    0.026492824247611776    
  0.024227926072164566    0.02313410127554082    0.022818619232606443    0.0231340993102419    0.024227930019470025    
  0.026492826918952567    0.03095482904169126    0.03973714356636728    0.05765848142666088    0.094509956201268    
  0.16772016892973296    0.29229473276632945    0.41128672088329704    0.3596237936349907    0.19625763745911853    
  0.13136247579584975    0.19625770255934133    0.26440489289102453    0.4039978449094258    0.4184033506703564    
  0.2933375285816145    0.17336979164035352    0.10189276064299434    0.06441688196742017    0.04516614236925651    
  0.03502747753811285    0.029359815068306754    0.02606834960995963    0.02413052874238636    0.023134092474611307    
  0.022880127921422886    0.023447535938259642    0.025155370636070293    0.028923449036622757    0.03665955337380603    
  0.0526533073695356    0.08576652585381556    0.1517614869005858    0.2657946320297561    0.38883698768820457    
  0.3827531067758788    0.2560258835210711    0.19625770255934133    0.3596238766593116    0.40399785430642043    
  0.44833398806317776    0.38943380869813493    0.26935996904430776    0.16998973576993998    0.10857443334480753    
  0.0736110718982478    0.05368447414212774    0.041750164203625276    0.03416481206313226    0.02923531885169621    
  0.02606835448633489    0.024227935121023187    0.023447541893914542    0.023710241938473778    0.025184783400732935    
  0.02855426418720529    0.035342131331240006    0.04887892650933991    0.07599477749105098    0.12841198295778278    
  0.2191800986188873    0.33641780945222804    0.40579575751851366    0.3827530664694298    0.3596238766593116    
  0.41128675855615787    0.4184032506407788    0.38943375260172125    0.3150027660490731    0.2292105961493779    
  0.16126944966354642    0.1154270079933727    0.08565187857426239    0.06574270552198822    0.05161547297300696    
  0.041383621903527006    0.03416478231757116    0.029359832903051    0.02649282868598117    0.02515537340976525    
  0.025184770565030108    0.026547731920079528    0.029618465625801612    0.03544857278233632    0.046236967644669016    
  0.06641611641085561    0.10307861749962713    0.16439245293072743    0.2503622422440545    0.3364177961803781    
  0.38883697987573546    0.41128675855615787    0.2922947778431689    0.29333752123805945    0.26935996299884074    
  0.22921058050360424    0.18669281735578433    0.15066144131900652    0.12242345667639769    0.09988020021082832    
  0.08093267040952956    0.06475999681272875    0.0516154752452358    0.04175016273858355    0.03502749403291255    
  0.030954849972681713    0.0289234603642762    0.028554274463332266    0.029618453718298434    0.03221077512768821    
  0.03688323161344835    0.044787917196759584    0.05825113109590528    0.08071990168795246    0.11581828073697391    
  0.16439248692992284    0.21918013891560628    0.26579458484039437    0.2922947778431689    0.16772015728263523    
  0.17336977030148987    0.1699897270091555    0.1612694678659133    0.15066139776068344    0.13973447323371732    
  0.1279247945552111    0.11395793763011694    0.09774243650678635    0.08093266381456687    0.06574271555172286    
  0.053684477248584904    0.04516615036887972    0.039737130233661745    0.03665954883206072    0.03534210675343554    
  0.03544856482392391    0.03688322590336482    0.03978948260567071    0.044565527403301934    0.052120296484067366    
  0.06377308253502306    0.08071986626669125    0.10307860541974072    0.12841194911398288    0.15176142574835552    
  0.16772015728263523    0.09450995234452708    0.10189279615778146    0.10857444706027625    0.11542703164995384    
  0.12242348551733627    0.12792478305235572    0.12933163771878858    0.12461790784703529    0.11395794366048691    
  0.09988018170714749    0.08565189079449702    0.07361105208221053    0.06441689961108636    0.057658473332393954    
  0.052653321101611514    0.04887893163676435    0.046236970622854145    0.044787933123573404    0.04456554668756559    
  0.045602274195749276    0.04801710618899762    0.05212029379783034    0.058251109736897184    0.06641613335850617    
  0.07599478152095274    0.08576654865553211    0.09450995234452708    0.057658484511849045    0.06441689999819979    
  0.07361105452711322    0.08565188635156185    0.09988016084289524    0.11395796629219582    0.12461792168962123    
  0.12933165812996691    0.1279247612598063    0.12242349840528723    0.11542705468628803    0.10857445084051885    
  0.10189277420276055    0.09450995515758168    0.08576655842799474    0.07599477655469361    0.06641612595260332    
  0.05825111507667729    0.05212030118991012    0.04801709633482655    0.04560225987232897    0.044565530698346234    
  0.04478791594139924    0.04623698253375383    0.048878926490437825    0.05265332412937329    0.057658484511849045    
  0.03973713498501169    0.04516612950120667    0.05368448352512196    0.06574271905631467    0.080932658396236    
  0.09774245970011193    0.11395794870403175    0.127924763173534    0.13973445723000458    0.1506614413238875    
  0.16126945478537105    0.1699897047594589    0.17336979023335108    0.16772013426864282    0.15176145599110438    
  0.12841193900471085    0.10307861033655082    0.08071989049837616    0.06377306645443256    0.05212029194814882    
  0.04456554034075559    0.03978948133932147    0.036883223015141894    0.03544856869588255    0.03534211802268606    
  0.036659521606315    0.03973713498501169    0.030954846282594584    0.0350274830498572    0.041750163483575756    
  0.05161547582939234    0.06476000535003609    0.08093268434161109    0.09988016708041066    0.12242348135500328    
  0.1506614277403988    0.18669281125643505    0.2292106259366667    0.26935997513825316    0.29333759235271856    
  0.2922947940957939    0.26579459387464444    0.21918010997991264    0.1643925035833716    0.11581830533063453    
  0.08071989631136212    0.05825111706214688    0.04478793582423726    0.03688324157072937    0.03221075617736483    
  0.029618465365468805    0.028554278462377382    0.028923457613221702    0.030954846282594584    0.026492815631132764    
  0.029359810073127386    0.03416478722404898    0.04138363157596423    0.05161546313913552    0.06574273118783912    
  0.08565186534288047    0.11542703135133138    0.16126946170221756    0.2292105248535478    0.31500279542591997    
  0.38943379220232277    0.4184032894240106    0.4112867646398934    0.38883697530143496    0.3364177427492426    
  0.2503622050199759    0.16439245744605913    0.1030786060030522    0.06641612333915309    0.04623698583951869    
  0.035448561363231344    0.02961844297405288    0.026547756164827414    0.02518477532283013    0.025155373719926388    
  0.026492815631132764    0.02422793982202681    0.02606834867418493    0.02923532061828603    0.03416479615039755    
  0.04175017444979147    0.05368448340402321    0.07361104725996953    0.10857445076670416    0.16998973570305392    
  0.2693599761841194    0.38943378209673996    0.448334059946709    0.40399788530595065    0.35962377439311743    
  0.3827530786698278    0.40579573918663775    0.33641781060650255    0.2191801192107747    0.1284120046588057    
  0.07599476663376217    0.048878932400868075    0.0353421092615605    0.028554267957366878    0.025184788364922286    
  0.02371025004688649    0.023447544653224402    0.02422793982202681    0.02313410700396318    0.024130526351188532    
  0.026068339221623705    0.029359816998786495    0.0350274784741414    0.045166148258727314    0.06441686441704182    
  0.10189276843144338    0.17336982469761117    0.29333750575877965    0.41840324816750685    0.4039978199773258    
  0.2644049032710386    0.19625767490247223    0.2560258890928771    0.38275308425424237    0.38883699611679623    
  0.26579463655826113    0.15176147226405226    0.08576656286091972    0.05265331869727115    0.0366595288697558    
  0.028923454486480572    0.02515538689298111    0.02344753430765739    0.022880116465337302    0.02313410700396318    
  0.02281861082364837    0.023134096964350898    0.02422792752219237    0.026492835496210943    0.030954840399871904    
  0.03973714041385878    0.05765848330987963    0.09450993269121344    0.1677201889075197    0.29229473498442066    
  0.4112867951463081    0.35962377478988966    0.19625769893675774    0.1313624451032644    0.19625769865337267    
  0.35962374861716456    0.4112866885810092    0.29229474008643924    0.1677201684381554    0.09450993873523332    
  0.05765848578007841    0.03973712927710093    0.0309548422579771    0.02649282412357934    0.024227925553206527    
  0.023134080632614098    0.02281861082364837    0.023134095456772145    0.02288012815155327    0.02344752329642507    
  0.025155375176325677    0.02892345699626453    0.03665954379377978    0.05265330805925077    0.08576654057199705    
  0.15176148283326119    0.26579459184817217    0.38883694359429416    0.3827531140185393    0.25602591824698884    
  0.19625765699520986    0.26440496135739794    0.4039978352180347    0.41840324837189796    0.2933375292472792    
  0.17336977579683394    0.10189278162958387    0.06441688980279453    0.04516612566008459    0.03502748260660821    
  0.029359817562525755    0.02606834349497227    0.024130518526884828    0.023134095456772145    0.02422794076501424    
  0.023447545868785388    0.02371025379557715    0.02518478824313346    0.028554279606739123    0.03534211604492653    
  0.048878926355728304    0.0759947900957052    0.12841197216548342    0.21918010282442932    0.3364177808103423    
  0.40579577676688744    0.3827530606746272    0.35962377934659084    0.40399782560153835    0.4483340403600877    
  0.3894338299087268    0.26936000225961126    0.16998972768126192    0.10857445943935304    0.07361107851792754    
  0.05368448763761284    0.04175015857467314    0.03416480617499942    0.029235320859946505    0.026068341945248912    
  0.02422794076501424    0.026492816991948668    0.025155364545383096    0.02518477876671481    0.026547727685941394    
  0.029618448626886295    0.03544857798142195    0.04623696065573732    0.06641609984197847    0.1030786379274091    
  0.16439243681831406    0.25036222032712    0.33641777129700706    0.3888369750400933    0.41128675393011294    
  0.4184033265693051    0.389433703724512    0.31500278192502423    0.22921057242576978    0.1612694497366802    
  0.11542701980702644    0.08565187292030656    0.06574271301067118    0.0516154664632431    0.04138362308846638    
  0.034164815068745365    0.0293598240981301    0.026492816991948668    0.03095485611538431    0.02892345344696371    
  0.02855428436244378    0.029618459516156017    0.03221076344549467    0.03688323475780084    0.044787919022791056    
  0.05825113254854367    0.08071989019529274    0.1158183061408317    0.16439242765247256    0.21918012684963425    
  0.26579465593201185    0.2922947617346278    0.2933375255399733    0.26935992901228095    0.2292105916139267    
  0.18669281427113268    0.1506614218917838    0.12242344693064383    0.09988017553894368    0.08093268727301739    
  0.06475997983283113    0.05161549054615023    0.04175016669788987    0.03502748113574011    0.03095485611538431    
  0.039737145224808174    0.036659535119207214    0.035342122960305054    0.03544856466723463    0.03688323447566927    
  0.039789472183701075    0.044565552118883224    0.05212028864284588    0.06377306835387597    0.0807198543059926    
  0.1030786231427833    0.12841194607723222    0.15176147930920797    0.16772013637426203    0.17336975600105728    