#     DFTpy    
  CRYSTAL 
    
  PRIMVEC    
  4.626103448275861    0.0    0.0    
  0.0    4.626103448275861    0.0    
  0.0    0.0    4.626103448275861    
  PRIMCOORD    
  4    1    
  Si    0.0    0.0    0.0    
  Si    0.0    2.3130517241379307    2.3130517241379307    
  Si    2.3130517241379307    0.0    2.3130517241379307    
  Si    2.3130517241379307    2.3130517241379307    0.0    
  BEGIN_BLOCK_DATAGRID_3D    
  3d_datagrid_density    
  BEGIN_DATAGRID_3D#0    
  21    21    21    
  0.0    0.0    0.0    
  4.626103448275861    0.0    0.0    
  0.0    4.626103448275861    0.0    
  0.0    0.0    4.626103448275861    
  0.07085525576220103    0.12224427982169879    0.2895619557533208    0.40761196706997693    0.3272396720382067    
  0.20011273634191845    0.11851577685499927    0.07704045115286103    0.05779643306886084    0.049701336004759546    
  0.047463977538864374    0.04970131259300135    0.05779640371142991    0.07704041368383323    0.11851574462741843    
  0.20011277812069472    0.3272396762031073    0.4076120190813985    0.28956198138992767    0.12224433209372161    
  0.07085525576220103    0.12224433199789932    0.17990329966056182    0.33310805363208573    0.4061040800379482    
  0.31140923417675537    0.19102796780517317    0.11547774921547889    0.07699592788896388    0.059143828755087634    
  0.051723761672308396    0.049701309740062365    0.05172379713336053    0.059143823151705646    0.07699591372043386    
  0.11547776059923619    0.19102791368142097    0.3114092199657545    0.40610409716143026    0.3331080622613316    
  0.17990329360002255    0.12224433199789932    0.289561941640725    0.3331079749049054    0.402668335741389    
  0.3762326113034635    0.2670756578768755    0.16801266415803723    0.10844498255996823    0.07816819487840136    
  0.06445391898119456    0.0591438532296277    0.057796442472753944    0.05914382813280835    0.06445394248437986    
  0.07816819164003877    0.10844496878821804    0.1680126050009786    0.2670756242017723    0.37623254716999677    
  0.40266812808298813    0.3331080186707474    0.289561941640725    0.4076119127032904    0.40610429919726654    
  0.37623257973426927    0.29853424684415547    0.2082738330523769    0.14130925916216922    0.10289777583029405    
  0.08467637924363573    0.0781681581753395    0.07699597294728568    0.07704041200276886    0.07699598483824475    
  0.07816817095165672    0.08467640865250273    0.10289777136045088    0.14130928068371026    0.2082738566777422    
  0.29853433133441243    0.37623256282913614    0.4061041686426224    0.4076119127032904    0.32723980216629023    
  0.31140916363273285    0.2670757625243937    0.2082737564470565    0.15583938042384649    0.12152474943116401    
  0.10536701800983612    0.10289776957462436    0.10844502314064099    0.11547770107078585    0.1185157824037299    
  0.11547770132217741    0.10844499893857425    0.10289771889161625    0.10536702546030538    0.12152471959424466    
  0.1558394143679445    0.20827377414184414    0.2670757026253065    0.3114091505642576    0.32723980216629023    
  0.20011256302193628    0.19102806774505823    0.16801254562284748    0.14130933194824166    0.12152471163130918    
  0.11448244492797253    0.1215247547088616    0.14130927393019171    0.16801256284580587    0.19102802563792526    
  0.20011268710908403    0.19102798318139277    0.16801252767505453    0.14130924152471155    0.12152471004578225    
  0.11448252391932348    0.12152468621717245    0.1413093411325963    0.16801257038788825    0.1910280978244867    
  0.20011256302193628    0.11851582235871869    0.11547764046542947    0.10844507428426807    0.10289769237957869    
  0.10536703423894106    0.12152470045861472    0.1558394034362361    0.2082737739805621    0.2670757149007289    
  0.3114091737881595    0.32723979594817465    0.3114091643547179    0.2670757656129026    0.20827375693977926    
  0.15583943056777314    0.12152472710053765    0.10536705367669287    0.10289770255485206    0.10844503464942251    
  0.1154776252746291    0.11851582235871869    0.07704032378315807    0.07699605438072388    0.07816811254756684    
  0.0846764711400563    0.10289767828528404    0.14130936604841263    0.2082737230776276    0.29853434934027656    
  0.3762324908841991    0.40610423351354713    0.4076118695827754    0.4061041671485574    0.376232472001898    
  0.29853440248535085    0.2082737420534285    0.14130940782053525    0.10289766907812203    0.08467642915171959    
  0.07816807885755699    0.07699605807083591    0.07704032378315807    0.05779656663808619    0.05914371415075964    
  0.06445405876711206    0.0781681199439528    0.10844506326228959    0.16801249780714209    0.26707578943065813    
  0.3762324163607049    0.40266830295178846    0.33310791451733673    0.2895620044621017    0.3331079206399611    
  0.40266831454536467    0.3762324281234064    0.26707585528940864    0.16801251635769418    0.10844507214294034    
  0.07816813094678857    0.06445401870569896    0.059143716769449094    0.05779656663808619    0.04970118390484704    
  0.051723918859249554    0.05914370820154313    0.07699604889494052    0.11547760583807475    0.1910281242303627    
  0.31140909143478335    0.4061042432999481    0.33310794417358564    0.17990339750471732    0.12224427508260155    
  0.1799034117604707    0.33310794122604004    0.40610418537156484    0.31140907468710827    0.1910281029704014    
  0.11547760448169861    0.07699607318345657    0.059143737140312826    0.05172388290786034    0.04970118390484704    
  0.047464103750847454    0.04970121459268285    0.05779653440697684    0.0770403180054019    0.11851592131055093    
  0.20011259856400646    0.32723978795262043    0.4076117750145188    0.289562065867855    0.12224422642346021    
  0.07085535150372242    0.12224421295609406    0.28956200203471144    0.40761178570645035    0.32723981007696806    
  0.20011261846887135    0.11851587845483753    0.07704030918906919    0.0577965771348597    0.049701197381223465    
  0.047464103750847454    0.049701167583668465    0.051723894350582895    0.05914370165248423    0.07699604131247162    
  0.11547763539397551    0.1910280738181225    0.31140914647787293    0.40610421267961355    0.3331079232448663    
  0.17990332559357938    0.12224425708539972    0.17990343751555957    0.33310785653105873    0.40610423968411463    
  0.3114091413544301    0.1910280015621179    0.11547760690855365    0.07699606034136598    0.05914371959667505    
  0.051723866857675674    0.049701167583668465    0.05779653908745564    0.05914376205113516    0.0644540426699931    
  0.07816809516964462    0.10844503354306612    0.1680125639307376    0.26707579844510876    0.3762324747264892    
  0.4026681941212862    0.3331079124290925    0.2895619631907352    0.33310798721792156    0.40266827553491963    
  0.37623254842723064    0.26707580802044334    0.16801254944105945    0.10844506229391307    0.07816810231430903    
  0.0644540309743358    0.0591437525990039    0.05779653908745564    0.0770403412835085    0.0769960260852294    
  0.0781681070860321    0.08467643819484934    0.10289771518798858    0.14130929950612625    0.20827383971438407    
  0.29853427802888116    0.3762325134122489    0.40610430829503485    0.4076118760257476    0.4061042475855495    
  0.37623256711624264    0.2985342655829423    0.20827382368842481    0.14130934379468513    0.1028977298053403    
  0.08467646988130673    0.07816809234175585    0.0769960464578102    0.0770403412835085    0.1185158826790441    
  0.11547769177156655    0.10844504761758947    0.10289769093183627    0.10536698710230372    0.12152474906062263    
  0.15583936954307143    0.20827382647042308    0.267075722247061    0.31140914338257886    0.3272396946020336    
  0.3114091615660948    0.26707575059792216    0.20827377928495408    0.15583942082296665    0.12152471534250596    
  0.10536700624163144    0.1028977201547754    0.10844506515112981    0.1154776463186417    0.1185158826790441    
  0.20011264626090147    0.19102798085746256    0.16801255711031654    0.14130929745761467    0.12152476099985615    
  0.11448245105363712    0.12152477010870943    0.14130925774745717    0.16801259515081945    0.19102798240486082    
  0.20011266474576145    0.19102794535703946    0.16801260833309486    0.14130918474098886    0.12152476551322654    
  0.11448241515746099    0.12152472864684011    0.1413093475346411    0.1680125616535364    0.19102804841082016    
  0.20011264626090147    0.3272396507337741    0.31140912962456047    0.2670757807567912    0.20827383661819016    
  0.15583933612483877    0.12152478890101934    0.10536698425990768    0.10289778846504283    0.10844495309709412    
  0.11547770738021501    0.11851573004666004    0.1154777416178449    0.10844493397658504    0.10289778469705253    
  0.10536697828153319    0.12152475020118444    0.1558393131509558    0.20827380115471156    0.2670757105287588    
  0.3114092372656534    0.3272396507337741    0.40761192686243586    0.406104169024945    0.3762326824878136    
  0.2985342180866817    0.208273837487815    0.141309269247029    0.10289779581678572    0.08467633965166892    
  0.07816823960467698    0.07699591782292321    0.07704046446824407    0.07699594294991347    0.07816820401137194    
  0.08467637302321748    0.1028978026103384    0.14130927653319003    0.20827383008269074    0.2985342547164063    
  0.3762325665430105    0.40610418564538675    0.40761192686243586    0.28956190667239246    0.33310809449671674    
  0.4026681828859232    0.3762326141710047    0.2670755846060684    0.16801264898614876    0.10844494751891882    
  0.07816821176504478    0.06445392978014594    0.05914383736613896    0.05779643221824787    0.05914385039690546    
  0.06445390491039223    0.07816819131653432    0.10844498091203811    0.16801264088279824    0.2670756697078155    
  0.3762326252032587    0.40266812727079226    0.33310804160113    0.28956190667239246    0.12224431066165001    
  0.1799033405258539    0.3331080134053598    0.4061041514231453    0.3114092293060922    0.1910279600082988    
  0.11547777787816398    0.07699589413360576    0.05914386103974655    0.051723737006806506    0.049701334316525736    
  0.0517237635211913    0.05914387437233864    0.0769959008149274    0.11547781491913346    0.19102789283858265    
  0.3114092112061642    0.4061040710215867    0.3331080915218137    0.1799032873661391    0.12224431066165001    
  0.07085525576220103    0.12224427982169879    0.2895619557533208    0.40761196706997693    0.3272396720382067    
  0.20011273634191845    0.11851577685499927    0.07704045115286103    0.05779643306886084    0.049701336004759546    
  0.047463977538864374    0.04970131259300135    0.05779640371142991    0.07704041368383323    0.11851574462741843    
  0.20011277812069472    0.3272396762031073    0.4076120190813985    0.28956198138992767    0.12224433209372161    
  0.07085525576220103    0.1222442975353888    0.17990324110768746    0.3331081106990824    0.4061039734198154    
  0.31140929675090556    0.19102786883233233    0.11547779427542662    0.07699591510010735    0.0591438401498835    
  0.051723768066190494    0.049701291657255765    0.05172376433453569    0.05914383039254701    0.07699586326198236    
  0.11547772048182486    0.19102791645682632    0.31140927962227527    0.4061040900312325    0.3331080610066259    
  0.17990331243994245    0.1222442975353888    0.17990333538826717    0.23746145467728522    0.3663659793558317    
  0.39925744115444894    0.2955912519299913    0.18224421236194477    0.11239918059856402    0.07680326152075957    
  0.060318714178644685    0.05355028145347152    0.05172376842467686    0.05355030120542243    0.06031866413636982    
  0.07680328211072522    0.11239916682306918    0.18224419415195825    0.29559125182281887    0.39925749022132534    
  0.3663659676993356    0.23746143129533778    0.17990333538826717    0.333108042059604    0.3663659847115233    
  0.40753062246275623    0.36072006846443433    0.2525161504660638    0.16025664566386127    0.10533484693769762    
  0.07752241934820413    0.06504948028916363    0.06031869692484793    0.059143794196162634    0.0603186824597344    
  0.06504951727895972    0.0775224339039632    0.10533485871667393    0.1602565916683237    0.25251618293301853    
  0.3607201029350051    0.4075304763821318    0.36636605138695383    0.333108042059604    0.406104166921294    
  0.3992573966494034    0.36072018859487626    0.2820851952359589    0.19700453872807233    0.13501785713683662    
  0.09966121648925319    0.08313045869538765    0.07752244484965433    0.07680329476073484    0.07699593341890668    
  0.07680329037062344    0.07752242106969501    0.08313044925801559    0.09966123941506552    0.13501785997235255    
  0.1970045291716235    0.28208525575177185    0.3607201264056273    0.39925734914953365    0.406104166921294    
  0.3114091828877159    0.2955913720238428    0.25251610112353196    0.19700453931683232    0.14816049245431445    
  0.116320506061487    0.10153463832243184    0.09966123507072608    0.10533484487994968    0.11239918446346489    
  0.1154777731611242    0.11239918993738127    0.10533483791473666    0.09966123723782423    0.10153463926114539    
  0.11632047944810818    0.14816050963346117    0.19700455075592538    0.2525160881818732    0.2955913466253242    
  0.3114091828877159    0.19102799265007742    0.18224408864618208    0.16025668844628202    0.13501777303108395    
  0.11632053486622063    0.10963741227056514    0.11632052995942366    0.13501784031732791    0.16025662515000902    
  0.1822441959046933    0.19102792466806853    0.1822441987981408    0.1602566121363951    0.1350177977557298    
  0.11632051228895923    0.10963746313965521    0.11632049487499989    0.13501783609488321    0.1602567143973859    
  0.18224414816014708    0.19102799265007742    0.11547760048695646    0.11239924595125757    0.10533476050253024    
  0.09966133353371397    0.1015345870572915    0.11632053898121789    0.1481605011695012    0.19700458764942175    
  0.25251610364012617    0.29559136515450357    0.31140920414554696    0.2955913492004014    0.25251612006754987    
  0.197004546750563    0.14816049382213498    0.11632052950538632    0.10153457627348363    0.09966129908972877    
  0.10533470413589277    0.11239930698825117    0.11547760048695646    0.07699603422710873    0.07680315840161388    
  0.0775225257362893    0.08313036090009443    0.09966131255501122    0.13501781602735927    0.19700458543343907    
  0.28208513956880105    0.36072020009202144    0.3992572974048501    0.40610419258437314    0.3992573901815524    
  0.36072014469464264    0.28208523841956135    0.19700463952481773    0.13501779788538465    0.09966131980335821    
  0.08313036750277657    0.0775225275148017    0.07680316886856402    0.07699603422710873    0.05914371005574584    
  0.060318821933637023    0.06504936769538339    0.077522540097182    0.10533471527999079    0.16025671385664034    
  0.25251606966616835    0.36072016919403704    0.40753055932822674    0.3663661150479299    0.33310792138371853    
  0.3663661132705526    0.40753053093038283    0.3607202085276577    0.25251605723992776    0.16025672167449145    
  0.10533474047312437    0.07752257026736327    0.06504935102356742    0.06031879925742688    0.05914371005574584    
  0.05172385270011169    0.05355020892892698    0.06031883767036    0.07680313735280764    0.11239931215500792    
  0.1822441174156772    0.2955914435706338    0.39925728408519645    0.36636612556675663    0.23746136189742786    
  0.17990342065410403    0.23746130329744497    0.36636607949203914    0.39925733525043333    0.2955913994662418    
  0.18224409342483336    0.11239929765232316    0.07680317244612449    0.06031879377416534    0.05355018134425384    
  0.05172385270011169    0.04970117798565406    0.05172386184949924    0.05914371803446159    0.07699602552653496    
  0.11547763343253788    0.1910280292118791    0.3114091315620756    0.4061041893799918    0.33310801212587826    
  0.1799033994506777    0.12224422495306812    0.17990340207046057    0.33310785301212176    0.40610413461842243    
  0.3114090976991663    0.19102806341828174    0.11547764877380448    0.0769960707384328    0.05914370582567563    
  0.05172386782270695    0.04970117798565406    0.05172385405365242    0.0535501872907083    0.06031879185112054    
  0.07680317368738937    0.11239926495026802    0.18224414423815244    0.29559143366921165    0.3992572012327663    
  0.3663661062251358    0.2374612988967237    0.17990333366717765    0.23746141830917364    0.3663660858154706    
  0.3992572060052997    0.29559141663627975    0.18224409274373798    0.11239923221377768    0.07680314610943849    
  0.06031880658376803    0.053550196737210676    0.05172385405365242    0.05914370559097028    0.06031877744805675    
  0.06504938945398842    0.07752251292795928    0.10533475441271858    0.1602567119650966    0.2525160796709838    
  0.36072016015884606    0.40753050944902647    0.36636601805187874    0.3331079701187718    0.36636602531667595    
  0.40753057355054795    0.36072018988231774    0.25251606480573574    0.16025672896354656    0.10533476517432323    
  0.0775225164685186    0.06504938997062118    0.06031880169602281    0.05914370559097028    0.07699598470985707    
  0.07680318309521586    0.0775225367614786    0.0831303743008133    0.09966130886364785    0.13501778317816607    
  0.19700462668342056    0.2820852056761344    0.3607200729306549    0.39925744176203026    0.4061041483558323    
  0.3992574383015681    0.36072010531380233    0.28208525676280033    0.19700459758015107    0.13501784772030473    
  0.09966128700051963    0.0831303937691591    0.0775224961236751    0.0768032128511336    0.07699598470985707    
  0.1154776512004486    0.1123992397407945    0.10533479131998674    0.09966124432289787    0.10153458599412381    
  0.11632050781734618    0.14816053163139106    0.19700446959674608    0.2525162279669367    0.2955912816824015    
  0.31140928976901217    0.2955911940235445    0.2525161633157741    0.19700448589732972    0.14816055861085595    
  0.11632047790489772    0.10153459472411783    0.0996612845532569    0.10533477052303124    0.11239923285977234    
  0.1154776512004486    0.19102800194936737    0.1822441508035569    0.16025665015735072    0.13501784719004112    
  0.11632047630867923    0.10963746395251704    0.11632051204621215    0.13501788349825758    0.16025657887261527    
  0.1822442930131408    0.19102792687258352    0.18224424456496457    0.1602566264320974    0.13501786400124524    
  0.1163204790112331    0.10963747048377086    0.1163204728765332    0.13501784587607857    0.1602566612772281    
  0.18224412141211987    0.19102800194936737    0.31140915633137783    0.2955913181004421    0.252516128360997    
  0.1970044958034428    0.14816053572480747    0.11632046915744976    0.10153468467162201    0.09966118709508863    
  0.10533482098510034    0.11239911013104938    0.11547775638184024    0.11239919603001962    0.10533483178309888    
  0.09966119362396253    0.10153467454932229    0.11632045498741456    0.14816053450374478    0.19700450187739305    
  0.25251617013243893    0.29559135526366714    0.31140915633137783    0.40610411957890213    0.3992573925441071    
  0.360720111846608    0.28208530634317897    0.19700446496994153    0.1350179589845389    0.09966121757239374    
  0.08313045986099803    0.07752240911296561    0.07680329956576476    0.07699587171368416    0.07680330871261586    
  0.07752239500098386    0.08313049527136518    0.09966120525918197    0.13501789494056934    0.1970044797004225    
  0.28208530727415676    0.3607200522816187    0.3992575037105296    0.40610411957890213    0.33310803820044904    
  0.366365962534122    0.40753070370802763    0.36072007352245583    0.2525161506408699    0.16025655113706208    
  0.10533488702542795    0.07752241603867441    0.06504949257995707    0.06031867973694905    0.05914382433882089    
  0.06031870450600586    0.0650495185825348    0.07752240065177766    0.10533489069135252    0.16025660900219507    
  0.2525161879886257    0.36072008181297405    0.40753063108360366    0.36636600663429125    0.33310803820044904    
  0.17990325285521305    0.23746146861247064    0.36636595869361765    0.39925738104137093    0.29559120355894475    
  0.18224426403655292    0.11239913113203139    0.07680331621657245    0.06031869244571527    0.053550299251858786    
  0.051723777916382795    0.05355031166413473    0.060318700228890895    0.07680330294432808    0.11239915121810495    
  0.182244280640158    0.29559123374177054    0.399257406459205    0.36636597412301153    0.2374614932843825    
  0.17990325285521305    0.1222442975353888    0.17990324110768746    0.3331081106990824    0.4061039734198154    
  0.31140929675090556    0.19102786883233233    0.11547779427542662    0.07699591510010735    0.0591438401498835    
  0.051723768066190494    0.049701291657255765    0.05172376433453569    0.05914383039254701    0.07699586326198236    
  0.11547772048182486    0.19102791645682632    0.31140927962227527    0.4061040900312325    0.3331080610066259    
  0.17990331243994245    0.1222442975353888    0.28956181123590224    0.3331080235849875    0.40266810568490063    
  0.3762326170869707    0.2670756544431717    0.1680126340664154    0.10844496505641495    0.0781682609015975    
  0.06445389893304163    0.0591438702828383    0.05779638120957209    0.059143865054201335    0.06445388370628415    
  0.07816819161130671    0.10844494908577405    0.16801272683894827    0.2670756286901483    0.37623273430310855    
  0.402668125470645    0.33310814472900035    0.28956181123590224    0.3331080321664731    0.3663660272561903    
  0.40753064336519346    0.3607200480907662    0.25251618774731094    0.16025653501833356    0.10533487136829588    
  0.07752239000700749    0.06504952677648321    0.06031865633726948    0.05914387287992294    0.060318706141575903    
  0.0650494919929383    0.07752240215961856    0.10533485789500383    0.1602565477972656    0.25251620784328793    
  0.36072003517819123    0.40753069902235767    0.36636598040346774    0.3331080321664731    0.4026682024748707    
  0.40753056141422495    0.3878585824380826    0.3111508597674704    0.21464137871913003    0.14114424676116114    
  0.09822010447907006    0.0769046357419652    0.06795585987923665    0.06504947355446337    0.06445389974064201    
  0.06504948113589312    0.06795589828810276    0.07690462749122971    0.0982200817465443    0.14114421292479584    
  0.2146414015244217    0.31115081403523404    0.38785849789988147    0.40753067897326173    0.4026682024748707    
  0.3762325797132705    0.36072017195750755    0.3111508580127408    0.23791466405503256    0.16835982344159545    
  0.11952722795490904    0.09211213226171566    0.0800288133902084    0.07690459598457566    0.07752245111172626    
  0.07816820336379379    0.07752246343583302    0.07690460876093831    0.08002879375528789    0.09211216197553233    
  0.11952723028271989    0.1683598356680654    0.23791473036946792    0.3111508338139161    0.36072015205795627    
  0.3762325797132705    0.2670757351976248    0.2525161323109499    0.2146414631771782    0.16835976826517654    
  0.1288665084345125    0.10351095759996481    0.09234539286180032    0.09211209164023676    0.09822013179014627    
  0.1053348364976323    0.10844498557244818    0.1053348001196318    0.09822010141264365    0.09211209159564913    
  0.09234540009711305    0.10351093033306363    0.12886649999372066    0.16835978530963344    0.21464146757259855    
  0.25251617032452356    0.2670757351976248    0.16801250986254443    0.16025667186064382    0.14114414944531073    
  0.11952727019225899    0.10351093886908141    0.0977441424034378    0.10351095457333279    0.1195272094680935    
  0.14114419459736444    0.1602566482223477    0.16801256301798276    0.16025661957264856    0.1411441450073085    
  0.11952720076388013    0.10351094071221394    0.09774420687180571    0.10351090025351195    0.1195272716925614    
  0.14114415015752646    0.16025670899321315    0.16801250986254443    0.1084450416503549    0.10533475019518997    
  0.09822019546988064    0.09211205754233034    0.09234542222994438    0.10351090937915088    0.12886652052084543    
  0.1683597916023279    0.21464143315807166    0.25251611410022673    0.2670757552353641    0.2525161565728107    
  0.21464145300721732    0.1683597963242389    0.12886653773628529    0.10351092149511026    0.09234540913846809    
  0.092112037739301    0.0982201781539625    0.10533473781190483    0.1084450416503549    0.07816812344404414    
  0.07752253360603435    0.07690454124258775    0.08002891002058932    0.09211202400988383    0.11952734809133471    
  0.16835974463406744    0.23791474359825654    0.3111507546456243    0.3607202012223404    0.37623252361727777    
  0.36072009804863947    0.3111507624063504    0.23791476382824384    0.16835977596133467    0.11952727678064806    
  0.09211205209383058    0.08002886982174165    0.07690452228846048    0.07752256383486984    0.07816812344404414    
  0.06445403272046336    0.0650493524485729    0.06795598289996937    0.0769045221188317    0.09822015988200025    
  0.1411441371624698    0.214641485869748    0.3111507363737823    0.3878585902342282    0.40753059058975133    
  0.402668290865383    0.40753058760798266    0.3878587706487259    0.3111507641400035    0.21464155392543163    
  0.14114416790402723    0.09822018320459293    0.07690454273081447    0.06795597350945069    0.06504938366607724    
  0.06445403272046336    0.05914367858216121    0.060318838144026776    0.0650493846555278    0.07752253278841022    
  0.10533472861622774    0.16025668656805803    0.2525160734642925    0.36072024850253315    0.40753051867026074    
  0.36636611218318577    0.3331080492275986    0.3663660740074242    0.40753052004699863    0.3607202409411027    
  0.25251606988515035    0.1602567294483836    0.10533473422254015    0.07752251458727602    0.06504939631465158    
  0.06031883743836023    0.05914367858216121    0.05779653773437624    0.0591437397899166    0.06445402300484111    
  0.0781680715006728    0.10844509466772553    0.1680125233274211    0.2670758094774032    0.37623247082110256    
  0.40266826406434125    0.33310798130926067    0.2895620161507261    0.33310798701342853    0.4026681941920412    
  0.3762324899256942    0.26707579411772886    0.16801251464655778    0.1084450981928263    0.07816811371493627    
  0.06445403466852116    0.059143728705204096    0.05779653773437624    0.059143717565977576    0.06031881981388404    
  0.06504938991762649    0.07752250452103643    0.10533475517580002    0.16025670642877862    0.2525161104807739    
  0.36072017065405243    0.40753050774393146    0.3663660038535257    0.33310797745129633    0.36636614832978515    
  0.4075305090019389    0.36072013121531665    0.2525161529581394    0.16025666781339187    0.10533474007156828    
  0.07752250528321772    0.06504938660533781    0.06031881452215416    0.059143717565977576    0.06445402849534479    
  0.06504940406060886    0.06795598377485179    0.07690452769761964    0.09822015746211722    0.14114419511140533    
  0.21464150213377245    0.3111507928183495    0.3878585641157115    0.40753048064409275    0.4026682610351834    
  0.40753053024397146    0.3878586785136223    0.31115078282368164    0.21464145921523034    0.1411441451092766    
  0.09822017344450616    0.07690453457723402    0.06795593944903514    0.0650494243953854    0.06445402849534479    
  0.07816810905075107    0.07752251852097866    0.07690452806667677    0.08002886618353124    0.09211206802584351    
  0.11952724910147901    0.16835979736362985    0.23791465435606884    0.31115081358925223    0.3607202079719637    
  0.3762325987051231    0.3607201319850104    0.311150863392138    0.23791475808605808    0.16835980473169995    
  0.11952727462375977    0.09211205888721206    0.08002888867416413    0.07690450455474364    0.0775225271397808    
  0.07816810905075107    0.10844503442073693    0.10533478505652    0.09822016857471821    0.09211201956066539    
  0.09234538191528494    0.10351097654098235    0.12886647887725036    0.16835981760048163    0.21464144834833315    
  0.2525161387917774    0.26707572623050124    0.2525161734451197    0.21464144663696932    0.16835976973162003    
  0.12886652139081856    0.1035109145489592    0.09234539630909903    0.09211205975744993    0.09822015331139562    
  0.10533478277714328    0.10844503442073693    0.16801256032453965    0.16025664961479444    0.14114416894870901    
  0.1195272737690084    0.10351098022057349    0.09774412155185012    0.10351101108984401    0.11952718200966238    
  0.14114422748912797    0.1602566538153688    0.1680126565367224    0.1602566083423739    0.14114417774563262    
  0.11952720012340609    0.10351097845629924    0.097744136353821    0.10351092289061654    0.11952725008055351    
  0.1411441943177849    0.1602566753196005    0.16801256032453965    0.26707563597333644    0.2525161554711756    
  0.21464140708240972    0.16835981159749136    0.12886647746944083    0.10351099178903153    0.0923453525103585    
  0.09211217037906137    0.09822004452632423    0.10533484635479526    0.10844494981252889    0.10533489479360766    
  0.09822005076165986    0.09211213368940069    0.09234536286564808    0.10351096850305705    0.12886645223842977    
  0.16835978911811686    0.2146413887471884    0.25251625853702175    0.26707563597333644    0.376232619418665    
  0.3607201618143436    0.3111508814920375    0.2379146717178717    0.16835983326007095    0.11952723999475011    
  0.09211213254918832    0.08002878339397963    0.07690463849412206    0.0775224094403641    0.07816824022591295    
  0.07752240761421943    0.07690462755256244    0.08002881414871002    0.09211217245587519    0.11952721237674653    