#     DFTpy    
  CRYSTAL 
    
  PRIMVEC    
  1.2108715075796428    -2.0972909725654643    0.0    
  1.2108715075796428    2.0972909725654643    0.0    
  0.0    0.0    2.2792516431724135    
  PRIMCOORD    
  1    1    
  Si    0.0    0.0    0.0    
  BEGIN_BLOCK_DATAGRID_3D    
  3d_datagrid_density    
  BEGIN_DATAGRID_3D#0    
  11    11    11    
  0.0    0.0    0.0    
  1.2108715075796428    -2.0972909725654643    0.0    
  1.2108715075796428    2.0972909725654643    0.0    
  0.0    0.0    2.2792516431724135    
  0.049444347116022865    0.09563111133713496    0.2676539441141394    0.44151995870732963    0.461484402441178    
  0.44412543082927286    0.4614843706428272    0.4415199877304813    0.2676539440530139    0.09563107860174483    
  0.049444347116022865    0.09563107940325737    0.09555603036486414    0.2103374993360039    0.39512216924987714    
  0.4629351977118787    0.4399766905072423    0.4400309445846471    0.46290240409115796    0.3950198201555756    
  0.21038166593497062    0.09563107940325737    0.2676539397049128    0.21033750367383014    0.2678585153384391    
  0.39501150508752125    0.458496666854641    0.4345703657645597    0.4140842441439186    0.434541968259926    
  0.45865094925334055    0.3950198562829639    0.2676539397049128    0.44151989899034655    0.3951222024436927    
  0.395011598771388    0.44139380659803484    0.46287660908503814    0.4347127088243894    0.40361595706466524    
  0.40367554947569345    0.4345419769549551    0.46290253141161336    0.44151989899034655    0.46148441885792113    
  0.4629351926588132    0.4584966166972458    0.46287646799846854    0.46166429488097294    0.4400102517375651    
  0.41395784712447337    0.4036159092907365    0.4140843281445133    0.4400309739070638    0.46148441885792113    
  0.4441254220831275    0.439976674421259    0.43457034121917415    0.43471279648201766    0.4400103103868305    
  0.44393998866002266    0.44001023291881003    0.4347128093290819    0.43457033253460353    0.4399766100761    
  0.4441254220831275    0.46148446390235076    0.44003098640115657    0.41408420408594343    0.4036160029400822    
  0.41395786630938847    0.4400102202508601    0.4616642812262763    0.4628764590835207    0.4584965607495929    
  0.46293520732791704    0.46148446390235076    0.44151991552782877    0.46290250963442536    0.43454202894986393    
  0.4036755385110611    0.40361603239143395    0.43471274477710725    0.4628764936316157    0.44139382204524275    
  0.39501160834830734    0.395122095127671    0.44151991552782877    0.2676539479401449    0.3950198546244793    
  0.4586510278066337    0.43454190516672875    0.4140842937276804    0.4345702871952824    0.458496623542945    
  0.3950116267374874    0.2678585269782175    0.2103374932621283    0.2676539479401449    0.09563107809779396    
  0.21038172888234954    0.3950198829989496    0.4629024751710457    0.440031032983298    0.43997674446732243    
  0.4629351699912739    0.3951221435210662    0.21033747463477193    0.09555602611219793    0.09563107809779396    
  0.049444347116022865    0.09563111133713496    0.2676539441141394    0.44151995870732963    0.461484402441178    
  0.44412543082927286    0.4614843706428272    0.4415199877304813    0.2676539440530139    0.09563107860174483    
  0.049444347116022865    0.09237690904982514    0.14730317980814822    0.31125448946795437    0.43942518721666607    
  0.4353179879881631    0.4145404645605592    0.43531789707221075    0.4394252162748709    0.31125452818037785    
  0.14730311333551668    0.09237690904982514    0.1473031391053142    0.14718839344356727    0.2611863217377819    
  0.409625701679816    0.4427974381512268    0.4114124862862973    0.41146597168598026    0.44275616335994394    
  0.4095649441422417    0.26119770728360975    0.1473031391053142    0.31125457883515617    0.26118631422458705    
  0.3114640063561218    0.4095359131047625    0.44191128234801663    0.4075339925551939    0.3859250511715215    
  0.4075181364169562    0.44201802108891175    0.40956496095750555    0.31125457883515617    0.43942521403663987    
  0.40962576010300483    0.40953592900755603    0.4393001045151334    0.442750148343102    0.40764058873096753    
  0.37588967503751314    0.3759289176559697    0.40751819512856746    0.44275623985887047    0.43942521403663987    
  0.4353179428813712    0.4427974840926823    0.4419111763471115    0.4427500343578168    0.4354778959970163    
  0.41144161749598485    0.3858323264745157    0.37588961052651754    0.38592513175319654    0.41146597799537926    
  0.4353179428813712    0.4145404832525731    0.41141247238147055    0.40753399099247994    0.4076406106825597    
  0.411441669636927    0.4143804393874094    0.4114416167587256    0.4076407090584087    0.40753402829688856    
  0.4114123902027447    0.4145404832525731    0.4353180185052315    0.41146598299177395    0.3859250307620852    
  0.37588973971115    0.3858323378217299    0.41144160077761144    0.4354778925967917    0.44275000410296234    
  0.4419111501738627    0.44279737716850265    0.4353180185052315    0.4394252206506402    0.4427563119219382    
  0.4075181591930289    0.3759288574793328    0.3758897514619611    0.4076406049721867    0.4427500460680835    
  0.43930011343029524    0.40953595619039457    0.40962570153837397    0.4394252206506402    0.3112545277956543    
  0.40956496828862077    0.44201799511016987    0.40751809460129396    0.38592508317945684    0.40753397993979923    
  0.44191121031328556    0.4095359673888916    0.3114640177102465    0.26118634612072794    0.3112545277956543    
  0.14730312976873683    0.2611977673825329    0.40956489632614507    0.44275618116770105    0.41146605336348624    
  0.4114124865423272    0.4427974367814218    0.40962574544029473    0.26118628576585756    0.14718841496460627    
  0.14730312976873683    0.09237690904982514    0.14730317980814822    0.31125448946795437    0.43942518721666607    
  0.4353179879881631    0.4145404645605592    0.43531789707221075    0.4394252162748709    0.31125452818037785    
  0.14730311333551668    0.09237690904982514    0.2654049904526364    0.3142890607282022    0.40367873581095803    
  0.4183321579887304    0.37017335020181935    0.344387166082452    0.37017326640791226    0.418332199644755    
  0.40367885066931447    0.31428893537302394    0.2654049904526364    0.3142890309798426    0.3141808431061048    
  0.38303001050237023    0.42371052303925294    0.3876266043798667    0.34307429631860814    0.3431016816482473    
  0.38760127747008694    0.42369918031616915    0.38301379987049566    0.3142890309798426    0.40367887761726506    
  0.3830300717643938    0.40380118184352315    0.42367496736436805    0.3928328552224085    0.341700083678351    
  0.3194613240661994    0.3416964174220229    0.39286692365314174    0.4236991684512653    0.40367887761726506    
  0.4183321658433984    0.4237105243906392    0.42367502191267925    0.4182647801057074    0.3876082691899405    
  0.3417359394770987    0.3106832244798672    0.31069490344182266    0.34169651782591776    0.387601308183852    
  0.4183321658433984    0.3701733103535008    0.3876266530647181    0.3928327873924252    0.38760811985900784    
  0.3702460366638553    0.34308678593446856    0.3194313079079184    0.3106831943770095    0.31946138671366636    
  0.3431016624214942    0.3701733103535008    0.3443872433497333    0.3430743083382024    0.3417000745328642    
  0.34173601509842544    0.3430868251230175    0.344317800116014    0.3430867751338565    0.34173601806204    
  0.34170007425569493    0.3430742295735476    0.3443872433497333    0.3701733754882473    0.3431016679011939    
  0.3194612443021026    0.3106832761185251    0.31943128750732386    0.3430868050707986    0.37024600307997735    
  0.38760812252972204    0.39283279544687427    0.38762655354900655    0.3701733754882473    0.41833220017825695    
  0.3876012930169678    0.3416964513678998    0.3106948299809394    0.3106833099801977    0.3417360070621261    
  0.38760815353142863    0.4182648055709118    0.4236750348597007    0.42371052791226205    0.41833220017825695    
  0.403678821019433    0.42369919038344434    0.39286692529878214    0.3416964092221345    0.31946131655991816    
  0.3417000407390078    0.3928327907154223    0.4236750823372952    0.403801212402253    0.3830300086497391    
  0.403678821019433    0.31428902697966554    0.38301392063717915    0.42369912142277455    0.38760128055837534    
  0.3431017155759899    0.34307429921193616    0.3876265789292563    0.423710547598022    0.3830299899300349    
  0.31418083846972056    0.31428902697966554    0.2654049904526364    0.3142890607282022    0.40367873581095803    
  0.4183321579887304    0.37017335020181935    0.344387166082452    0.37017326640791226    0.418332199644755    
  0.40367885066931447    0.31428893537302394    0.2654049904526364    0.4967718403962729    0.49226774051062777    
  0.45276890173281753    0.3709751373483951    0.29763890473674537    0.27061878775144954    0.29763883202752167    
  0.37097517946113934    0.4527689963486466    0.4922675634310226    0.4967718403962729    0.4922676647109414    
  0.49224418825910365    0.4684756169835163    0.40124323648456095    0.31986281209297174    0.2704272763041375    
  0.2704316396276633    0.3198594494874648    0.40124132728137524    0.4684703912869548    0.4922676647109414    
  0.45276901578813256    0.4684756481966407    0.4527907439332626    0.40123631724298    0.32828490676776995    
  0.27035442772669666    0.24952782410388816    0.2703530541505048    0.32828892730814985    0.4012413429614701    
  0.45276901578813256    0.3709751309557501    0.4012432439614531    0.4012363340203269    0.37096665811727025    
  0.31986036881097835    0.270358205888008    0.24202178374893796    0.24202420496941351    0.2703531698110595    
  0.3198594751235062    0.3709751309557501    0.29763889667476673    0.3198628728480887    0.3282848670522127    
  0.31986031862403624    0.29764848077324213    0.27043021263872635    0.2495236928578693    0.24202174704188764    
  0.24952785076800296    0.27043158949730123    0.29763889667476673    0.270618859189578    0.27042731439841355    
  0.2703544317758939    0.2703582658794693    0.270430250530178    0.2706073628041029    0.27043020376242866    
  0.27035827829662984    0.27035443289102595    0.27042723985325634    0.270618859189578    0.29763892663260655    
  0.2704316040572632    0.24952777303532941    0.24202179803593965    0.2495236712150162    0.2704302183291546    
  0.2976484468159396    0.3198602514424992    0.32828487286475466    0.31986273152594347    0.29763892663260655    
  0.37097515294731326    0.31985948050856    0.2703530938250118    0.24202418047273938    0.2420218579934996    
  0.27035823290011907    0.31986030490665    0.37096668804006006    0.4012363540848269    0.4012431741187126    
  0.37097515294731326    0.45276894637058607    0.4012413601353232    0.3282889388672853    0.2703530444427185    
  0.24952779689999222    0.27035443740591525    0.3282848794457622    0.4012364001627873    0.45279077481085084    
  0.46847565074829145    0.45276894637058607    0.4922676509810159    0.46847050099552634    0.40124130508059547    
  0.3198594393333867    0.2704316363394505    0.27042730032124995    0.3198627731362529    0.4012432217197638    
  0.46847562693258943    0.4922441590939371    0.4922676509810159    0.4967718403962729    0.49226774051062777    
  0.45276890173281753    0.3709751373483951    0.29763890473674537    0.27061878775144954    0.29763883202752167    
  0.37097517946113934    0.4527689963486466    0.4922675634310226    0.4967718403962729    0.5899847211557357    
  0.5459872130877184    0.43894813150441453    0.32369055972285204    0.24579153929527617    0.21993161084532123    
  0.24579145672530645    0.3236905013395928    0.4389481819571025    0.5459871316899991    0.5899847211557357    
  0.5459871865905581    0.5459748153044393    0.4707950570081438    0.36140046643037377    0.2686216635994223    
  0.22035217777801372    0.22035195196941026    0.2686210918941198    0.36140225027736955    0.4707890234665451    
  0.5459871865905581    0.43894818840635885    0.47079504441375414    0.4389549602774215    0.3613995399259011    
  0.2778524826755469    0.22087853606739435    0.2017096412683526    0.22087959112634942    0.2778505914581945    
  0.3614022659881025    0.43894818840635885    0.32369048972882863    0.36140049295389426    0.36139953295930044    
  0.32368840634947    0.2686194063518695    0.22088235571529355    0.19493595983587472    0.19493775226739105    
  0.22087963386093057    0.2686211301340253    0.32369048972882863    0.24579147993261802    0.2686216970468771    
  0.277852411633097    0.26861934564398393    0.2457972917173901    0.22035023933055892    0.201709351610364    
  0.19493594278497986    0.20170967446882382    0.2203519648436691    0.24579147993261802    0.21993163090438703    
  0.22035217475913255    0.2208785188438823    0.22088237918190168    0.22035029210136264    0.21993014194795046    
  0.22035025162743566    0.2208824483207162    0.22087858160736593    0.22035211859062492    0.21993163090438703    
  0.2457915392966473    0.22035197672714724    0.20170960752365927    0.19493600334729777    0.2017093894615601    
  0.22035023124866548    0.24579728116211347    0.2686193325044671    0.2778523676507299    0.2686216050798447    
  0.2457915392966473    0.3236905426943195    0.2686211958803606    0.2208795853147906    0.1949377109724853    
  0.1949360048515056    0.22088237517328643    0.2686193359333603    0.32368840872478366    0.3613996012376373    
  0.36140043995970583    0.3236905426943195    0.4389481737065077    0.3614022856528052    0.2778505582564926    
  0.2208795452189702    0.2017096711119675    0.22087852599488392    0.2778524115598399    0.3613995955993635    
  0.4389550018053647    0.4707950747201621    0.4389481737065077    0.545987173799533    0.4707891535572567    
  0.36140222233864955    0.2686211187817871    0.22035202447069713    0.22035218183333505    0.2686216400424856    
  0.3614004850378138    0.47079500313483336    0.5459748903954496    0.545987173799533    0.5899847211557357    
  0.5459872130877184    0.43894813150441453    0.32369055972285204    0.24579153929527617    0.21993161084532123    
  0.24579145672530645    0.3236905013395928    0.4389481819571025    0.5459871316899991    0.5899847211557357    
  0.5949736434668136    0.5425776020665958    0.42363880019647593    0.30465128149755616    0.22755524654878967    
  0.20245735243751806    0.22755522450915225    0.3046513047904082    0.4236387900084926    0.5425775286099465    
  0.5949736434668136    0.5425775450514644    0.5425617333355475    0.4580171613347512    0.3430256085224924    
  0.25019562774304854    0.20313354148705481    0.20313237353409966    0.250196088093849    0.3430278377511616    
  0.45801044422308557    0.5425775450514644    0.4236387519525792    0.4580171474694272    0.4236481967773081    
  0.34302398215322577    0.2595439778662167    0.20391889463338408    0.18541261917535662    0.20392033086377398    
  0.25953996111984257    0.3430278762218608    0.4236387519525792    0.30465119876271723    0.3430256293766502    
  0.3430240436932184    0.3046468893878892    0.25019467218080127    0.20392142756303086    0.17888165799327688    
  0.17888287163679908    0.20392034879750534    0.25019617928065924    0.30465119876271723    0.22755525082277775    
  0.25019564302472397    0.2595439322087678    0.250194571888184    0.22756261596721974    0.20313125638328094    
  0.18541339585892214    0.17888163063670623    0.18541266344928475    0.20313240840137925    0.22755525082277775    
  0.20245734596672255    0.20313355565679353    0.20391888100834374    0.20392147143831554    0.20313130188439982    
  0.20245399612112053    0.2031312501205504    0.20392147116067538    0.2039188946489668    0.20313348152490637    
  0.20245734596672255    0.22755528684083512    0.20313240970547297    0.18541257871899888    0.1788816933930057    
  0.1854134123084848    0.2031312530117952    0.2275626091099908    0.2501945663945897    0.25954391932872617    
  0.25019563599698674    0.22755528684083512    0.3046512413329546    0.2501961641439863    0.20392034556667316    
  0.17888285117347816    0.17888169895735892    0.20392142626178558    0.25019458630092684    0.3046468939350849    
  0.3430240757876864    0.34302551392119074    0.3046512413329546    0.4236387675711349    0.343027861877879    
  0.25953999282888224    0.20392028320253258    0.18541264007164476    0.20391885065451984    0.2595439451307362    
  0.3430240753050814    0.4236481981274104    0.4580171431412193    0.4236387675711349    0.5425775547919915    
  0.45801053892308974    0.34302788287165137    0.25019613237222305    0.2031324436773602    0.20313357502281776    
  0.25019561755019626    0.3430255807099727    0.45801715374773466    0.5425617485978077    0.5425775547919915    
  0.5949736434668136    0.5425776020665958    0.42363880019647593    0.30465128149755616    0.22755524654878967    
  0.20245735243751806    0.22755522450915225    0.3046513047904082    0.4236387900084926    0.5425775286099465    
  0.5949736434668136    0.5899847230279137    0.5459872272624788    0.43894811852869575    0.323690511026828    
  0.24579151915021943    0.21993162069958072    0.24579146389219672    0.32369051961107936    0.4389481755631183    
  0.5459871177651491    0.5899847230279137    0.5459871690435136    0.5459748439108597    0.47079502512134186    
  0.3614004539519194    0.2686216538858476    0.22035219104451484    0.22035197019976335    0.2686210724758423    
  0.36140224941590127    0.47078905335425053    0.5459871690435136    0.438948197947252    0.4707950272699867    
  0.4389550068032447    0.3613995330280827    0.2778524612905482    0.22087853839829175    0.20170962470928433    
  0.22087957962063742    0.27785058629581405    0.36140225347728566    0.438948197947252    0.32369048887347757    
  0.3614005038759142    0.3613995293078195    0.3236884112116317    0.2686194308811181    0.22088236921043453    
  0.19493596281880024    0.19493774349104132    0.22087962247392562    0.26862114732412373    0.32369048887347757    
  0.24579148052409266    0.26862169423296317    0.27785238536391005    0.2686193742019653    0.2457972734641262    
  0.22035024625932    0.20170937619351015    0.19493593224131076    0.2017096783239577    0.22035197274020124    
  0.24579148052409266    0.21993162477990397    0.22035217951947791    0.22087853998361257    0.2208823784525369    
  0.22035028188888867    0.21993014083924278    0.22035023305592416    0.2208824519440212    0.2208785703333026    
  0.2203521073116208    0.21993162477990397    0.2457915333816955    0.22035199038891218    0.2017096238092228    
  0.19493601716451012    0.2017093848252309    0.22035023099278986    0.24579729318972646    0.2686193238255183    
  0.277852369665928    0.2686216044586689    0.2457915333816955    0.3236905218727543    0.2686211974377708    
  0.22087958246415465    0.19493770695627735    0.19493602313921574    0.22088237191109655    0.2686193590841777    
  0.3236884001798263    0.3613995880780541    0.3614004402336528    0.3236905218727543    0.4389481652887605    
  0.36140226489318866    0.27785056706674727    0.22087954317553565    0.20170966011613542    0.22087854375082405    
  0.2778524241603578    0.36139957751930196    0.43895502577200635    0.47079505274197353    0.4389481652887605    
  0.5459871621998081    0.47078915563470025    0.3614022071188418    0.2686211128617235    0.2203520417434167    
  0.22035218937843454    0.26862164405856687    0.3614004873212756    0.47079499608180814    0.5459748612914772    
  0.5459871621998081    0.5899847230279137    0.5459872272624788    0.43894811852869575    0.323690511026828    
  0.24579151915021943    0.21993162069958072    0.24579146389219672    0.32369051961107936    0.4389481755631183    
  0.5459871177651491    0.5899847230279137    0.49677181061312664    0.49226770498273187    0.4527688727289529    
  0.37097514386838754    0.2976389341366873    0.2706188075744376    0.2976388547868204    0.37097517563978333    
  0.45276897119888954    0.49226754350335566    0.49677181061312664    0.4922676717850845    0.4922442157742427    
  0.46847558064551387    0.4012432151223005    0.31986280216664387    0.2704272831394641    0.27043162344959637    
  0.31985946062375015    0.4012413684729364    0.4684703646673451    0.4922676717850845    0.4527689970533153    
  0.4684756530358179    0.4527907991271033    0.40123631806003335    0.32828492146738236    0.27035444074457643    
  0.24952782559239226    0.2703530688446059    0.32828891074001776    0.4012413607101061    0.4527689970533153    
  0.37097513337188465    0.4012432179728813    0.40123636764801107    0.3709666839170226    0.31986037618296437    
  0.27035820040943714    0.24202177498791924    0.2420242259360267    0.2703531520909996    0.3198594827642232    
  0.37097513337188465    0.29763889196713583    0.31986286016088067    0.3282848744416044    0.3198602707856488    
  0.2976484998935437    0.27043021833753345    0.24952369678997735    0.242021753238307    0.2495278657569269    
  0.27043160119625403    0.29763889196713583    0.2706188645790943    0.2704273170686552    0.2703544546396759    
  0.27035826432091997    0.27043025325573006    0.27060735880605624    0.2704302103674122    0.27035824896430405    
  0.27035443459175873    0.2704272283935595    0.2706188645790943    0.29763893894246124    0.27043162158991657    
  0.24952777058128678    0.24202182850621187    0.24952367411715573    0.27043023822066053    0.29764846655426674    
  0.31986024472630126    0.32828486504656706    0.3198627517423609    0.29763893894246124    0.3709751775090141    
  0.31985947684770066    0.2703531126718848    0.24202418089354627    0.24202185536622206    0.2703582460842104    
  0.3198602773662802    0.3709666900633027    0.40123636801483625    0.40124320115479517    0.3709751775090141    
  0.4527689534942969    0.40124137360615486    0.32828891577496927    0.27035307820373555    0.24952781745837366    
  0.2703544218516346    0.3282848698912061    0.401236418110275    0.4527908090737933    0.4684756020564801    
  0.4527689534942969    0.4922676843350212    0.46847050467617896    0.4012413182706766    0.31985945958360923    
  0.27043166248863926    0.27042730577495444    0.31986278977733773    0.40124324377249593    0.4684755668948866    
  0.49224419129868074    0.4922676843350212    0.49677181061312664    0.49226770498273187    0.4527688727289529    
  0.37097514386838754    0.2976389341366873    0.2706188075744376    0.2976388547868204    0.37097517563978333    
  0.45276897119888954    0.49226754350335566    0.49677181061312664    0.2654049939288264    0.3142890726166942    
  0.40367875796612157    0.4183321657824019    0.3701733239586325    0.3443871485799848    0.370173241240572    
  0.4183321993952434    0.4036788456250407    0.3142889271879111    0.2654049939288264    0.3142890153942218    
  0.31418083156438203    0.383030023635091    0.4237105450853634    0.38762661903382306    0.34307428306667404    
  0.34310169477584773    0.3876012603439188    0.4236991273552186    0.3830137971143819    0.3142890153942218    
  0.4036788611734087    0.3830300701893392    0.40380112382532213    0.42367499191784136    0.39283282644055334    
  0.3417000667530282    0.3194613205390189    0.3416963914200376    0.39286693517913124    0.4236991490492085    
  0.4036788611734087    0.4183321534951426    0.42371053934346636    0.4236750048397741    0.4182647715138156    
  0.3876082356109415    0.34173595042079036    0.31068322505067736    0.3106948782774252    0.34169652358717706    
  0.3876012977104875    0.4183321534951426    0.3701733127376029    0.3876266791774885    0.3928327984499179    
  0.3876081963188565    0.3702460153528221    0.34308677553547484    0.31943129892376243    0.3106831773250145    
  0.31946133897446516    0.34310163554652745    0.3701733127376029    0.34438724787309133    0.3430743083829885    
  0.3417000979661647    0.3417360268557031    0.343086823317928    0.3443177996819916    0.34308677415583033    
  0.34173603992597246    0.34170006255332436    0.3430742478782129    0.34438724787309133    0.37017336800044226    
  0.3431016568956066    0.3194612753943156    0.3106832607353287    0.3194312740545243    0.34308678929409914    
  0.3702459784169858    0.38760811635159137    0.392832778569951    0.38762652782553675    0.37017336800044226    
  0.41833219890305423    0.38760130159413253    0.341696464346063    0.31069485596192814    0.31068332643783964    
  0.3417359962969829    0.38760818574639955    0.41826481375075464    0.42367501681674985    0.42371049404706906    
  0.41833219890305423    0.4036788090440921    0.4236991687897945    0.3928669728884472    0.34169640303547716    
  0.31946129619740843    0.3417000684961988    0.3928328198972534    0.4236750660058761    0.40380116404374533    
  0.38303005858186473    0.4036788090440921    0.31428899247467185    0.38301393241149495    0.42369912098176854    
  0.38760126380861976    0.3431016939028529    0.3430743113840635    0.38762657953258967    0.42371052460946024    
  0.3830300292531158    0.31418080969941803    0.31428899247467185    0.2654049939288264    0.3142890726166942    
  0.40367875796612157    0.4183321657824019    0.3701733239586325    0.3443871485799848    0.370173241240572    
  0.4183321993952434    0.4036788456250407    0.3142889271879111    0.2654049939288264    0.09237690528857263    
  0.14730315714170586    0.3112545038065322    0.43942525912127933    0.43531801623268124    0.4145404631413725    
  0.4353178928307574    0.43942519052859674    0.3112545259213404    0.14730311822207892    0.09237690528857263    
  0.14730315366858587    0.14718839083921847    0.26118632637032946    0.4096257285324624    0.4427974591364918    
  0.41141247584122165    0.41146593627225553    0.4427561625750071    0.40956493289718693    0.2611976852519779    
  0.14730315366858587    0.31125456008410457    0.26118633732402846    0.3114639680003377    0.40953590851939875    
  0.44191130714810517    0.4075339966278846    0.3859250688903543    0.4075181513263449    0.44201801892743364    
  0.4095649758709339    0.31125456008410457    0.43942518998935814    0.40962575405020824    0.4095359246157282    
  0.4393000960535945    0.44275011493089933    0.40764057713491014    0.37588966279901365    0.37592893397992033    
  0.4075182014643721    0.4427562287623023    0.43942518998935814    0.4353179312525213    0.44279749162176096    
  0.4419112201421198    0.4427500109758746    0.43547791198301317    0.41144161024554543    0.3858322937750986    
  0.3758896120499267    0.38592511630442955    0.41146595327281316    0.4353179312525213    0.4145404806711518    
  0.41141246018244637    0.4075339658826561    0.40764061239332616    0.41144168322620017    0.4143804325408537    
  0.4114416380210885    0.4076407091878362    0.4075340505321432    0.41141242004191375    0.4145404806711518    
  0.4353180182568613    0.41146597394698703    0.38592504391681054    0.37588973411773513    0.3858323370598941    
  0.41144159912889533    0.4354779114821933    0.4427500216669172    0.4419111536874666    0.4427973771145052    
  0.4353180182568613    0.4394252725466293    0.44275629795062854    0.4075181890849064    0.37592888811498126    
  0.3758897360754691    0.4076406062319017    0.4427500226687441    0.4393001168733731    0.4095359708754648    
  0.40962569311672714    0.4394252725466293    0.311254550467232    0.409564998143901    0.4420179924185377    
  0.4075181045100212    0.38592512872446355    0.4075339693890027    0.44191122985177367    0.40953598894518306    
  0.31146399748316356    0.2611863579305673    0.311254550467232    0.14730313080822852    0.2611977754690016    
  0.4095649161364521    0.4427562346355984    0.4114660448781743    0.41141247976513184    0.4427974458000876    
  0.4096257325448576    0.26118629214544586    0.14718842339113505    0.14730313080822852    0.09237690528857263    
  0.14730315714170586    0.3112545038065322    0.43942525912127933    0.43531801623268124    0.4145404631413725    
  0.4353178928307574    0.43942519052859674    0.3112545259213404    0.14730311822207892    0.09237690528857263    
  0.049444347116022865    0.09563111133713496    0.2676539441141394    0.44151995870732963    0.461484402441178    
  0.44412543082927286    0.4614843706428272    0.4415199877304813    0.2676539440530139    0.09563107860174483    
  0.049444347116022865    0.09563107940325737    0.09555603036486414    0.2103374993360039    0.39512216924987714    
  0.4629351977118787    0.4399766905072423    0.4400309445846471    0.46290240409115796    0.3950198201555756    
  0.21038166593497062    0.09563107940325737    0.2676539397049128    0.21033750367383014    0.2678585153384391    
  0.39501150508752125    0.458496666854641    0.4345703657645597    0.4140842441439186    0.434541968259926    
  0.45865094925334055    0.3950198562829639    0.2676539397049128    0.44151989899034655    0.3951222024436927    
  0.395011598771388    0.44139380659803484    0.46287660908503814    0.4347127088243894    0.40361595706466524    
  0.40367554947569345    0.4345419769549551    0.46290253141161336    0.44151989899034655    0.46148441885792113    
  0.4629351926588132    0.4584966166972458    0.46287646799846854    0.46166429488097294    0.4400102517375651    
  0.41395784712447337    0.4036159092907365    0.4140843281445133    0.4400309739070638    0.46148441885792113    
  0.4441254220831275    0.439976674421259    0.43457034121917415    0.43471279648201766    0.4400103103868305    
  0.44393998866002266    0.44001023291881003    0.4347128093290819    0.43457033253460353    0.4399766100761    