#     DFTpy    
  CRYSTAL 
    
  PRIMVEC    
  3.4392452110142537    1.4388527485628277e-05    -3.6074689655172417e-13    
  -1.7196101446760768    2.9784810029758306    -7.058189655172415e-12    
  -5.932041379310346e-13    -1.3743345517241378e-11    5.654653510523868    
  PRIMCOORD    
  4    1    
  Si    8.561603562427137e-06    1.9856586574824926    3.1800291529610347    
  Si    1.7196265047305843    0.9928367339964607    0.35270235594381955    
  Si    8.56160485452973e-06    1.9856586574816733    5.301951112821999    
  Si    1.7196265047361654    0.9928367340185196    2.474624399306047    
  BEGIN_BLOCK_DATAGRID_3D    
  3d_datagrid_density    
  BEGIN_DATAGRID_3D#0    
  15    15    25    
  0.0    0.0    0.0    
  3.4392452110142537    1.4388527485628277e-05    -3.6074689655172417e-13    
  -1.7196101446760768    2.9784810029758306    -7.058189655172415e-12    
  -5.932041379310346e-13    -1.3743345517241378e-11    5.654653510523868    
  0.09229664144898621    0.10276252729950913    0.13830154882991824    0.21070732843908727    0.3320766421742603    
  0.49337253553069876    0.6431993736659123    0.7056717402158655    0.6431994523111108    0.4933725312589074    
  0.33207667392349643    0.21070732934065056    0.13830152190224873    0.10276251850627348    0.09229664144898621    
  0.10276254877024864    0.10276609754158128    0.12571620992119423    0.17953888529799605    0.27646769403337446    
  0.41695364404662355    0.5639830471021796    0.6552496249940557    0.6553737212934821    0.5638232876218002    
  0.41684655637948564    0.27657765418881064    0.179537144018276    0.12571562762712132    0.10276254877024864    
  0.138301536276552    0.12571620335523    0.13829806099396552    0.17952727307765    0.25783498480723743    
  0.37152395916592323    0.4788205162835824    0.5241804425277368    0.5268802765611643    0.5242523411826067    
  0.4790412031580842    0.37151117993729416    0.2577390642534361    0.17953718793568496    0.138301536276552    
  0.2107073375071658    0.17953885634780595    0.1795272452665771    0.2107215309677142    0.27647375890155845    
  0.3715326169584751    0.44139517301166953    0.4096222449680532    0.33624623768242823    0.3362191631034831    
  0.40945203292449667    0.4414205392346118    0.3715111207426875    0.27657770186101793    0.2107073375071658    
  0.33207671248094894    0.2764677315701557    0.2578349494008212    0.27647377433511316    0.3321747055836292    
  0.41682657947769836    0.4789323409843187    0.409588801052556    0.25698614227728894    0.19151444159151584    
  0.25710276025029594    0.40945200778477686    0.4790411699203081    0.41684657926936636    0.33207671248094894    
  0.4933725689710849    0.41695361250443813    0.3715239571879029    0.3715326378337868    0.4168266233097803    
  0.4934292246431388    0.5639320025742753    0.5241813006277372    0.33625447907898753    0.19155896739593806    
  0.19151436832235286    0.3362191630213322    0.5242522924335584    0.5638232484066273    0.4933725689710849    
  0.6431994919214459    0.563983025985043    0.4788205552146764    0.4413952433793699    0.4789323395623345    
  0.5639319965512396    0.6431415350203586    0.65545573580311    0.526867928755296    0.33625446945014636    
  0.2569860938446536    0.33624627431681153    0.526880285327615    0.6553737702342834    0.6431994919214459    
  0.7056716257720437    0.6552497243887303    0.5241804113133735    0.4096223369562697    0.40958883244569094    
  0.5241812219207597    0.6554558247265454    0.7054411325310397    0.6554557981908273    0.5241812631329038    
  0.4095888475062621    0.4096223012478749    0.524180272439757    0.6552495690451984    0.7056716257720437    
  0.643199576682    0.6553738222541524    0.5268802972194291    0.336246228345438    0.25698611731432774    
  0.33625450483770297    0.5268678994998707    0.6554557707304861    0.6431416155231158    0.5639320084799716    
  0.47893240158523376    0.44139512838444017    0.4788205504977265    0.5639831457213003    0.643199576682    
  0.4933724817021663    0.5638232442453724    0.5242521915221416    0.3362191986341758    0.19151443954371347    
  0.1915589715100608    0.33625447198312053    0.5241812696346339    0.5639320041847885    0.4934292651226291    
  0.41682654230822963    0.37153262529832665    0.37152392399992923    0.4169536090090717    0.4933724817021663    
  0.3320767085490808    0.41684650176029037    0.479041236058414    0.40945207337610984    0.25710276581269714    
  0.191514415694467    0.25698610297748936    0.4095888577182117    0.4789324135070681    0.4168266538668989    
  0.33217478455275906    0.27647377106896076    0.2578349264049529    0.276467755032055    0.3320767085490808    
  0.21070733493425925    0.2765776807104096    0.37151110102881935    0.4414205661103556    0.40945200754614947    
  0.33621918662401046    0.33624629622369473    0.4096222011547376    0.4413951697469387    0.37153266707906046    
  0.27647377090617975    0.21072151584308382    0.1795272644701682    0.17953887666739907    0.21070733493425925    
  0.138301566505756    0.1795371640490575    0.2577390776626815    0.3715111550508489    0.4790411977863262    
  0.5242522758985853    0.5268802355430204    0.5241803708093431    0.4788205266137858    0.3715239603539152    
  0.25783493381114536    0.1795272542046776    0.13829805769953663    0.12571620158687585    0.138301566505756    
  0.10276253636323149    0.12571559521917866    0.17953712099278551    0.27657770522469666    0.4168464926692909    
  0.5638232474842706    0.6553737666531686    0.6552496394498181    0.5639830474110812    0.41695357364872027    
  0.2764677423297471    0.17953886242216396    0.12571620754550242    0.10276610054085122    0.10276253636323149    
  0.09229664144898621    0.10276252729950913    0.13830154882991824    0.21070732843908727    0.3320766421742603    
  0.49337253553069876    0.6431993736659123    0.7056717402158655    0.6431994523111108    0.4933725312589074    
  0.33207667392349643    0.21070732934065056    0.13830152190224873    0.10276251850627348    0.09229664144898621    
  0.09046381076626833    0.10036626179078885    0.1338273665278437    0.2012870330456721    0.3129608951528712    
  0.4601806190825868    0.5956411781380379    0.6515058757818847    0.5954690577350185    0.4601598945256297    
  0.3130771002526279    0.20127292204154504    0.13380983815998865    0.10036764765922535    0.09046381076626833    
  0.10036768677282132    0.10036429855722463    0.12318876922497063    0.1762577962083975    0.27076768231235154    
  0.40335361047064366    0.5320724493921186    0.6030947086321682    0.6032983868991567    0.5320105785205586    
  0.4032026368952073    0.27081768916931476    0.1762880162863024    0.12318552443943978    0.10036768677282132    
  0.13380986122270866    0.12084931700737785    0.1338132423022762    0.1762779958476147    0.2561009156421577    
  0.3661180632418584    0.4476334312837698    0.44780700371638166    0.428140430538692    0.4478877234752705    
  0.4478262875325366    0.36611368599674915    0.25603314480780975    0.17628802839690041    0.13380986122270866    
  0.20127291931691485    0.1685733364996563    0.1685436737740469    0.20129390410342635    0.27076116897215025    
  0.3661148338500656    0.4072888231659185    0.31489902247116874    0.20980122785701824    0.20974872995131105    
  0.31469779448645646    0.4073991893396416    0.36611370609394533    0.2708177066699037    0.20127291931691485    
  0.3130771115281099    0.2535653232789224    0.23427524929296056    0.2535738156381147    0.3131060945432633    
  0.4031852114258419    0.44779503299828466    0.3148208212014167    0.13529541748918375    0.07884254864541114    
  0.13541938227789366    0.31469778223332623    0.447826208328229    0.4032026615141075    0.3130771115281099    
  0.46015998160346216    0.37820865150248606    0.333027824481241    0.33304775489936767    0.3781516875434315    
  0.46021788274540626    0.5320343605853542    0.44781345570616227    0.209815518408601    0.07887842849733141    
  0.07884253620192763    0.20974875037103322    0.4478877538193835    0.5320105483639509    0.46015998160346216    
  0.5954690804471884    0.5154378063957233    0.444679274213504    0.4169348196293313    0.44470815412204884    
  0.5154078758637647    0.595491297733455    0.6033542226776742    0.4280895312347642    0.20981544231700416    
  0.13529539080353786    0.20980126079497627    0.4281403408758928    0.6032982984106616    0.5954690804471884    
  0.6515058960339044    0.6073049817123775    0.5258363459266113    0.4589192631292025    0.45897037670561164    
  0.5258076009689732    0.6074240095318182    0.6513003549864052    0.6033541492288684    0.44781345473725637    
  0.31482088174035483    0.3148990954998696    0.4478069074171279    0.6030946247261204    0.6515058960339044    
  0.5956414085489387    0.6073232843928917    0.5523574759103456    0.45607143204225137    0.40761647198392353    
  0.45607955007037526    0.5523833984761957    0.6074238765921836    0.5954913776304246    0.5320344178309255    
  0.44779506956786375    0.4072888639796303    0.4476334636624183    0.5320725626286199    0.5956414085489387    
  0.46018054569558153    0.5152324144183693    0.5258748644150429    0.45607801893018135    0.37299566513317695    
  0.372991503392399    0.45607948457181513    0.5258076153812258    0.5154079201829573    0.4602179248694708    
  0.40318517966400436    0.36611483663355915    0.36611808887144204    0.4033535922641122    0.46018054569558153    
  0.31296096751584673    0.3781652550253038    0.4448634117418676    0.4588745427036633    0.40763710512934864    
  0.37299565070068214    0.4076163811029526    0.45897046005966097    0.4447081251068966    0.378151734732921    
  0.31310612441803415    0.27076117184267356    0.256100868913266    0.2707677353320734    0.31296096751584673    
  0.20128704545727258    0.25369821930067016    0.3330395836936766    0.4168284750612548    0.45887449306874084    
  0.45607800010054733    0.4560714671347552    0.4589191979178794    0.416934780641658    0.3330478150202372    
  0.25357375501283436    0.20129386373217167    0.1762779454570728    0.176257801170901    0.20128704545727258    
  0.13382741297501438    0.16856168637890806    0.23414506722248218    0.3330395673933885    0.44486347615995725    
  0.525874924360743    0.5523574123839144    0.5258363451691045    0.44467928373010124    0.3330278884203877    
  0.234275261525611    0.16854365384441386    0.13381326575492936    0.12318880737897674    0.13382741297501438    
  0.10036626954934655    0.12083230883701808    0.16856166998874025    0.25369823151047804    0.3781652677271768    
  0.515232373432487    0.6073232483378469    0.6073049113355776    0.5154378706564458    0.37820856335362013    
  0.2535652877243898    0.16857332727162852    0.12084932906015788    0.10036429983634897    0.10036626954934655    
  0.09046381076626833    0.10036626179078885    0.1338273665278437    0.2012870330456721    0.3129608951528712    
  0.4601806190825868    0.5956411781380379    0.6515058757818847    0.5954690577350185    0.4601598945256297    
  0.3130771002526279    0.20127292204154504    0.13380983815998865    0.10036764765922535    0.09046381076626833    
  0.08595747764960417    0.09429476083941403    0.12220799807281542    0.17734453470394443    0.2663575462491143    
  0.3810806641680151    0.4846378465640585    0.5267908680053367    0.48445057688801335    0.38106155057004    
  0.2664909308103834    0.17733070447617932    0.12218935627838347    0.09429376997839257    0.08595747764960417    
  0.09429380656854987    0.09429283637471506    0.1146112245003672    0.16123057970222204    0.24284889284076625    
  0.3546559016269759    0.459695525029718    0.5153302064158349    0.5155272274491955    0.4596808603463906    
  0.3545111190227297    0.24287913582347187    0.1612557060519287    0.11461525295508183    0.09429380656854987    
  0.122189395354078    0.11024880183038534    0.1221921254992997    0.1612483039854316    0.23442601846814884    
  0.3343927304236372    0.4063543878872822    0.4031693346754388    0.38375357254545717    0.40323667914519995    
  0.40652029376358173    0.3343809574804802    0.23438782162241117    0.16125572839086527    0.122189395354078    
  0.17733071148610868    0.1469855674410056    0.14695922082002158    0.17735415472195576    0.2428439883640752    
  0.33437852601686974    0.37726272296331714    0.2942733768233004    0.1965779612322063    0.19653022224470956    
  0.29407315720870225    0.3773934774233575    0.3343809647409238    0.24287917270054685    0.17733071148610868    
  0.266490981974508    0.2107682919364634    0.19318913908342944    0.21076844275969484    0.26649109416793954    
  0.3545040092476857    0.4065103021706783    0.2941870738710818    0.12982446849665938    0.07669660996862264    
  0.12994778679456118    0.29407317252376375    0.4065202857989235    0.35451116053525006    0.266490981974508    
  0.3810616719596286    0.3028925625771131    0.26267186032515155    0.26269645163219396    0.3028664031431081    
  0.38110913718243344    0.45966711105538943    0.4031858327023975    0.19658582599351102    0.07674000002405447    
  0.07669659879302758    0.19653027469470863    0.40323663999670933    0.4596808149658704    0.3810616719596286    
  0.48445062866921845    0.40486631434018405    0.3465342182325327    0.326094475096897    0.34654180949016294    
  0.40484440670717037    0.4844962237952721    0.5155512171975256    0.38371013886580685    0.1965857911399554    
  0.1298244146719    0.19657797213740602    0.38375355288458907    0.5155271396297201    0.48445062866921845    
  0.526790882247623    0.47441095807630806    0.417660455209458    0.3813041317585683    0.38136338033014894    
  0.41761740269513614    0.4744846807102486    0.5266412455122296    0.5155510708793699    0.40318581972974465    
  0.29418710359438904    0.294273476715239    0.40316921440896236    0.5153301288600681    0.526790882247623    
  0.4846380958524606    0.47440195990130557    0.44533614772342106    0.4105739966571733    0.3935243174329608    
  0.4105858140611855    0.4453603380622055    0.47448458234748336    0.48449627058188377    0.45966708961879177    
  0.40651034750240445    0.37726273912294267    0.40635439851516375    0.4596955629448093    0.4846380958524606    
  0.38108062589506275    0.4046985248633995    0.41766472867383964    0.41060061843648277    0.3934407152914917    
  0.39343096851092124    0.4105857833780409    0.41761738509766916    0.40484451074554095    0.3811091759803105    
  0.3545039835678791    0.3343785424982177    0.33439267639637715    0.35465591147762815    0.38108062589506275    
  0.26635759579164064    0.3028808600050524    0.3466638633756114    0.38130855974604405    0.39350399239445577    
  0.39344078397963467    0.3935243023733624    0.38136340278626296    0.3465417893491014    0.30286643048468087    
  0.2664910669729294    0.2428440227341018    0.23442591880589786    0.24284892663503346    0.26635759579164064    
  0.17734451824343844    0.2108809575124556    0.26268346291403455    0.32598623810395133    0.38130849367475345    
  0.4106006475780376    0.410574002872656    0.3813040806987989    0.32609450039081433    0.26269642929931497    
  0.2107683974607997    0.17735413068612424    0.16124828027899127    0.16123060213804016    0.17734451824343844    
  0.12220802760147617    0.14697421683192874    0.19307750862759476    0.26268344220679823    0.34666392606403096    
  0.41766469997115957    0.44533614636086893    0.4176604773169449    0.346534238249844    0.26267185363287093    
  0.1931891665545427    0.14695923894224713    0.12219212298297974    0.11461123994261709    0.12220802760147617    
  0.09429477245382543    0.11022826153657819    0.14697418716195979    0.21088098930667273    0.30288090481099944    
  0.40469849619949033    0.47440197960665864    0.47441092849635486    0.4048663800244385    0.3028925106010682    
  0.21076822999986483    0.14698558702366168    0.11024880004131003    0.09429282920845516    0.09429477245382543    
  0.08595747764960417    0.09429476083941403    0.12220799807281542    0.17734453470394443    0.2663575462491143    
  0.3810806641680151    0.4846378465640585    0.5267908680053367    0.48445057688801335    0.38106155057004    
  0.2664909308103834    0.17733070447617932    0.12218935627838347    0.09429376997839257    0.08595747764960417    
  0.08029102895592535    0.08672014693209995    0.10793299440502802    0.14884056582062774    0.213122045949442    
  0.293945606500169    0.3660669548566018    0.39552449589502886    0.3659652880255878    0.2939387112295917    
  0.21320445677936561    0.14883088367677383    0.10792519550048893    0.0867175835485593    0.08029102895592535    
  0.08671762409795279    0.08671893258174802    0.10348669615780527    0.1413830171506539    0.20683306971697088    
  0.2966476677466585    0.38486993727091373    0.436602866478525    0.43671496322824294    0.38486511294513936    
  0.2965616802743013    0.20685705175026445    0.14138964840638904    0.10349672653816681    0.08671762409795279    
  0.10792520579638154    0.09767203717974123    0.10792760250900722    0.14138739927462723    0.2047234154333551    
  0.29596382762049306    0.37977437611363457    0.4122809193243161    0.41254950737302004    0.412335262539869    
  0.37988411681393    0.29594431728519394    0.2047165024241058    0.14138965270243628    0.10792520579638154    
  0.14883088116075685    0.12262065616214321    0.12260749484597654    0.14884208900425816    0.2068373170118752    
  0.29594724195424904    0.37185077055037674    0.36082308108709876    0.3038127341405922    0.3037796505189247    
  0.36065738515183765    0.3719531655009616    0.2959442429311754    0.20685709523450097    0.14883088116075685    
  0.2132045229490042    0.16493467188912062    0.1499747922821051    0.16493254244938652    0.21319993817054825    
  0.29656452614604323    0.37986720371952404    0.36075433339890295    0.24863957835861145    0.19366148280276552    
  0.24875772168566704    0.3606573445910036    0.37988409089610825    0.29656165382333427    0.2132045229490042    
  0.2939388068674911    0.22437257905241373    0.19087075093246758    0.19088778573867413    0.22435943762066293    
  0.2939632237156058    0.38485256321245626    0.41231876903331904    0.3038093861954898    0.1937113340079565    
  0.19366142248347712    0.3037796361216021    0.4123352579487638    0.3848650735839835    0.2939388068674911    
  0.3659653267842663    0.28875692470623077    0.24047478789894675    0.22460004764520436    0.2404814983957025    
  0.28874329301273793    0.3659982518237333    0.4367166145314493    0.41253828384204466    0.3038093559042285    
  0.24863954251612072    0.30381275243014527    0.4125495191742997    0.4367149526517965    0.3659653267842663    
  0.39552447440960303    0.3324162838525776    0.2836677454437404    0.25795796944026145    0.25798721941699004    
  0.28364082234394666    0.332455731057964    0.39545494813406934    0.43671656580240764    0.4123187397745448    
  0.3607543341856795    0.36082311703178127    0.4122808000756413    0.4366028374664836    0.39552447440960303    
  0.36606704894569286    0.33241105752515004    0.30106944409119557    0.2793185123644857    0.27111409088154226    
  0.2793275519408246    0.3010782071519723    0.3324556507506911    0.3659982536485753    0.3848525595022314    
  0.37986723330428035    0.37185074305821775    0.37977436608578186    0.3848700104203579    0.36606704894569286    
  0.29394558088685574    0.28866962757783127    0.283666512396557    0.2793285211851367    0.27592692490308757    
  0.2759207370925    0.27932755185737984    0.2836407754450779    0.28874333050335155    0.293963217714559    
  0.2965645324625189    0.2959472660084276    0.295963817890462    0.2966476477693266    0.29394558088685574    
  0.2131220921768717    0.22437433531973006    0.24053456756257885    0.25796521402574246    0.2711042746135627    
  0.2759269100873966    0.2711140832472461    0.25798727471917154    0.2404814917794267    0.22435943213160722    
  0.21319997066501378    0.2068373207790293    0.20472340316267618    0.2068331094757889    0.2131220921768717    
  0.14884057298028877    0.16499250029320583    0.1908763504617282    0.22454619605460988    0.25796516170727873    
  0.27932852312862283    0.27931855255630994    0.257957904100574    0.22460004712927711    0.1908878187517548    
  0.16493248443123662    0.14884205061091282    0.1413873991489709    0.14138300461073872    0.14884057298028877    
  0.10793300588779688    0.12261368371784227    0.1499173533110003    0.1908763607441607    0.2405346152337296    
  0.2836665574738726    0.3010694479226925    0.2836678142630635    0.24047481186587724    0.19087076239300008    
  0.1499747658264231    0.1226075117898513    0.10792758777384504    0.10348669367315033    0.10793300588779688    
  0.08672016412116271    0.09766138073413431    0.1226136801548638    0.16499256044875002    0.2243743400118289    
  0.28866964822950203    0.3324110437318222    0.3324161998861209    0.2887569236941252    0.22437256426914703    
  0.1649346476926826    0.12262067980644391    0.09767204209979505    0.08671893689852807    0.08672016412116271    
  0.08029102895592535    0.08672014693209995    0.10793299440502802    0.14884056582062774    0.213122045949442    
  0.293945606500169    0.3660669548566018    0.39552449589502886    0.3659652880255878    0.2939387112295917    
  0.21320445677936561    0.14883088367677383    0.10792519550048893    0.0867175835485593    0.08029102895592535    
  0.07480280740404241    0.07964026570738589    0.09528538044426035    0.12460421240661515    0.16961705277237843    
  0.22542926345455688    0.2752465368146668    0.29578572622500576    0.27522342333871197    0.22543061923971763    
  0.16963970408049447    0.12460193673438094    0.09528440558993748    0.07963959900311988    0.07480280740404241    
  0.0796396262538375    0.07964065645460108    0.0931919780310521    0.1234113605356124    0.1749855621132393    
  0.24695127372513528    0.32268618744452693    0.3722659577563836    0.37228424698382967    0.3226908510792229    
  0.2469299938177502    0.17499671523667149    0.12341291076410398    0.09319814104085741    0.0796396262538375    
  0.09528443222563282    0.08669485695280181    0.0952854887554761    0.1234102749333954    0.17743544811528833    
  0.26043540028573536    0.35586767016396914    0.42684084077147105    0.45076688288574573    0.426879381294312    
  0.35589409933669286    0.2604331068236754    0.17743750492698174    0.12341293645996762    0.09528443222563282    
  0.12460194160232264    0.10245377056964619    0.10245181573680427    0.12460164274368747    0.17499279312999308    
  0.2604273508271782    0.36689588007019136    0.4448657974996687    0.4679511500501687    0.4679367090663769    
  0.4448094783887734    0.36693417746088236    0.260433092343312    0.17499670513846152    0.12460194160232264    
  0.16963971349887247    0.12877645357906603    0.11632335770225694    0.12877562175192336    0.1696343089383523    
  0.2469356440345451    0.3558816068120647    0.4448524317776149    0.4600965589724792    0.44806878913943415    
  0.4601260545954472    0.4448094341616915    0.3558941449196877    0.2469300039161251    0.16963971349887247    
  0.22543069123509862    0.16499354862033894    0.1376426682508898    0.13765059838203256    0.1649875933088305    
  0.22544005664324654    0.3226841293823089    0.4268827099641299    0.4679448402102328    0.44805749471478884    
  0.4480687298038023    0.4679367499134336    0.42687941354188363    0.32269082871771887    0.22543069123509862    
  0.27522344274307003    0.2034661373237079    0.1636992230259663    0.15117165835424848    0.1637027027283884    
  0.2034634912785722    0.275235515403785    0.3722843988984639    0.4507827281765468    0.4679447171681597    
  0.4600964459978796    0.4679511841990597    0.4507667967803733    0.3722842240984477    0.27522344274307003    
  0.2957857028380853    0.22947621080244068    0.18648824490735877    0.16594024633807697    0.1659458975613397    
  0.1864826622722674    0.22948580763028117    0.2957788660893024    0.3722843135551348    0.42688261896700613    
  0.44485242557752785    0.44486577710840247    0.4268407304760747    0.3722659531896445    0.2957857028380853    
  0.27524666445766877    0.22947037264241277    0.19577658700733316    0.17601168484441485    0.16948816618275314    
  0.1760152073199208    0.19577974351471103    0.22948572426946143    0.275235513622557    0.3226840686612161    
  0.35588162253950034    0.36689588143062624    0.35586767841303935    0.32268629293256135    0.27524666445766877    
  0.225429196693069    0.20344852913366754    0.1864886890855548    0.1760110790980549    0.17122701790486777    
  0.171224951271604    0.17601516257177327    0.1864826524783332    0.2034635115975242    0.22544003772208557    
  0.24693563122977105    0.2604273911326844    0.2604353814696772    0.24695125167318466    0.225429196693069    
  0.1696171084776903    0.16499285323870108    0.16370958455492324    0.16594290530604192    0.1694866042726179    
  0.1712269804935419    0.16948813561984774    0.1659459492123112    0.1637027276731893    0.16498758085916976    
  0.1696343055877955    0.1749927953867339    0.1774354178283544    0.174985616765976    0.1696171084776903    
  0.1246042067477247    0.12878705952190334    0.13764677627573524    0.1511581585618799    0.16594286451544546    
  0.17601107489848516    0.17601171448037123    0.1659402252830824    0.1511716552656783    0.13765060554092498    
  0.12877556240433863    0.12460159352334164    0.1234102155380871    0.1234113575911973    0.1246042067477247    
  0.09528541412541568    0.10245144923173055    0.11631114376966496    0.13764673835735536    0.1637095852122197    
  0.1864886868481336    0.19577658004075565    0.18648827573790963    0.1636992408144605    0.13764270589572358    
  0.1163233700643676    0.10245182304544599    0.09528549220130045    0.09319198952695279    0.09528541412541568    
  0.0796402878586348    0.08669301064467994    0.1024514506619497    0.12878708179378048    0.1649928607564059    
  0.2034485479521366    0.22947034493637788    0.2294761846838181    0.20346616160432682    0.1649934791720181    
  0.12877642717066307    0.1024537559282987    0.08669485959092364    0.07964066470319486    0.0796402878586348    
  0.07480280740404241    0.07964026570738589    0.09528538044426035    0.12460421240661515    0.16961705277237843    
  0.22542926345455688    0.2752465368146668    0.29578572622500576    0.27522342333871197    0.22543061923971763    
  0.16963970408049447    0.12460193673438094    0.09528440558993748    0.07963959900311988    0.07480280740404241    
  0.07107373005727331    0.07479166041048685    0.08681489149746664    0.10916314505608583    0.14312012076680622    
  0.1850057345985196    0.22239663794282413    0.2378458295334578    0.22239844588181928    0.18501270785140095    
  0.14311916549582673    0.10916377919955242    0.08681738130321075    0.07479257603802443    0.07107373005727331    
  0.07479261771565304    0.07479125994698095    0.08604009722832966    0.11131360639095393    0.15429613185547988    
  0.21502417194940343    0.2813635259222268    0.3266321568885135    0.3266299008010658    0.28136424809578764    
  0.21502888890552385    0.15430024147572413    0.11131596521743463    0.08603997904255119    0.07479261771565304    
  0.08681740847474533    0.07945345177786337    0.0868157354076749    0.11131455496029533    0.1590315652851324    
  0.23496149608102634    0.3316572579680235    0.418023238928907    0.45295030103317524    0.4180356961188555    
  0.3316595509915215    0.2349628949519157    0.1590381759756632    0.1113159693140438    0.08681740847474533    
  0.109163801322296    0.08979004709949334    0.08979156904404499    0.10916150663920281    0.15429957505464675    
  0.23495732193234098    0.35164214731735094    0.4760244039459528    0.5559654914338734    0.5559669190219342    
  0.4760319698426488    0.35165048922599446    0.23496288672044022    0.15430023112009533    0.109163801322296    
  0.14311919913858734    0.10713739419804424    0.09639406175779788    0.10713569463617661    0.1431167923460335    
  0.21503152477444126    0.3316523234046366    0.4760446792731831    0.5941431297510831    0.6375528279171135    
  0.5941178391094938    0.47603193126539695    0.33165956101918803    0.21502892752858507    0.14311919913858734    
  0.18501274993451353    0.13087604372019193    0.10753583700358095    0.107536680768218    0.1308763978022627    
  0.18501222110277524    0.2813636899447934    0.4180399875115906    0.5559628098521764    0.6375175029333827    
  0.6375527939611387    0.5559669605912112    0.4180356747017925    0.2813642245287923    0.18501274993451353    
  0.22239848793564096    0.15594340034160822    0.12169350282298967    0.11134822199852415    0.12169569796954564    
  0.1559438730760591    0.22240267384082407    0.3266320754114478    0.4529716204199726    0.5559627593646295    
  0.594143002796062    0.5559654956795423    0.45295024272148227    0.32662984452019833    0.22239848793564096    
  0.23784584337893025    0.17300025912370323    0.13436739793706334    0.11707596712448534    0.1170755106963676    
  0.13436625568811386    0.17300525497601882    0.23785069876321158    0.32663201525497454    0.418039937167807    
  0.47604461901332784    0.4760243955604238    0.4180231149515887    0.32663211575179313    0.23784584337893025    
  0.22239671623826532    0.17300233588860328    0.1396236145026886    0.12137085052921659    0.11572682051516515    
  0.12137262675549199    0.1396251732119775    0.17300519141950654    0.22240268396868015    0.28136363393453845    