#     DFTpy    
  CRYSTAL 
    
  PRIMVEC    
  2.8648965517241374    0.0    0.0    
  0.0    2.8648965517241374    0.0    
  0.0    0.0    2.8648965517241374    
  PRIMCOORD    
  4    1    
  Si    0.0    0.0    0.0    
  Si    0.0    1.4324482758620687    1.4324482758620687    
  Si    1.4324482758620687    0.0    1.4324482758620687    
  Si    1.4324482758620687    1.4324482758620687    0.0    
  BEGIN_BLOCK_DATAGRID_3D    
  3d_datagrid_density    
  BEGIN_DATAGRID_3D#0    
  13    13    13    
  0.0    0.0    0.0    
  2.8648965517241374    0.0    0.0    
  0.0    2.8648965517241374    0.0    
  0.0    0.0    2.8648965517241374    
  0.061284643175145787    0.12217674515827186    0.36579679211355914    0.6438105502001861    0.6847838707775937    
  0.6189099273354116    0.5888924610943584    0.6189099392712958    0.6847839186516976    0.6438105673542949    
  0.36579682449519074    0.12217674913496963    0.061284643175145787    0.12217671859972465    0.19994036852340322    
  0.4518491816121307    0.6888404163909925    0.7096693640113553    0.6467676942383036    0.6189099431944336    
  0.6467676428107393    0.7096693212642883    0.688840478886335    0.45184911878038775    0.19994034523410306    
  0.12217671859972465    0.3657968113243448    0.4518491331526151    0.6500367228505398    0.7781004284576871    
  0.7658035760473498    0.7096694064637583    0.6847838246781992    0.7096692798085529    0.7658036745204567    
  0.7781003659791081    0.6500366535506383    0.4518491574281759    0.3657968113243448    0.6438105505839122    
  0.6888405973642358    0.7781002603029963    0.8215955042410512    0.7781003938701875    0.6888405344088616    
  0.6438105347139075    0.6888404669622772    0.7781004076466417    0.8215955062607957    0.7781003395777891    
  0.6888405035323154    0.6438105505839122    0.6847838473748388    0.7096693487651666    0.7658036239746742    
  0.7781002974465109    0.6500366655374411    0.4518491591622413    0.36579680794269237    0.45184914588412683    
  0.6500367115251958    0.7781003163605776    0.7658035438579122    0.7096693167697877    0.6847838473748388    
  0.6189099025866248    0.6467676924875776    0.7096693580297357    0.6888405283112086    0.45184913353042466    
  0.19994035561252066    0.12217669775505534    0.19994036558829378    0.4518491490673504    0.6888406010220236    
  0.7096692358981253    0.6467676737784542    0.6189099025866248    0.5888924973990672    0.6189099851288528    
  0.6847838574998973    0.6438105972364384    0.36579682863409896    0.12217672036728001    0.06128463930009622    
  0.12217672313577044    0.36579680313277485    0.6438105610800201    0.6847838732764009    0.6189099967668317    
  0.5888924973990672    0.6189099418259923    0.646767732536785    0.7096693648774275    0.6888405027896174    
  0.4518491445788885    0.19994034435122107    0.12217673947803862    0.19994034730062424    0.45184911850449266    
  0.6888405181581908    0.7096692913176925    0.6467677078433917    0.6189099418259923    0.6847838205523208    
  0.7096693194375752    0.7658036529283784    0.77810038798535    0.6500366636667586    0.4518491635079409    
  0.36579680281823296    0.4518491584523076    0.6500367361207844    0.7781004035254198    0.7658035348807781    
  0.7096693454889147    0.6847838205523208    0.6438105696317615    0.6888406571971026    0.778100337722446    
  0.8215955129039063    0.7781003735868572    0.6888405217873333    0.6438105117957561    0.6888405402275314    
  0.7781004023801906    0.8215955128748409    0.778100299227458    0.6888405108771697    0.6438105696317615    
  0.3657968161249604    0.4518491895005701    0.6500366944941897    0.7781002110145301    0.7658035824719521    
  0.7096693565341565    0.6847838456023946    0.7096693229212634    0.7658035537798404    0.7781003019557442    
  0.6500366218327612    0.451849169025935    0.3657968161249604    0.12217672901543307    0.19994032696859895    
  0.4518491985630322    0.6888405354885263    0.7096692884845274    0.6467676946169554    0.6189098924481293    
  0.6467677144091174    0.7096693173932992    0.688840557671318    0.4518490930425531    0.19994035986746408    
  0.12217672901543307    0.061284643175145787    0.12217674515827186    0.36579679211355914    0.6438105502001861    
  0.6847838707775937    0.6189099273354116    0.5888924610943584    0.6189099392712958    0.6847839186516976    
  0.6438105673542949    0.36579682449519074    0.12217674913496963    0.061284643175145787    0.12217672715270524    
  0.19994032616123933    0.4518491301145028    0.6888405213059546    0.7096693284670964    0.6467676780991867    
  0.6189099175925288    0.6467676388005358    0.7096694046828748    0.6888405269152383    0.4518491763401082    
  0.19994036623990083    0.12217672715270524    0.19994031607581814    0.28748765436652235    0.5308598147690665    
  0.7255367272031089    0.7306344170722835    0.671942823217314    0.6467676867905732    0.6719428755080751    
  0.7306344358576026    0.7255368194187153    0.5308597699716642    0.28748763369349034    0.19994031607581814    
  0.4518490972835721    0.5308598020960638    0.6994799665330111    0.7962723648507978    0.7790959836336259    
  0.730634475425638    0.7096692952597249    0.7306344440635351    0.7790960420810175    0.7962723411443108    
  0.6994798146235179    0.5308598146497909    0.4518490972835721    0.6888404946009313    0.7255369047631345    
  0.7962722629306458    0.8298139437359915    0.796272313617294    0.7255368453040827    0.6888405494174363    
  0.7255368568597869    0.7962724374282413    0.8298139966162134    0.7962724033496459    0.7255368652617178    
  0.6888404946009313    0.7096693534430151    0.7306344036815654    0.7790959440466106    0.7962723870822283    
  0.699479853423884    0.5308598301673348    0.45184910573881293    0.5308598288027412    0.6994798687217051    
  0.7962723796203884    0.7790959068706478    0.730634387242418    0.7096693534430151    0.6467676551675544    
  0.6719428449269624    0.7306344419662121    0.7255369397682637    0.5308598016102217    0.2874875946158392    
  0.1999403417777431    0.287487606890927    0.5308598399361135    0.725536905907948    0.7306343920718298    
  0.6719428379042469    0.6467676551675544    0.6189099616299929    0.6467677060086395    0.7096692738997666    
  0.6888405116305552    0.4518491170292439    0.19994035747085437    0.1221767208354285    0.19994033476638753    
  0.45184918971813354    0.6888404436483895    0.7096693573777504    0.6467677342533619    0.6189099616299929    
  0.6467676653267955    0.6719428741608987    0.7306344119501121    0.7255367902754611    0.5308598040268436    
  0.28748763004498656    0.19994035964179382    0.28748759789712314    0.5308598137120293    0.7255369397868793    
  0.7306343579477103    0.671942840974165    0.6467676653267955    0.7096692627510784    0.7306344214749647    
  0.7790959919764405    0.7962723072400728    0.6994799096179619    0.5308597847180648    0.4518490929512349    
  0.5308597853585062    0.6994799145379577    0.7962724123860313    0.7790958827725971    0.7306344183841954    
  0.7096692627510784    0.6888405210887151    0.7255369759656237    0.796272351746469    0.829813851694981    
  0.7962723090865441    0.7255369426279066    0.6888404804549663    0.725536886934206    0.7962724657360162    
  0.829813965584994    0.7962723471951363    0.7255368037783901    0.6888405210887151    0.4518490799893432    
  0.5308598146810256    0.6994799642645629    0.7962723057207698    0.7790959914357284    0.7306344452007782    
  0.7096693179955833    0.730634376537967    0.7790959599068843    0.7962723463120865    0.6994798306088652    
  0.5308598001956986    0.4518490799893432    0.19994034217275997    0.2874875810616059    0.5308598349992004    
  0.7255369459224734    0.7306343576359556    0.6719428708719563    0.6467676427541399    0.6719428818152399    
  0.7306344653317173    0.7255368839650453    0.5308597755619775    0.2874876302344516    0.19994034217275997    
  0.12217672715270524    0.19994032616123933    0.4518491301145028    0.6888405213059546    0.7096693284670964    
  0.6467676780991867    0.6189099175925288    0.6467676388005358    0.7096694046828748    0.6888405269152383    
  0.4518491763401082    0.19994036623990083    0.12217672715270524    0.36579679641365886    0.4518491587270851    
  0.6500366635081981    0.7781003434776224    0.7658036341463417    0.7096693557444242    0.684783848455523    
  0.7096692436189064    0.7658036437476111    0.7781002720244076    0.6500367254384563    0.4518492047865418    
  0.36579679641365886    0.45184909472819834    0.5308598162763958    0.6994799058258079    0.7962722310256533    
  0.77909600783313    0.7306344052510356    0.7096692575326036    0.7306344026020386    0.7790959773966843    
  0.7962723148610803    0.6994798714966578    0.5308598081059268    0.45184909472819834    0.6500366838478789    
  0.6994798762555839    0.7900737993749084    0.8287150325083033    0.8100484998262226    0.7790960277559315    
  0.7658035762775615    0.7790959918230725    0.8100485354739902    0.8287150579084924    0.7900736928898746    
  0.6994799229812205    0.6500366838478789    0.7781003175552875    0.7962723951038782    0.8287150289682138    
  0.8427094277392633    0.8287150139299955    0.7962723476882003    0.7781003263371243    0.796272331711009    
  0.8287151145055377    0.8427094207769955    0.8287150045557768    0.7962723353932396    0.7781003175552875    
  0.7658036470212254    0.7790959717698033    0.8100485096794285    0.8287150705367943    0.7900737203709594    
  0.6994799055899609    0.6500366623363043    0.6994798861564886    0.7900737447882364    0.8287149899991191    
  0.8100483874637255    0.7790959969725924    0.7658036470212254    0.7096692355989178    0.7306344242966234    
  0.7790959883441357    0.7962723429842603    0.6994799194148937    0.5308598588709141    0.45184908828927467    
  0.5308598237222307    0.6994799219030957    0.7962723608581276    0.7790959465261832    0.7306343902642833    
  0.7096692355989178    0.6847838897736155    0.709669340816357    0.7658035954350412    0.7781003166571393    
  0.650036634718297    0.4518491439950021    0.3657967860414134    0.45184912122332616    0.6500367720927509    
  0.7781003314946874    0.765803582153727    0.7096693996853111    0.6847838897736155    0.7096693384429882    
  0.7306344131535832    0.7790960283658537    0.7962723132863844    0.6994798883802802    0.5308598032707948    
  0.451849125253048    0.5308597544184246    0.6994799061056842    0.7962724028563772    0.7790958666292773    
  0.7306343573521942    0.7096693384429882    0.7658035683818604    0.7790959593155411    0.8100484517560493    
  0.8287150661407673    0.7900737999891481    0.6994799357181958    0.6500366650609292    0.699479849546439    
  0.7900738167450679    0.8287150907303087    0.8100483498911395    0.779096000410839    0.7658035683818604    
  0.7781003052911916    0.796272458181436    0.8287149980396135    0.8427093635485576    0.8287150784993159    
  0.7962723986753892    0.7781002687024233    0.7962724557246091    0.8287150982636489    0.8427093664145144    
  0.8287150411335449    0.7962723467429611    0.7781003052911916    0.6500366323995358    0.6994799355187636    
  0.7900737886306014    0.8287149526006728    0.8100484328123241    0.7790959681109036    0.7658035591737553    
  0.779095992831883    0.8100484079366491    0.8287150078545837    0.7900737279839547    0.6994798808023959    
  0.6500366323995358    0.4518490835281332    0.5308597359749053    0.6994799564464582    0.7962724217101648    
  0.7790959105252117    0.730634452074113    0.7096693054602334    0.7306344458952787    0.7790960644400576    
  0.7962723402557773    0.6994798688759526    0.5308598537713709    0.4518490835281332    0.36579679641365886    
  0.4518491587270851    0.6500366635081981    0.7781003434776224    0.7658036341463417    0.7096693557444242    
  0.684783848455523    0.7096692436189064    0.7658036437476111    0.7781002720244076    0.6500367254384563    
  0.4518492047865418    0.36579679641365886    0.6438105667808408    0.6888405586316255    0.7781003413465848    
  0.8215955130797434    0.778100384943617    0.6888405018033987    0.6438105301558181    0.6888404876673947    
  0.7781003647602356    0.8215954613841805    0.7781003455331768    0.688840561625937    0.6438105667808408    
  0.688840507408318    0.7255369204654046    0.7962724067352043    0.8298138492096048    0.7962724384781594    
  0.7255368992307936    0.6888405002294163    0.7255369073552624    0.7962723837318868    0.8298139281801209    
  0.7962723240335386    0.7255368892140541    0.688840507408318    0.778100375074832    0.7962723257708634    
  0.8287150707180658    0.8427094322624429    0.8287149950421879    0.7962724466664164    0.7781002732848059    
  0.7962723483932649    0.8287150793789496    0.8427094375188747    0.8287150221288169    0.796272346350948    
  0.778100375074832    0.8215954936479265    0.8298140555905695    0.8427093681287667    0.8472989539062642    
  0.8427094778155573    0.829814024320321    0.8215954815905487    0.829813904263788    0.8427094616677593    
  0.847298951696446    0.8427094208418695    0.8298139584202873    0.8215954936479265    0.7781003208524044    
  0.796272399327623    0.8287150273460147    0.8427093667628796    0.8287149849000777    0.7962724206326401    
  0.7781003198272941    0.7962724018428385    0.8287149882769768    0.8427093648585146    0.8287149441375338    
  0.7962723357704293    0.7781003208524044    0.6888404490461321    0.7255368991819164    0.7962723957048917    
  0.8298139385894152    0.7962724014269983    0.7255369393798834    0.6888404604070822    0.7255369441951844    
  0.7962723985432174    0.8298140819554517    0.7962723184934595    0.7255368514300234    0.6888404490461321    
  0.6438106077562541    0.6888405809393244    0.7781003816226536    0.8215955529055398    0.7781003311554832    
  0.688840529319211    0.6438105109946515    0.6888405294444379    0.7781004269564422    0.821595462613378    
  0.7781003769286186    0.6888406046570216    0.6438106077562541    0.688840523308969    0.7255369395710577    
  0.7962724279315903    0.8298139364944855    0.7962723359123477    0.7255368940069498    0.6888405615758261    
  0.7255368837481554    0.7962722935128833    0.8298139255298335    0.7962723390291228    0.7255368911155686    
  0.688840523308969    0.7781003092967993    0.7962723098663781    0.8287150408137747    0.8427094514934347    
  0.8287150467424124    0.7962723969481527    0.7781003586186562    0.7962723797509154    0.8287150600036747    
  0.8427095012980577    0.8287149966803052    0.796272359566485    0.7781003092967993    0.8215955370664596    
  0.8298140739017507    0.8427093501575272    0.8472990210712746    0.8427093826945066    0.8298139833719149    
  0.8215953933205826    0.8298139962403535    0.8427094770608922    0.8472989492442694    0.8427093423417238    
  0.8298139550434754    0.8215955370664596    0.778100385057146    0.79627240801055    0.8287150923570342    
  0.8427092771441825    0.8287150224677755    0.7962723867600817    0.7781002799376955    0.7962723664785825    
  0.8287150292538931    0.8427093617359285    0.8287150006265084    0.796272387981726    0.778100385057146    
  0.688840507853474    0.7255368721094322    0.7962723942687361    0.829814026365763    0.7962723698944392    
  0.7255368956703506    0.6888404936748767    0.7255369450253505    0.7962724141015594    0.8298140261364841    
  0.7962723031244626    0.7255369214858745    0.688840507853474    0.6438105667808408    0.6888405586316255    
  0.7781003413465848    0.8215955130797434    0.778100384943617    0.6888405018033987    0.6438105301558181    
  0.6888404876673947    0.7781003647602356    0.8215954613841805    0.7781003455331768    0.688840561625937    
  0.6438105667808408    0.6847838370132057    0.7096693087618031    0.7658035943509975    0.7781003225649087    
  0.6500366764428347    0.4518491341924556    0.3657967755757117    0.4518490918290489    0.6500367307082273    
  0.7781003113079673    0.7658036725554908    0.7096693328877491    0.6847838370132057    0.7096692735909161    
  0.7306344415968757    0.7790960245661488    0.7962721676883349    0.6994799310322619    0.5308597804689054    
  0.4518491372564483    0.5308598188305061    0.6994799318361307    0.7962723574335265    0.779095936270986    
  0.7306344509183454    0.7096692735909161    0.7658035415166012    0.7790959518220925    0.810048567120418    
  0.8287150308827327    0.7900738211102915    0.6994799434779594    0.6500366602505366    0.6994798864197765    
  0.7900738428392476    0.8287150336688971    0.8100484075023576    0.7790960143899391    0.7658035415166012    
  0.778100300516621    0.7962723805901957    0.8287149245982159    0.8427093046294867    0.8287149855181427    
  0.7962723613435604    0.7781003829325652    0.7962723557695017    0.828715073599218    0.8427093802977241    
  0.8287150826880927    0.796272366480815    0.778100300516621    0.6500366870733201    0.6994798862782591    
  0.7900737547298984    0.8287150590645974    0.8100484065726221    0.7790960001058463    0.7658036263576034    
  0.7790959712687058    0.810048439738137    0.828715058692666    0.7900737199918363    0.6994799080669825    
  0.6500366870733201    0.45184911541979245    0.5308598022092105    0.699479955868228    0.7962723950489052    
  0.7790959738378802    0.7306344119354177    0.7096692731438939    0.7306344329883185    0.779095952464589    
  0.7962723668626959    0.6994799070545632    0.530859813440272    0.45184911541979245    0.36579678739739097    
  0.45184914276996213    0.6500366782281678    0.7781003234375301    0.7658035728106153    0.7096693228375336    
  0.6847838198514109    0.7096692799135979    0.7658037250239534    0.7781002274576765    0.6500366847625472    
  0.4518491441235102    0.36579678739739097    0.4518491204865936    0.5308598195221728    0.6994799037281874    
  0.7962723015572672    0.7790959240079034    0.7306344370597126    0.7096693512443503    0.7306343782160382    
  0.7790959967452689    0.7962723880130577    0.6994797814913012    0.5308597813266195    0.4518491204865936    
  0.6500366969897468    0.6994799389326614    0.7900737647874254    0.8287149638440062    0.8100484711750605    
  0.7790960081696253    0.765803565916326    0.779095959862687    0.8100485489093984    0.8287150834482089    
  0.7900737345600999    0.6994799247163246    0.6500366969897468    0.7781003218239179    0.7962724733924016    
  0.8287150151970875    0.8427093276630806    0.8287150146495831    0.7962724288333041    0.7781002558158484    
  0.7962723542002538    0.828715126155499    0.8427094365622576    0.8287150284385972    0.7962723111050857    
  0.7781003218239179    0.7658035477159995    0.7790960439896503    0.8100484549943857    0.8287149785922022    
  0.7900737229397271    0.6994799522541464    0.6500366580592369    0.699479914804306    0.7900737344317663    
  0.8287150062962193    0.8100483320766301    0.779095934687571    0.7658035477159995    0.7096693367658584    
  0.7306343460014844    0.7790959901897869    0.7962723863852229    0.6994798773266664    0.5308598087222247    
  0.45184908314282735    0.5308598635659376    0.6994799525712838    0.7962723819610737    0.7790959151578581    
  0.7306344872240084    0.7096693367658584    0.6847838370132057    0.7096693087618031    0.7658035943509975    
  0.7781003225649087    0.6500366764428347    0.4518491341924556    0.3657967755757117    0.4518490918290489    
  0.6500367307082273    0.7781003113079673    0.7658036725554908    0.7096693328877491    0.6847838370132057    
  0.6189099440920764    0.6467676668727284    0.7096693318913294    0.6888405028216914    0.45184914981862634    
  0.1999403603641384    0.12217672716110733    0.19994032224447258    0.45184917196234226    0.6888404681879113    
  0.7096693798057458    0.6467677431039117    0.6189099440920764    0.6467676293722397    0.6719429360047513    
  0.7306344310114756    0.7255367493667151    0.53085981268643    0.287487594237575    0.19994032611936902    
  0.28748762812494555    0.530859856207293    0.7255368676252364    0.7306343544711159    0.6719428680943925    
  0.6467676293722397    0.7096692915850848    0.7306343518952648    0.7790960687535388    0.7962723671197609    
  0.6994799228477824    0.5308598358305179    0.45184908343672814    0.530859822158228    0.6994799529674292    
  0.7962723863290133    0.779095899323282    0.7306344450857791    0.7096692915850848    0.6888404977280057    
  0.725536956851288    0.7962723369744422    0.8298139383563587    0.7962723863670705    0.7255368900583348    
  0.688840543341987    0.7255368144681694    0.7962724266107332    0.8298139529921457    0.7962723550760726    
  0.7255368685826096    0.6888404977280057    0.4518491530790292    0.5308598017309195    0.6994799404160648    
  0.7962724035255981    0.7790958868874227    0.730634418464356    0.7096692537215301    0.7306344250371299    
  0.7790958846645363    0.7962723277310484    0.6994798383457715    0.5308598515960934    0.4518491530790292    
  0.19994030475593574    0.28748760101506643    0.5308597969896202    0.7255368847743794    0.7306343954694164    
  0.6719429189293376    0.6467676302963895    0.6719428335456877    0.7306343825708468    0.7255369558969589    
  0.5308597934881648    0.287487612092768    0.19994030475593574    0.12217673163161061    0.19994035582422828    
  0.45184912781920195    0.6888405171594536    0.7096692831285589    0.6467676961568782    0.6189099450998968    
  0.6467676504551938    0.7096693899618502    0.688840479336729    0.4518491548872613    0.1999403674314712    
  0.12217673163161061    0.19994035009627828    0.28748761390313726    0.530859844270206    0.725536871442355    
  0.7306344094349249    0.6719428320204547    0.6467676849580786    0.6719428500448231    0.7306344184772254    
  0.7255369140164671    0.5308597408643319    0.2874875964036502    0.19994035009627828    0.4518490943084917    
  0.5308597709781693    0.6994798819939261    0.7962723345432194    0.779095991810633    0.7306344551186025    
  0.7096692787844981    0.7306343715899648    0.7790960564121022    0.7962723903873782    0.6994798625133279    
  0.5308598414294032    0.4518490943084917    0.6888404982894977    0.7255369894492134    0.7962723109119568    
  0.8298139633512965    0.7962723815362296    0.7255368980969927    0.6888404274187214    0.725536934685889    
  0.7962724580338615    0.8298139420585733    0.7962723364455029    0.7255368151261656    0.6888404982894977    
  0.7096692644587437    0.7306344113239034    0.7790959967130279    0.7962722622653258    0.6994799174244939    
  0.5308597999211633    0.451849087483072    0.5308598120716979    0.6994798583411207    0.7962723215506897    
  0.779095938700546    0.7306344166555155    0.7096692644587437    0.646767626169374    0.6719428176191297    
  0.7306344237720965    0.7255369534921223    0.5308597358448575    0.2874876323058078    0.1999403285907431    
  0.28748762612446    0.5308598541278894    0.7255368818136579    0.7306343565982832    0.6719429391369413    
  0.646767626169374    0.6189099440920764    0.6467676668727284    0.7096693318913294    0.6888405028216914    
  0.45184914981862634    0.1999403603641384    0.12217672716110733    0.19994032224447258    0.45184917196234226    
  0.6888404681879113    0.7096693798057458    0.6467677431039117    0.6189099440920764    0.5888924546453655    
  0.6189099873764036    0.6847838482969326    0.6438105554635706    0.3657968241103978    0.12217673025643223    
  0.06128464034407716    0.12217672471123718    0.36579684269218954    0.6438105619748975    0.6847838812995354    
  0.618909995655235    0.5888924546453655    0.6189099014660422    0.6467677098524873    0.7096693696368832    
  0.6888404003163028    0.451849181296817    0.19994034931485846    0.12217672664344506    0.19994034181976367    
  0.4518491278032765    0.6888404726350941    0.7096693129286857    0.6467676670173693    0.6189099014660422    
  0.6847838817714145    0.7096693250700579    0.7658036581859271    0.7781004191333194    0.6500366420677487    
  0.4518491761112467    0.36579677940763905    0.4518491274699444    0.6500367348494995    0.7781003613606772    
  0.7658035795274313    0.7096693433231046    0.6847838817714145    0.6438105559863186    0.6888406021202098    
  0.7781002603237621    0.8215955067830895    0.7781004066517768    0.6888405356993288    0.6438105369809392    
  0.6888404718344067    0.778100406256215    0.8215955141762482    0.778100333385999    0.6888404917959656    
  0.6438105559863186    0.36579680368407835    0.45184915561285266    0.6500366947165892    0.7781003044351451    
  0.7658035974979215    0.7096693632304787    0.6847838648988238    0.7096693327572892    0.7658036321435882    
  0.7781003180154852    0.6500366181687747    0.4518491294356468    0.36579680368407835    0.12217671412830282    
  0.1999403490376695    0.45184916936160385    0.6888405027318082    0.7096693281382784    0.6467677074006846    
  0.6189098746775271    0.6467677041341933    0.7096693387372075    0.6888406100855198    0.45184906566000343    
  0.1999403471913996    0.12217671412830282    0.06128464747269398    0.12217674533895154    0.3657967954559664    
  0.6438105814376681    0.6847838833779212    0.6189099419951268    0.5888924603390034    0.6189099245114897    
  0.6847838796922479    0.643810555863428    0.3657968034911752    0.12217674720500946    0.06128464747269398    
  0.12217673097226397    0.19994037032674158    0.4518491540784435    0.6888404888671158    0.7096693394748869    
  0.6467676816019645    0.6189099826722836    0.6467676623400584    0.7096693072420627    0.6888405112474357    
  0.4518491097654278    0.19994036332290654    0.12217673097226397    0.36579677800977156    0.4518491307077115    
  0.6500367362684454    0.7781003853002468    0.7658035711816866    0.7096693486493973    0.6847838632386998    
  0.7096693647789538    0.7658036662193621    0.7781003975972305    0.6500366134543066    0.4518491495448274    
  0.36579677800977156    0.6438105974652059    0.6888406403454693    0.7781003106203556    0.8215955351361791    
  0.7781003634408471    0.688840536313938    0.6438105271050804    0.6888405413387803    0.7781003932620676    
  0.8215955100950033    0.7781003169901778    0.6888405164204812    0.6438105974652059    0.684783880129285    
  0.7096693953919591    0.7658036130817871    0.7781002060088084    0.6500366398974383    0.45184916746798    
  0.36579678784066444    0.4518491387875777    0.6500366387217763    0.7781002965332344    0.7658035193861197    
  0.7096693810775597    0.684783880129285    0.6189099350424442    0.6467676471297443    0.7096693810415128    
  0.6888405406779001    0.4518491192547431    0.19994035578157449    0.12217671851461921    0.19994036582286334    
  0.451849140499772    0.6888405557130621    0.7096692536776484    0.6467677127649077    0.6189099350424442    
  0.5888924546453655    0.6189099873764036    0.6847838482969326    0.6438105554635706    0.3657968241103978    
  0.12217673025643223    0.06128464034407716    0.12217672471123718    0.36579684269218954    0.6438105619748975    
  0.6847838812995354    0.618909995655235    0.5888924546453655    0.618909952770301    0.6467676621237168    
  0.7096693146645449    0.6888405110889172    0.4518491576928504    0.19994033489509447    0.12217671498735166    
  0.19994033061882802    0.45184920134885603    0.6888405238195773    0.7096693671748778    0.6467677164914053    
  0.618909952770301    0.6467676017822233    0.6719429228427958    0.7306344239348393    0.7255367210636914    
  0.5308598290320972    0.2874875782861374    0.19994034042380632    0.28748762346699724    0.5308598213750151    
  0.7255368018638741    0.7306343615629552    0.6719428820109205    0.6467676017822233    0.7096692659138545    
  0.7306344176931134    0.7790960539431205    0.7962723698092065    0.6994799462107075    0.5308598588002392    
  0.45184911521995513    0.5308598283091347    0.6994799488287957    0.7962723297744642    0.7790958896985803    
  0.7306344426802556    0.7096692659138545    0.6888405082332161    0.725536890302369    0.7962722738395211    
  0.8298139411691773    0.7962723271240812    0.7255368452468213    0.6888405481809978    0.7255368596817934    
  0.7962724259879385    0.8298140015373814    0.7962723926663405    0.7255368638314181    0.6888405082332161    
  0.4518491691861573    0.5308597869119615    0.6994798861225732    0.7962723936250797    0.7790959100751867    
  0.7306344088178721    0.7096693040479014    0.7306344346449402    0.779095920501302    0.7962723681326065    
  0.6994798383282516    0.5308597947713586    0.4518491691861573    0.1999403364395434    0.2874875896726066    
  0.5308598394013686    0.7255369435960318    0.7306344041827458    0.6719428230483774    0.6467676683066986    
  0.6719428508010441    0.7306344487628647    0.7255368951030133    0.5308597917075373    0.28748760329587286    
  0.1999403364395434    0.12217673149420111    0.19994036032093848    0.45184910182488586    0.6888405094194857    
  0.7096692912171219    0.6467677122513209    0.6189099443824937    0.6467676499429773    0.7096694202692538    
  0.6888404486501473    0.4518491544441152    0.1999403725377481    0.12217673149420111    0.1999403256869899    
  0.28748759892946807    0.530859796699116    0.7255367889688723    0.7306343885689954    0.6719429090547191    
  0.6467676991951018    0.671942814754918    0.7306344178963706    0.7255369344004263    0.5308597561972254    
  0.2874875950167009    0.1999403256869899    0.45184909338861357    0.5308598177309009    0.6994799415747549    
  0.796272317923967    0.7790959721709777    0.730634371179369    0.7096692527209605    0.7306343913166357    