#     DFTpy    
  CRYSTAL 
    
  PRIMVEC    
  2.599862068965517    0.0    0.0    
  0.0    2.599862068965517    0.0    
  0.0    0.0    2.599862068965517    
  PRIMCOORD    
  2    1    
  Si    0.0    0.0    0.0    
  Si    1.2999310344827588    1.2999310344827588    1.2999310344827588    
  BEGIN_BLOCK_DATAGRID_3D    
  3d_datagrid_density    
  BEGIN_DATAGRID_3D#0    
  13    13    13    
  0.0    0.0    0.0    
  2.599862068965517    0.0    0.0    
  0.0    2.599862068965517    0.0    
  0.0    0.0    2.599862068965517    
  0.054621534859407295    0.09464091645560968    0.24627737417594103    0.4347231619434911    0.47758754934040937    
  0.4284116749691594    0.4016082199164041    0.42841165381710056    0.47758752751806577    0.43472323896858867    
  0.2462773208714811    0.0946409310694015    0.054621534859407295    0.09464090810382428    0.1430428641803265    
  0.29922066754688115    0.46168874761049294    0.48324823904538    0.43072189887191514    0.4042842202429118    
  0.4307218420475686    0.48324827980744073    0.46168875369686846    0.2992206393598543    0.14304287592465897    
  0.09464090810382428    0.24627728803729088    0.2992206511593615    0.42519884228863075    0.5085021591210213    
  0.48759395220230506    0.43277405574525635    0.40876934903461    0.4327740538818622    0.4875939847049228    
  0.5085021755940958    0.4251988365384891    0.29922064104211643    0.24627728803729088    0.4347232304224426    
  0.4616887590787309    0.508502180924989    0.5141712332488279    0.47350847052195427    0.428566766288998    
  0.410580198149122    0.4285667791310245    0.4735084618996228    0.5141711611626831    0.5085021893157299    
  0.4616887260605594    0.4347232304224426    0.4775874382265909    0.48324821402512    0.48759399433886846    
  0.473508459712619    0.44500904358346244    0.4189904106629246    0.40876934847016294    0.4189903496061988    
  0.44500911713637153    0.47350843598516823    0.4875939877643277    0.4832482813725141    0.4775874382265909    
  0.42841157574579725    0.43072189430596647    0.4327740708237858    0.42856670486902376    0.41899031777692297    
  0.4088085740811879    0.4042842173377275    0.40880855214002904    0.4189904122475061    0.42856668651822377    
  0.4327740330079228    0.43072184228209376    0.42841157574579725    0.4016082006164332    0.40428428655508997    
  0.40876940935403816    0.4105802230467703    0.40876940401517564    0.40428433247622647    0.4016082100575999    
  0.4042843074778133    0.4087693478866578    0.41058024038981406    0.4087693598144884    0.404284313359744    
  0.4016082006164332    0.42841156717279555    0.43072185038824545    0.4327740402171005    0.4285666519267581    
  0.4189903478858939    0.408808572050157    0.40428425625323194    0.4088085763733356    0.41899036831353337    
  0.4285666691224213    0.43277407779044    0.4307218479146485    0.42841156717279555    0.47758745847035916    
  0.48324821318637656    0.4875940364902631    0.47350847717500316    0.44500909064495425    0.41899041464474135    
  0.40876929008554813    0.4189903558500587    0.44500914339160136    0.47350848223904124    0.4875939889275679    
  0.4832482983329228    0.47758745847035916    0.4347232053217673    0.461688772324283    0.5085022693715574    
  0.5141712313687349    0.47350850579917664    0.42856681584867945    0.41058019961142406    0.4285667295328936    
  0.4735084580123399    0.514171169905848    0.5085021907244401    0.4616887843034454    0.4347232053217673    
  0.2462772745750544    0.2992206318843807    0.42519886083181824    0.5085020779049502    0.4875938945822742    
  0.4327740787163021    0.4087693716662576    0.4327740060040343    0.4875940266852191    0.508502097503693    
  0.42519885918238076    0.2992206586589655    0.2462772745750544    0.09464089059127434    0.14304285889919055    
  0.2992206613590072    0.46168876082895427    0.4832482697779658    0.4307218604984759    0.4042842289256831    
  0.43072187916971205    0.4832483107553567    0.4616887310081055    0.2992206422169466    0.14304287280096292    
  0.09464089059127434    0.054621534859407295    0.09464091645560968    0.24627737417594103    0.4347231619434911    
  0.47758754934040937    0.4284116749691594    0.4016082199164041    0.42841165381710056    0.47758752751806577    
  0.43472323896858867    0.2462773208714811    0.0946409310694015    0.054621534859407295    0.09464091437790946    
  0.14304285963936733    0.2992207012777828    0.46168873631033114    0.4832482278144869    0.4307218930183444    
  0.4042842131690829    0.4307218405667302    0.48324822308764825    0.4616887316776233    0.2992206570111068    
  0.14304288674940172    0.09464091437790946    0.14304283480859958    0.19662402129439657    0.34944360178790285    
  0.48504173621075064    0.4889689214851878    0.4345473281466935    0.4088085278326287    0.43454732325401874    
  0.48896889429162677    0.48504178174696605    0.3494435804251674    0.19662403399265918    0.14304283480859958    
  0.299220602771123    0.3494435300896465    0.4609451804051919    0.5241446703155485    0.49539544111768    
  0.4417198244749859    0.41899027704650166    0.441719807894277    0.49539553079829507    0.5241446638939457    
  0.46094510808802314    0.3494435677299401    0.299220602771123    0.4616887644573298    0.48504179350119686    
  0.5241447959166518    0.5256308962938078    0.48662677721437353    0.44504771059783216    0.4285667049646509    
  0.44504771023475964    0.4866266850966755    0.5256308540611508    0.5241447265819533    0.48504180167153693    
  0.4616887644573298    0.483248212548168    0.4889689305251566    0.4953954277972814    0.4866266748863692    
  0.4639324338067175    0.4417198216542271    0.43277398506209014    0.44171979527566063    0.46393253116925603    
  0.48662665646734155    0.49539553395640445    0.48896894406184477    0.483248212548168    0.4307217996588915    
  0.4345473074218248    0.44171981259382603    0.44504761545489047    0.4417197360619864    0.4345473474330184    
  0.4307217926520499    0.4345473335973712    0.4417197953463538    0.44504766212134167    0.4417198078274069    
  0.4345473274425874    0.4307217996588915    0.4042842526672076    0.4088085537417094    0.41899039789503834    
  0.4285667545405942    0.4327740588674248    0.4307219430646291    0.42841159315563565    0.43072186305459476    
  0.43277401677858807    0.42856669713253426    0.4189903712946919    0.40880857607179405    0.4042842526672076    
  0.4307217655458723    0.4345473244311837    0.44171982063670945    0.44504761580805885    0.4417197389551625    
  0.4345473465426055    0.43072181453512154    0.4345473056451201    0.44171981770101204    0.4450476273381237    
  0.4417197771290938    0.4345473056828702    0.4307217655458723    0.48324825402371546    0.48896887326504546    
  0.49539551148490374    0.4866266145619773    0.4639324641879639    0.44171980797512533    0.4327739843198638    
  0.4417197689922291    0.4639325717150047    0.48662661069027835    0.49539555280981107    0.48896894394709406    
  0.48324825402371546    0.461688712625283    0.4850418457148504    0.5241447713056617    0.5256309141929627    
  0.48662669235463646    0.44504774448414886    0.4285666750265177    0.4450476745574447    0.4866266443506984    
  0.5256308773658335    0.5241447344030729    0.48504185406169    0.461688712625283    0.29922062590413157    
  0.3494435086683785    0.4609451237317632    0.5241446582131066    0.49539539721586245    0.44171983427427586    
  0.4189903303662135    0.4417197638985037    0.49539554720418383    0.5241447311765617    0.46094518372911136    
  0.34944354420079    0.29922062590413157    0.14304282220070375    0.19662400546190606    0.3494435653032916    
  0.48504182438788024    0.4889689239496394    0.4345473994553346    0.40880852057813344    0.4345473466876989    
  0.4889689281485357    0.48504180914200784    0.3494435731898966    0.19662403865852565    0.14304282220070375    
  0.09464091437790946    0.14304285963936733    0.2992207012777828    0.46168873631033114    0.4832482278144869    
  0.4307218930183444    0.4042842131690829    0.4307218405667302    0.48324822308764825    0.4616887316776233    
  0.2992206570111068    0.14304288674940172    0.09464091437790946    0.24627727482576653    0.2992206481762797    
  0.425198900711315    0.5085021040352038    0.48759396026277296    0.43277405023525267    0.40876928247291805    
  0.4327740418176724    0.48759393289702596    0.5085021521436008    0.42519884902947097    0.2992206554209284    
  0.24627727482576653    0.2992206009165405    0.34944352591788697    0.46094523290704154    0.5241446015197408    
  0.4953954761758238    0.4417198145588702    0.4189902939700246    0.441719777010376    0.4953954750616134    
  0.5241447088245659    0.4609451578844282    0.349443574400612    0.2992206009165405    0.4251987943724596    
  0.4609451338950234    0.5285837695461085    0.5497104647126325    0.511176011786704    0.4639325290181033    
  0.44500901809626314    0.46393248040266244    0.5111761410570305    0.5497105295608115    0.5285837647227649    
  0.46094507113254    0.4251987943724596    0.5085022113639875    0.5241447028457532    0.5497106392260559    
  0.5490164278501354    0.5191380721950404    0.4866267388439394    0.4735084069779333    0.4866266760288734    
  0.5191380005387568    0.5490163474403321    0.5497105929339141    0.5241447078059513    0.5085022113639875    
  0.48759395886662654    0.49539542817002014    0.5111759859376146    0.5191379339807135    0.5111760319291888    
  0.49539551487008643    0.48759394511750886    0.4953954397887573    0.511176097164965    0.5191379697194572    
  0.5111761004999433    0.4953954901535591    0.48759395886662654    0.4327739714402358    0.4417198162257865    
  0.46393255373196285    0.48662666912617797    0.4953954245108915    0.48896896207024154    0.48324818394866786    
  0.48896895568447923    0.495395532345039    0.48662665649085013    0.46393248979911494    0.4417197882580163    
  0.4327739714402358    0.40876931421152896    0.41899036232941406    0.445009181833256    0.47350847235039994    
  0.48759400383393603    0.4832483081704466    0.47758744908665324    0.48324828676787385    0.48759398503554324    
  0.473508405432585    0.4450090959566971    0.4189903702021324    0.40876931421152896    0.43277399045521947    
  0.4417197562073051    0.4639325439031021    0.48662662975499094    0.4953954132741693    0.48896894180596295    
  0.48324822775657295    0.4889689397613078    0.4953955049260094    0.48662663239954645    0.4639325457425769    
  0.4417198026841744    0.43277399045521947    0.48759395936253064    0.4953954258111254    0.5111760915323723    
  0.5191379759527588    0.511175983541597    0.4953955390321038    0.4875939203927278    0.49539552100837264    
  0.5111761191145596    0.5191379911254309    0.51117610748666    0.49539551751467226    0.48759395936253064    
  0.5085021231114961    0.5241447506361051    0.5497105891345572    0.5490164185319121    0.5191380160198156    
  0.48662674591134203    0.47350841735067256    0.48662669251847956    0.5191379329261097    0.5490163745034509    
  0.5497105166858351    0.5241447031101892    0.5085021231114961    0.42519879925068044    0.4609451371752616    
  0.5285837472806483    0.5497104602717579    0.5111759538783042    0.46393256287982754    0.4450090313704765    
  0.4639325464359963    0.5111761043824623    0.549710525596378    0.5285837521030023    0.46094509560562724    
  0.42519879925068044    0.29922059016692765    0.3494435220726689    0.46094514185065766    0.5241446747973822    
  0.495395492539992    0.44171979021844865    0.4189902968121251    0.44171978646185    0.4953954982554124    
  0.5241446598990791    0.46094511017191414    0.3494435415237151    0.29922059016692765    0.24627727482576653    
  0.2992206481762797    0.425198900711315    0.5085021040352038    0.48759396026277296    0.43277405023525267    
  0.40876928247291805    0.4327740418176724    0.48759393289702596    0.5085021521436008    0.42519884902947097    
  0.2992206554209284    0.24627727482576653    0.4347232146697967    0.46168876531103    0.5085022715802127    
  0.5141711692923355    0.47350853824068656    0.42856676948200806    0.41058022999196886    0.4285667874423361    
  0.4735084900848704    0.5141712002143006    0.5085022050899656    0.4616887875976324    0.4347232146697967    
  0.46168870388110067    0.48504181101896426    0.5241447270604151    0.5256308647207555    0.4866266892114998    
  0.4450477185324946    0.4285666915129652    0.4450476857558957    0.48662672439554533    0.5256309352839481    
  0.5241447045233512    0.48504181001357666    0.46168870388110067    0.5085021266293983    0.5241447144766288    
  0.5497105764798536    0.5490164403585317    0.5191379700533121    0.48662672494191056    0.47350841191491355    
  0.48662666421976625    0.5191380315351712    0.5490164206082425    0.5497105542407439    0.5241447257821998    
  0.5085021266293983    0.5141711951060838    0.5256309235865173    0.5490164777237287    0.5609490246048816    
  0.549016491282598    0.5256309479286579    0.5141711692673748    0.5256309528817471    0.5490164533901474    
  0.560948976054562    0.5490165098163349    0.5256308572469486    0.5141711951060838    0.47350842486082406    
  0.48662666436272284    0.5191380006871915    0.5490163979299916    0.5497105053542926    0.5241447786442178    
  0.5085021713346777    0.5241447196132417    0.5497105600306971    0.5490164265347517    0.5191380571801378    
  0.4866266994231609    0.47350842486082406    0.4285666811823753    0.44504769504004327    0.4866267572129971    
  0.5256309097263749    0.5241446967750693    0.4850418444877139    0.46168869872621504    0.48504181806098773    
  0.5241447678435415    0.5256308965415242    0.4866267012711469    0.44504771225053463    0.4285666811823753    
  0.410580230093206    0.42856673921238053    0.4735085452216013    0.5141711631627093    0.508502203927306    
  0.46168882781245824    0.43472318074407423    0.461688804541958    0.5085021752126144    0.5141711475007646    
  0.47350850026787245    0.42856673925324057    0.410580230093206    0.4285666245410011    0.4450476737968068    
  0.4866266905216909    0.5256308718041671    0.5241447222653977    0.48504187751658034    0.46168872570766767    
  0.48504181300968763    0.5241447208568457    0.5256308313584818    0.48662670677113434    0.44504771143140076    
  0.4285666245410011    0.4735084399306487    0.48662664988538523    0.519138068258233    0.5490164280243925    
  0.5497105578644685    0.5241447706478402    0.5085020915539923    0.524144696944676    0.5497106198199873    
  0.5490164400689995    0.519138006615335    0.4866266896846871    0.4735084399306487    0.5141712112205935    
  0.5256309583971419    0.5490165591603609    0.5609490351211973    0.5490164805701884    0.5256309508647028    
  0.5141711608003406    0.5256308878837823    0.5490164563947155    0.560948959177368    0.5490165008811797    
  0.5256309605648282    0.5141712112205935    0.5085021574203333    0.5241446731758345    0.5497106217272588    
  0.5490163373514064    0.5191379405561134    0.48662673297683673    0.4735085159165804    0.4866266844801264    
  0.5191381059919447    0.5490163344294903    0.5497106179731016    0.5241447212419649    0.5085021574203333    
  0.46168868725386025    0.48504182299645643    0.5241447133181659    0.5256308916519554    0.4866266728671732    
  0.44504772614747556    0.42856666161422496    0.4450476957677997    0.4866267169065946    0.5256308878963384    
  0.5241446620176695    0.4850418453030914    0.46168868725386025    0.4347232146697967    0.46168876531103    
  0.5085022715802127    0.5141711692923355    0.47350853824068656    0.42856676948200806    0.41058022999196886    
  0.4285667874423361    0.4735084900848704    0.5141712002143006    0.5085022050899656    0.4616887875976324    
  0.4347232146697967    0.47758745528501745    0.4832482292317912    0.4875940550524856    0.4735084544313523    
  0.4450090716699471    0.41899036969817693    0.40876928769933174    0.41899037699842634    0.4450090940761147    
  0.47350848234649656    0.4875939793040552    0.4832482614319535    0.47758745528501745    0.48324818600462854    
  0.48896892069580167    0.4953955361757297    0.48662660109403577    0.4639325199068384    0.44171979724899707    
  0.4327739683690081    0.44171974430912203    0.4639325054075917    0.4866266501277238    0.49539551263589915    
  0.4889689515549058    0.48324818600462854    0.4875939309359655    0.4953954331169263    0.5111760773016085    
  0.5191379679736184    0.5111760108620416    0.49539550271724186    0.4875939096693708    0.49539544617829073    
  0.5111761543067005    0.5191380098562323    0.5111760342761668    0.495395478187138    0.4875939309359655    
  0.4735084973391786    0.48662665009607614    0.5191381040070042    0.5490163845889332    0.5497106422097373    
  0.5241447452612862    0.5085021300972845    0.5241447566606828    0.5497105722648271    0.5490163339569517    
  0.5191380389512296    0.48662662678167923    0.4735084973391786    0.4450090734923097    0.4639324986427145    
  0.5111760371458649    0.549710525060795    0.5285836427474256    0.46094514593101255    0.42519883316458884    
  0.46094513073878746    0.5285837868621678    0.5497104966768449    0.5111761107606223    0.4639325234813339    
  0.4450090734923097    0.4189902907213208    0.44171977596730405    0.4953954570447778    0.5241447165739257    
  0.46094502621308664    0.3494435606504827    0.2992206025834523    0.34944355557652873    0.4609451693531438    
  0.5241447139276062    0.495395499232723    0.4417197885101265    0.4189902907213208    0.40876932907296193    
  0.43277404722170454    0.48759402031077703    0.5085021487541495    0.4251988733262565    0.2992207047511283    
  0.24627726922258936    0.29922068903597465    0.42519881790724323    0.5085021352289296    0.4875940072842968    
  0.4327740606249636    0.40876932907296193    0.4189903180617344    0.44171977516192346    0.4953954774896202    
  0.5241446178764428    0.4609450843969594    0.3494435631361845    0.29922062849381614    0.3494435360772744    
  0.4609451280675547    0.5241446283050745    0.49539546951242214    0.4417197896669768    0.4189903180617344    
  0.4450090577295183    0.46393250793942975    0.5111761077189152    0.5497105594000826    0.5285836710976307    
  0.4609451357372189    0.4251987605265717    0.46094511614809314    0.5285837928646728    0.5497104780736717    
  0.5111761105397471    0.4639325592418117    0.4450090577295183    0.47350844149294746    0.4866267022693559    
  0.519138113461477    0.5490164637166133    0.5497105422002591    0.5241447734767543    0.5085021325188208    
  0.5241446933186259    0.5497104975791592    0.549016426146547    0.519138024301976    0.4866266854667344    
  0.47350844149294746    0.48759396151029755    0.49539546397629625    0.5111760758771298    0.5191379359075567    
  0.511175955958531    0.4953955205865565    0.48759396549290834    0.4953954622437367    0.5111760881870965    
  0.5191380092208462    0.5111761122480111    0.4953954867584909    0.48759396151029755    0.48324814510988967    
  0.4889688976452906    0.4953954660819984    0.48662671202390784    0.4639325584390884    0.44171982050132325    
  0.4327739867276023    0.44171979855313526    0.4639325212017303    0.4866266660007536    0.49539548803639605    
  0.4889689529532528    0.48324814510988967    0.47758745528501745    0.4832482292317912    0.4875940550524856    
  0.4735084544313523    0.4450090716699471    0.41899036969817693    0.40876928769933174    0.41899037699842634    
  0.4450090940761147    0.47350848234649656    0.4875939793040552    0.4832482614319535    0.47758745528501745    
  0.4284115806048501    0.43072185714204597    0.4327740731022868    0.4285667002959452    0.41899038082855067    
  0.408808594256624    0.4042842102035561    0.4088086120549864    0.4189903219706332    0.4285666667149183    
  0.4327740388901548    0.4307218633786159    0.4284115806048501    0.43072179050682174    0.43454733809103807    
  0.44171986303018645    0.44504757960537084    0.44171981570412194    0.43454732318235617    0.4307218325559953    
  0.43454729178506535    0.4417197984898389    0.44504766031191284    0.44171980802835553    0.4345473423512948    
  0.43072179050682174    0.4327739458303158    0.44171979434935027    0.46393256939874683    0.4866266368683642    
  0.4953954246968502    0.48896895616017294    0.48324815998787474    0.4889689443069787    0.49539556236751353    
  0.48662671729463636    0.4639325494620005    0.4417197725693016    0.4327739458303158    0.4285667835227002    
  0.44504768489013713    0.48662671177593664    0.5256308757268323    0.5241447461067009    0.4850418772678777    
  0.4616886828073182    0.4850418056143138    0.5241447146051611    0.5256308043449605    0.48662667044524366    
  0.44504769537416683    0.4285667835227002    0.41899031337121967    0.44171978735554923    0.4953954298304881    
  0.5241446556755814    0.4609450560231215    0.349443582977705    0.2992206389738608    0.3494435097059735    
  0.46094514655392005    0.5241446883183465    0.49539553688684873    0.4417197714118547    0.41899031337121967    
  0.4088085224959589    0.43454731000800917    0.4889689560353434    0.4850418042972376    0.34944349704948224    
  0.19662404841938116    0.14304282263144266    0.196624044204071    0.34944355886269585    0.4850418053406544    
  0.48896891615126004    0.43454732886029257    0.4088085224959589    0.4042842663670123    0.4307218539012479    
  0.4832483289361593    0.461688752727264    0.2992206582736286    0.14304289199829356    0.09464090512665041    
  0.14304286652199022    0.2992206415217868    0.46168873792636933    0.4832482389996594    0.4307218617458891    
  0.4042842663670123    0.40880847465711956    0.4345473208039124    0.4889689681827345    0.4850417233260744    
  0.34944353794468774    0.19662403924060717    0.14304284110606566    0.19662402536236748    0.34944357683054367    
  0.4850417845852181    0.4889689568277816    0.4345473782240352    0.40880847465711956    0.4189903164830625    
  0.4417197394311369    0.4953954989140641    0.5241446476546826    0.46094513491608513    0.34944359439684153    
  0.29922059417779556    0.34944357039523616    0.4609451559769715    0.5241446802436243    0.4953955199983791    
  0.44171982070191357    0.4189903164830625    0.4285666864276229    0.44504769009351963    0.48662671871310187    
  0.525630914967434    0.5241447608566406    0.48504191960898535    0.4616886624090407    0.4850418422967887    
  0.5241446830332495    0.5256308449462935    0.48662666432447904    0.44504765202466323    0.4285666864276229    
  0.4327739829351993    0.4417197585344367    0.46393255612270207    0.48662657391573805    0.49539542700321176    
  0.4889689910454334    0.48324816273346527    0.4889689303745165    0.49539548447799847    0.48662660942225505    
  0.46393253849012295    0.4417197717621672    0.4327739829351993    0.430721750846366    0.43454734091162167    
  0.44171978854205546    0.44504767788181865    0.4417197842728578    0.43454732918786854    0.4307217856517728    
  0.4345473065839198    0.44171981653767833    0.44504769555431    0.4417197964688376    0.4345473379782586    
  0.430721750846366    0.4284115806048501    0.43072185714204597    0.4327740731022868    0.4285667002959452    
  0.41899038082855067    0.408808594256624    0.4042842102035561    0.4088086120549864    0.4189903219706332    
  0.4285666667149183    0.4327740388901548    0.4307218633786159    0.4284115806048501    0.4016082268587462    
  0.40428426616378027    0.4087694524483649    0.41058017568158933    0.40876939449043864    0.40428431179279234    
  0.40160821870427543    0.4042843011169676    0.4087693735238975    0.41058025949617294    0.40876937416160225    
  0.40428427952084967    0.4016082268587462    0.40428422378825124    0.4088085660263871    0.4189903764245465    
  0.4285667148911261    0.4327740096601323    0.43072191358197687    0.42841158557437253    0.4307218348689196    
  0.432774034754681    0.42856672714200716    0.4189903575033252    0.40880857343378063    0.40428422378825124    
  0.4087693262891559    0.41899037021536195    0.44500911327050474    0.4735084376282304    0.4875939526193239    
  0.4832482824157517    0.4775875032696217    0.48324828396463526    0.48759399791390706    0.47350846646521366    
  0.4450091306361871    0.41899033158212534    0.4087693262891559    0.4105802489179983    0.428566740557895    
  0.4735084874381117    0.5141712282241536    0.5085021922733862    0.4616887969687461    0.4347231804363282    
  0.4616888093407026    0.5085021543333985    0.5141711525349287    0.47350849268633805    0.42856669211384657    
  0.4105802489179983    0.4087692904856723    0.4327739949471548    0.48759398527450865    0.508502174999537    
  0.42519877740505624    0.29922068853519157    0.24627729801681883    0.2992206349808097    0.42519885498977206    
  0.5085021555694232    0.48759398522466746    0.43277403858114083    0.4087692904856723    0.40428422053753543    
  0.43072189478336204    0.4832482948183586    0.4616887229144397    0.2992206154028405    0.1430428765215496    
  0.09464090266774258    0.14304286309302605    0.29922069786829236    0.46168872578488696    0.4832482606811162    
  0.43072182611647436    0.40428422053753543    0.40160819809146886    0.42841166587662916    0.47758757015242304    
  0.4347232172992942    0.24627734051038452    0.09464094940597728    0.05462152889015639    0.09464093320267566    
  0.2462772998893879    0.4347232308371941    0.47758750960956425    0.42841167444097866    0.40160819809146886    
  0.4042842123290132    0.4307218433773137    0.4832482659491329    0.461688682376735    0.29922063551176936    
  0.1430428760380676    0.09464092172821063    0.14304286827936333    0.2992206507555991    0.4616887023185074    
  0.48324829581234535    0.4307218525612451    0.4042842123290132    0.4087693032106373    0.43277399437965813    
  0.48759404667187545    0.5085021872157286    0.4251988128255539    0.2992206935491591    0.24627725279564391    
  0.2992206460330966    0.42519886668008466    0.5085021689527454    0.4875939895892618    0.4327740605437091    
  0.4087693032106373    0.4105802276774808    0.42856673252895733    0.4735085454971988    0.5141712360516384    
  0.5085022178936308    0.4616888336983533    0.43472318212532307    0.46168876036701356    0.50850215716386    
  0.5141711725966641    0.47350847995322276    0.428566756886121    0.4105802276774808    0.40876931270475103    
  0.4189903372891948    0.4450091470183214    0.47350839470856626    0.48759390009481346    0.48324831861536827    
  0.4775875196436171    0.4832482225790554    0.4875940384301818    0.473508411130104    0.4450091224698421    
  0.41899036934377515    0.40876931270475103    0.4042841840488019    0.40880856368801494    0.41899038133016087    
  0.42856673755704944    0.432774041058586    0.43072185274864105    0.42841158733413914    0.43072189463520766    
  0.43277408896598385    0.42856670368378125    0.4189903545842851    0.40880858094173894    0.4042841840488019    
  0.4016082268587462    0.40428426616378027    0.4087694524483649    0.41058017568158933    0.40876939449043864    
  0.40428431179279234    0.40160821870427543    0.4042843011169676    0.4087693735238975    0.41058025949617294    
  0.40876937416160225    0.40428427952084967    0.4016082268587462    0.42841159328201195    0.43072181953885724    
  0.43277408186098254    0.4285667054582841    0.41899034572035465    0.4088086062815228    0.40428422499368144    
  0.40880856813090366    0.4189903280769805    0.42856670497994537    0.43277403178995044    0.43072186716359867    
  0.42841159328201195    0.43072179461656324    0.43454732046895467    0.4417198497937142    0.4450475978300616    
  0.44171977000883633    0.43454732797695245    0.43072181175390956    0.4345473235818786    0.44171973404336096    
  0.4450476554696613    0.4417198394312738    0.43454732900277737    0.43072179461656324    0.4327739564495643    
  0.4417197730505166    0.46393258678170873    0.486626642964875    0.4953954390668019    0.4889689658040619    
  0.48324817722901925    0.4889689592286401    0.4953955307342228    0.4866266521315845    0.463932500846494    
  0.44171979639138376    0.4327739564495643    0.4285667438201909    0.4450476716637268    0.4866267604349225    
  0.5256309041635849    0.5241448129871084    0.48504185586405174    0.46168871943636486    0.48504185998686683    
  0.5241447333710952    0.5256308504705788    0.48662669976193595    0.4450476609740971    0.4285667438201909    
  0.41899032146895543    0.4417197808801256    0.4953954217653574    0.5241446957823038    0.4609450492016423    
  0.3494435740564637    0.29922063234783286    0.3494435539096074    0.46094514549068233    0.5241447037481439    
  0.4953955344959723    0.4417197847395291    0.41899032146895543    0.40880852873761375    0.4345473202365384    
  0.48896895339834845    0.4850417724687891    0.3494435032882513    0.19662403516541208    0.14304284006176024    
  0.1966240355338224    0.34944356141542726    0.485041798500167    0.48896895469762713    0.43454734155933783    
  0.40880852873761375    0.40428424661990037    0.4307218462522529    0.48324829191804647    0.46168876866598996    
  0.2992206752269544    0.14304291130286625    0.09464090984367945    0.14304287934199034    0.29922063354863815    
  0.46168872459893284    0.48324825480726175    0.4307218411719408    0.40428424661990037    0.4088084963926488    
  0.43454733439697596    0.48896897344315216    0.48504175234005914    0.3494435089598384    0.19662404013708373    
  0.14304285130562572    0.19662401189892242    0.34944357827099487    0.4850417655876464    0.48896892033619255    