#     DFTpy    
  CRYSTAL 
    
  PRIMVEC    
  1.611795621327043    -2.7917119075554844    0.0    
  1.611795621327043    2.7917119075554844    0.0    
  0.0    0.0    5.328137131162299    
  PRIMCOORD    
  4    1    
  Si    1.6117956213270432    0.930570635851828    0.3357232565659698    
  Si    1.6117956213270432    -0.9305706358518285    2.999791822147119    
  Si    1.6117956213270432    0.9305706358518283    2.3283453090151793    
  Si    1.6117956213270432    -0.9305706358518283    4.992413874596329    
  BEGIN_BLOCK_DATAGRID_3D    
  3d_datagrid_density    
  BEGIN_DATAGRID_3D#0    
  15    15    23    
  0.0    0.0    0.0    
  1.611795621327043    -2.7917119075554844    0.0    
  1.611795621327043    2.7917119075554844    0.0    
  0.0    0.0    5.328137131162299    
  0.13624376283721276    0.15005730781289445    0.19582292019547062    0.28475707844396836    0.42573302503131216    
  0.6025496126736855    0.7552593513350441    0.8148956459691032    0.7552593120365411    0.6025497814878806    
  0.42573296567116936    0.28475701549093224    0.19582288754645927    0.15005729329427692    0.13624376283721276    
  0.1500573488898621    0.15005179866490032    0.17978032785213127    0.24657143629497366    0.3592265487871915    
  0.5097007735428831    0.6526399529053768    0.7327346385303112    0.7328042166621059    0.6526160579338561    
  0.509662122973667    0.3592580343481843    0.24657985456150178    0.17976692619461843    0.1500573488898621    
  0.1958229031489495    0.17978029295392478    0.19581369499744752    0.24657190704284257    0.33558394326005014    
  0.4485409228045303    0.5317676456917444    0.5464248610825462    0.5373399251481696    0.5464189876654278    
  0.531845806459142    0.4485395953418944    0.3355445232341378    0.24657976247484395    0.1958229031489495    
  0.2847571012431515    0.24657136596133164    0.24657188711037636    0.28477481272773114    0.3592137882734849    
  0.44852871686967616    0.4810077992519135    0.4063959576141082    0.3190229483420648    0.3190068167029367    
  0.4063581737407882    0.4809902329353143    0.4485396342744414    0.3592580319908815    0.2847571012431515    
  0.42573300828549376    0.35922654393215364    0.3355839877426288    0.3592138007527511    0.42577971213936144    
  0.5096553095164368    0.5318197663343648    0.40638530153562713    0.23907027525474722    0.17644363972687346    
  0.23910972061531732    0.4063581551294786    0.531845774187689    0.5096619948672306    0.42573300828549376    
  0.602549738455199    0.5097007614171071    0.44854087917794977    0.4485287289107276    0.5096552066681626    
  0.6025443745467554    0.6526482754188769    0.5464098051146209    0.3190232289193408    0.17645701394601396    
  0.17644370755664524    0.31900686079769863    0.5464190644521258    0.6526160472675161    0.602549738455199    
  0.7552594010036907    0.6526400533759991    0.5317676053565785    0.48100789645191705    0.5318198404176706    
  0.6526482881728909    0.7552154311249653    0.7328206564885559    0.5373244599662772    0.31902322378729386    
  0.23907031049639796    0.31902294571902906    0.5373399250362199    0.7328041877565548    0.7552594010036907    
  0.8148956024486731    0.7327345401635996    0.546424713659862    0.40639589070302407    0.4063851964564295    
  0.5464098025069001    0.7328206316614675    0.8148191300260867    0.7328206473198446    0.5464098292176738    
  0.40638519195082873    0.4063958696239441    0.5464247000359574    0.7327345622990928    0.8148956024486731    
  0.7552593920591596    0.7328042297030416    0.5373398458505406    0.31902304398935605    0.23907025629838247    
  0.31902330432193465    0.5373244154350081    0.7328206173013362    0.7552154859469171    0.6526482416788316    
  0.5318199308323653    0.48100790346518035    0.5317676592994985    0.6526400543750488    0.7552593920591596    
  0.6025497768958571    0.6526160820379283    0.5464190617267266    0.3190068826123413    0.17644362711291736    
  0.17645701564749625    0.31902320605339457    0.5464097889927242    0.6526481937446563    0.6025442861476146    
  0.5096552972724037    0.4485286459835312    0.44854096786332    0.509700742415833    0.6025497768958571    
  0.4257330125083144    0.5096620801953723    0.5318456977445806    0.40635819607794627    0.23910969767312046    
  0.1764436358360913    0.23907019983365296    0.40638529453613453    0.5318198806223327    0.5096552723584694    
  0.42577980206456356    0.3592137457513998    0.3355839953541831    0.3592265469112232    0.4257330125083144    
  0.2847570881336768    0.35925797724050074    0.4485396313853738    0.4809902423095889    0.40635818341706864    
  0.31900685012431407    0.3190228983154086    0.40639595378036303    0.4810078565923449    0.4485286789854865    
  0.359213754054925    0.2847747520005667    0.2465718935383546    0.24657132873306484    0.2847570881336768    
  0.19582293792545116    0.24657978771134734    0.33554446876983535    0.44853965945223734    0.5318457931147886    
  0.5464190084147176    0.5373399473203025    0.54642486665906    0.5317675819996028    0.448540918865741    
  0.335584069356707    0.24657190531549547    0.19581375338843746    0.1797803040264936    0.19582293792545116    
  0.15005735924370925    0.179766943638176    0.24657978139138537    0.35925803298537556    0.5096620928589282    
  0.652616192841889    0.7328042153398056    0.7327345609024627    0.6526399436781647    0.5097007137460371    
  0.3592265994509276    0.2465713964381598    0.17978032038184488    0.1500517927668222    0.15005735924370925    
  0.13624376283721276    0.15005730781289445    0.19582292019547062    0.28475707844396836    0.42573302503131216    
  0.6025496126736855    0.7552593513350441    0.8148956459691032    0.7552593120365411    0.6025497814878806    
  0.42573296567116936    0.28475701549093224    0.19582288754645927    0.15005729329427692    0.13624376283721276    
  0.1342060868345697    0.14691330306803288    0.18892307974548156    0.2703040587135572    0.3982683292094773    
  0.55715614141903    0.6936166140238113    0.7469190733232843    0.69365277584581    0.557172982237012    
  0.39825374586430023    0.27029778280310107    0.1889373011047071    0.14691042568521015    0.1342060868345697    
  0.14691045894612553    0.14690327489421331    0.17277554135369858    0.23059949672647745    0.32886696302275736    
  0.46493713984326585    0.6060955843040415    0.696015133114215    0.6960399581636358    0.6060639098261559    
  0.4649116313093983    0.3288989381192334    0.23060220498824596    0.17275619975192705    0.14691045894612553    
  0.1889373186468529    0.17566336055592538    0.1889224466974884    0.2305912634055021    0.30482610946780897    
  0.40783578509687357    0.5119049073689641    0.5785438459251077    0.598251223324102    0.5785350623917104    
  0.5119625415183525    0.4078350925869247    0.3047922025581198    0.23060213739947313    0.1889373186468529    
  0.27029783515766287    0.24036400773885408    0.2403811857462537    0.27031324491630226    0.3288644920445766    
  0.4078242765591376    0.4745728126594975    0.48887345900226603    0.4691278592478605    0.4691244588309149    
  0.4888624022130566    0.4745383964527891    0.407835132209443    0.3288989412081139    0.27029783515766287    
  0.3982538415171937    0.34784171986466966    0.32932996366018746    0.3478194134837324    0.3982923987228802    
  0.4649208504449387    0.5119170316270131    0.488879189739658    0.41263914302234206    0.3726429753014591    
  0.4126530719216901    0.4888624157559721    0.5119625541694428    0.4649115115470782    0.3982538415171937    
  0.5571730060976108    0.4838064017654124    0.43203980680443305    0.43203570300011046    0.4837676216122079    
  0.5571531724389398    0.6061114785914807    0.5785369327766486    0.4691240093835701    0.37264952199737567    
  0.37264308281668757    0.46912453123100695    0.578535142391006    0.6060639215312835    0.5571730060976108    
  0.6936529023624166    0.5984474475366923    0.4785688539050665    0.4262891978681141    0.4786104912086568    
  0.5984640652129316    0.6935989303336557    0.6960460709915015    0.5982523159410281    0.46912396388562105    
  0.4126391848269065    0.4691279029228832    0.5982512124333501    0.6960399787175857    0.6936529023624166    
  0.7469189737777172    0.6519741034421225    0.4448712985071604    0.297192793544418    0.2971923998217515    
  0.44485622278457426    0.6520625333711209    0.7468633879040011    0.6960460030671466    0.5785370252187881    
  0.4888791263260517    0.48887336919655144    0.5785437592308743    0.6960150510325952    0.7469189737777172    
  0.6936166113634703    0.6520381337219019    0.41543863997880653    0.19065235178459755    0.12189729852003235    
  0.19065874128224702    0.41542004357129525    0.6520625167915484    0.6935989474117857    0.6061114612884076    
  0.5119171976013027    0.47457300520010803    0.5119048810597456    0.6060956145001951    0.6936166113634703    
  0.5571562765616248    0.5984592919733879    0.4448753738512275    0.19063250350398958    0.07197659897758356    
  0.07196915321684569    0.1906587180081466    0.44485615136628154    0.5984640168652166    0.5571531481363388    
  0.4649208594524742    0.4078242694355488    0.4078357727151233    0.46493703926032026    0.5571562765616248    
  0.3982683583481555    0.4837820071902613    0.47860103057382053    0.2971810354623504    0.12191269542039235    
  0.07197660014886142    0.12189726831537395    0.2971924950551012    0.47861047739003465    0.48376768716332363    
  0.3982924801982243    0.32886451246357973    0.30482616087171255    0.3288669271296981    0.3982683583481555    
  0.27030404193409346    0.34783825026556525    0.43206686077752726    0.42626559015606075    0.2971810194616441    
  0.19063245461776557    0.19065225775683697    0.2971928464762747    0.4262891158560616    0.4320356010612607    
  0.3478193799184751    0.2703132134693785    0.23059123053957792    0.2305993812263333    0.27030404193409346    
  0.18892310693499131    0.24039045363592385    0.32929012162433297    0.43206685196595485    0.4786011056183715    
  0.44487528396639286    0.4154385847750315    0.4448714026153992    0.478568863565902    0.43203985378781096    
  0.32933000690672115    0.2403811879976332    0.1889224854682952    0.1727755059666097    0.18892310693499131    
  0.1469133419605026    0.1756485570574628    0.2403904279815175    0.3478382716217403    0.48378197891031266    
  0.59845933791475    0.6520381969569857    0.6519741179843922    0.5984473992917994    0.4838063882295835    
  0.3478417568745685    0.2403640326982582    0.17566335618673967    0.14690327197378863    0.1469133419605026    
  0.1342060868345697    0.14691330306803288    0.18892307974548156    0.2703040587135572    0.3982683292094773    
  0.55715614141903    0.6936166140238113    0.7469190733232843    0.69365277584581    0.557172982237012    
  0.39825374586430023    0.27029778280310107    0.1889373011047071    0.14691042568521015    0.1342060868345697    
  0.1284653897082402    0.13856873107221124    0.17178406875398858    0.23539283523145335    0.3338424688286518    
  0.45432431527520184    0.5573149623741409    0.5976846143482422    0.5573667829775727    0.45433993378609216    
  0.3338122044282493    0.23539008187097504    0.17179873854973104    0.13856607438144683    0.1284653897082402    
  0.13856609896553038    0.13856269311553124    0.15746831166316144    0.19957919899804222    0.27078490340168027    
  0.3699306992099499    0.47574855492992135    0.5461508244334419    0.5461514456086942    0.47571244645013006    
  0.3699199169774951    0.2708192395240019    0.1995758580416182    0.15745384794100875    0.13856609896553038    
  0.1717987804948517    0.16294484621017252    0.17178482025185532    0.19956705425706248    0.2495275993845221    
  0.32180570668435726    0.4046084571749508    0.471981775587516    0.4977097562697299    0.47197453586406846    
  0.40464820833577353    0.32180528004964526    0.24949608599756348    0.19957581346754025    0.1717987804948517    
  0.23539015315941916    0.2173547058149485    0.21737329585064766    0.2354011760326313    0.2707864476120955    
  0.3217995259939143    0.37860129983810986    0.4230126645535188    0.44407018337904014    0.44407833939535224    
  0.4230190786116225    0.37856423021737023    0.3218052543673404    0.27081923320765366    0.23539015315941916    
  0.3338122312235393    0.30680610056555296    0.2965237909856492    0.30678725023327724    0.3338489679757938    
  0.3699286904416815    0.4046025818371395    0.4230268371421305    0.420634507340557    0.4152992557871011    
  0.42062379681388207    0.4230190807376453    0.4046481878249832    0.36991985903270486    0.3338122312235393    
  0.4543400069004591    0.4183488517971498    0.38934466739759815    0.389342512529192    0.4183087051212557    
  0.454325977130075    0.4757594662372074    0.4719761468771765    0.4440677210918399    0.41529704023101033    
  0.4152993670398646    0.44407846102851084    0.4719746255805639    0.47571239375619845    0.4543400069004591    
  0.5573668489211568    0.5108938992275947    0.4343323430414636    0.39751544550779555    0.43437939250107827    
  0.5109027753572921    0.5573158096187242    0.5461558172571152    0.4977175462857721    0.4440677238652784    
  0.4206345663708412    0.4440702031140328    0.49770973118721984    0.5461514181948873    0.5573668489211568    
  0.5976845263441978    0.5535690451790247    0.40791517065517896    0.29078528870828024    0.290774353560102    
  0.40790487770163175    0.5536489231032329    0.5976461432370487    0.5461557441146223    0.471976176985322    
  0.4230268196023333    0.4230126324593682    0.4719816950932545    0.5461508035137281    0.5976845263441978    
  0.5573150430411008    0.5536290678845676    0.38293509836986367    0.19485532531688776    0.132235749315102    
  0.19486105800338221    0.382913814050213    0.553649016082631    0.5573157667739366    0.47575935716223205    
  0.4046027141047641    0.37860142146343256    0.4046084725035797    0.47574853719856075    0.5573150430411008    
  0.4543243790434865    0.5109135061585998    0.4079210109833504    0.19483484438609638    0.08316231861827988    
  0.08315914674475804    0.19486101132418432    0.40790481091562275    0.5109027266978319    0.45432590920196353    
  0.3699287429909813    0.3217995443773504    0.3218056757656209    0.3699306501548984    0.4543243790434865    
  0.333842489340709    0.418322320599083    0.4343587326801835    0.2907606976076371    0.1322595805111683    
  0.08316231755372762    0.13223572179109727    0.29077443044797235    0.43437935792132304    0.4183087230189768    
  0.3338490348255242    0.27078643127374613    0.24952764490588641    0.2707849179465582    0.333842489340709    
  0.2353928262720732    0.3067949826291597    0.3893642960346708    0.397513551851561    0.2907606420144061    
  0.1948348102373904    0.1948552170779265    0.2907853103554201    0.39751544104616165    0.38934243689222664    
  0.3067872401957969    0.23540116550781937    0.19956703696023234    0.1995790983997229    0.2353928262720732    
  0.17178410275180264    0.21737848737383955    0.2965005496953144    0.3893642829210791    0.4343587768830519    
  0.40792093010343705    0.38293512517496114    0.40791527885969253    0.43433235697437056    0.3893446993315239    
  0.2965238343313829    0.21737329161244798    0.17178486795627798    0.15746829499210543    0.17178410275180264    
  0.13856876936502419    0.1629357141246441    0.21737850381501278    0.3067950166229884    0.41832237951988566    
  0.5109136632267419    0.5536290321334076    0.5535690874525424    0.510893762604135    0.4183488372641631    
  0.30680619376249324    0.21735475951088506    0.16294483610041297    0.13856269541604888    0.13856876936502419    
  0.1284653897082402    0.13856873107221124    0.17178406875398858    0.23539283523145335    0.3338424688286518    
  0.45432431527520184    0.5573149623741409    0.5976846143482422    0.5573667829775727    0.45433993378609216    
  0.3338122044282493    0.23539008187097504    0.17179873854973104    0.13856607438144683    0.1284653897082402    
  0.12148719744036765    0.12858643504168085    0.15190263954477848    0.19632723380305298    0.2650017819750494    
  0.34968345463800493    0.42315078463542055    0.45232919787692255    0.4231853493367351    0.3496913563317953    
  0.2649720904401197    0.19632976261856122    0.15190881378627055    0.1285860003521138    0.12148719744036765    
  0.12858602268165176    0.128586356990345    0.14011514439003472    0.16636947387568632    0.21107298693478935    
  0.2735593215232381    0.34072063969639366    0.38563068341761286    0.3856333028970676    0.34069229619792246    
  0.2735573913750989    0.21110060893889313    0.16636414861886295    0.14010984694353146    0.12858602268165176    
  0.1519088347859881    0.1475241745226103    0.15190143922829819    0.16635991371276151    0.19368148558848888    
  0.23476229874798502    0.28446043211839267    0.3276966841465183    0.34501866122637503    0.3276929529260822    
  0.2844851815064233    0.23475935736100673    0.1936594258223917    0.1663641182565751    0.1519088347859881    
  0.1963298507184356    0.1894668028602591    0.18947533297430966    0.1963357208499405    0.21107473476798602    
  0.2347598029593209    0.2653612099621534    0.2957092905385716    0.3149156395809498    0.31492016973228026    
  0.29571353920667187    0.2653410050532159    0.234759389995031    0.211100584853933    0.1963298507184356    
  0.26497212871314385    0.2591906533017107    0.25699705946432216    0.25918215573466513    0.2650018423800504    
  0.2735569339459038    0.2844580234629839    0.295720596534048    0.30357042757553143    0.30612352665181924    
  0.30356524047207956    0.29571356618203504    0.2844851679644137    0.27355733093285967    0.26497212871314385    
  0.34969141009794596    0.35077980425465644    0.34743910162023944    0.34743516768537885    0.35074493745508484    
  0.3496907954095351    0.34072133441646385    0.3276908772125033    0.31491293771669754    0.30612472097800897    
  0.3061235946025035    0.3149202137562757    0.327693042755581    0.34069230469014133    0.34969141009794596    
  0.4231854450162756    0.43656298849231323    0.4229225243312593    0.41175810831408083    0.4229692947039177    
  0.43655920633901607    0.4231540666283387    0.3856371320766486    0.3450223863757697    0.3149129347909265    
  0.3035704711055009    0.3149156308876301    0.3450187305429826    0.38563317831683885    0.4231854450162756    
  0.4523290660552529    0.48452812832133757    0.44814185848156357    0.3935177897514795    0.3934920263526845    
  0.4481412999863223    0.4845832228235263    0.45230350028980704    0.38563710368695125    0.32769088309779276    
  0.2957205294605093    0.29570922680821077    0.3276966825002676    0.3856306572853893    0.4523290660552529    
  0.4231508448871761    0.4845732474559275    0.4471169016685205    0.341102166818889    0.28985462409741597    
  0.34110167609234804    0.44709966278801144    0.4845833117586681    0.4231540584769519    0.34072135395466563    
  0.28445812387542685    0.26536128296051564    0.2844604141613918    0.34072067277086693    0.4231508448871761    
  0.3496834899182687    0.43657048663051395    0.4481457113526328    0.34108673046798343    0.24007912820564284    
  0.24009854668731684    0.34110162782153597    0.4481413189679275    0.436559138258412    0.34969078927502945    
  0.27355693262323055    0.23475982846106336    0.23476229181579247    0.2735592566492357    0.3496834899182687    
  0.26500178458522616    0.3507531278392607    0.4229587427502046    0.39346736278072186    0.28990358912475905    
  0.24007913459698005    0.2898545666199308    0.39349211840904363    0.422969300859369    0.35074497066437854    
  0.265001878638692    0.21107474055030717    0.19368152726668098    0.21107297564345287    0.26500178458522616    
  0.1963272455537492    0.2591896220668523    0.3474362301055708    0.41177927599123665    0.3934673173704565    
  0.34108670770869914    0.3411020610541813    0.39351787796451854    0.41175811223754466    0.34743508596779726    
  0.25918215728751276    0.19633564841385745    0.1663599029503746    0.1663694197432621    0.1963272455537492    
  0.15190268698154716    0.18947527578728923    0.2569931204932388    0.34743624797530964    0.42295873550506063    
  0.44814567360996815    0.44711691103254697    0.44814193129904834    0.4229225292566386    0.3474391290707368    
  0.2569970840344732    0.18947534568898813    0.15190148643407628    0.14011515244273792    0.15190268698154716    
  0.12858648078374435    0.1475228502031718    0.18947526739562112    0.2591896728654518    0.35075320323222936    
  0.4365705192049495    0.48457326184735977    0.4845282641176303    0.43656292733269125    0.35077983799568474    
  0.2591907251210548    0.18946684017667298    0.14752417504442114    0.1285863488533439    0.12858648078374435    
  0.12148719744036765    0.12858643504168085    0.15190263954477848    0.19632723380305298    0.2650017819750494    
  0.34968345463800493    0.42315078463542055    0.45232919787692255    0.4231853493367351    0.3496913563317953    
  0.2649720904401197    0.19632976261856122    0.15190881378627055    0.1285860003521138    0.12148719744036765    
  0.11600418889375469    0.12056078837740351    0.13594279404464235    0.16617605628215792    0.21408807704973395    
  0.2747125848484017    0.3288628027802655    0.3508478601041683    0.32886688598712777    0.2747160371430458    
  0.21407936840938463    0.1661771221610754    0.13594233341184161    0.12056125359187946    0.11600418889375469    
  0.12056130677695236    0.12055991063923949    0.1263839345613952    0.14099378425926704    0.16756017948464214    
  0.20602452527415605    0.2482005413704868    0.2766897903278494    0.27669044600380005    0.24819304451383956    
  0.20602603288669707    0.16756523989977973    0.14099558781960794    0.12638138233131138    0.12056130677695236    
  0.13594236804552184    0.13481458655110817    0.1359419679485026    0.1409940409706635    0.15324437568574328    
  0.17437904707149282    0.20193906228929207    0.22688003962483874    0.2370427386235468    0.2268819032091954    
  0.20194194668976273    0.1743797089902738    0.15323751945556524    0.14099557167813892    0.13594236804552184    
  0.1661771680161188    0.16695084623586312    0.16695154877143828    0.1661761083285415    0.16756130436793315    
  0.17437784700168132    0.18718733233977825    0.202587367919156    0.21345719810435093    0.2134534729362016    
  0.2025910961879686    0.18718194738080254    0.1743797035163324    0.1675652260392072    0.1661771680161188    
  0.21407937759768395    0.22216773229387607    0.22550675561283953    0.22216787954608408    0.21408767728297298    
  0.2060226729885277    0.20193772937661753    0.2025929137291935    0.20559903322691653    0.20719950610327617    
  0.2055986557742209    0.2025911234519976    0.20194193308504044    0.20602601586052974    0.21407937759768395    
  0.27471606510511654    0.29945137462825383    0.3141655606590756    0.3141635941230961    0.29944209349572776    
  0.2747162780214793    0.24820066648821384    0.22687769218870749    0.21345581307947084    0.20719638948847485    
  0.20719956100449752    0.2134534910568443    0.22688194001889034    0.24819301567613145    0.27471606510511654    
  0.3288669863464226    0.3806374334118037    0.41575756443040846    0.4273545690052663    0.415766022164968    
  0.3806371314148495    0.32885965590520416    0.2766943241032221    0.23704064169694455    0.21345579548286425    
  0.2055990575738236    0.2134571945510208    0.23704273855281868    0.2766904264839015    0.3288669863464226    
  0.35084778471190314    0.43326793560181587    0.49286332664976906    0.5160982308922742    0.5160929290534234    
  0.4928719494804237    0.4332803873017567    0.3508376697009928    0.2766942918496903    0.22687774340630917    
  0.20259285794921073    0.20258730270018002    0.226879976614042    0.2766897455681286    0.35084778471190314    
  0.32886281628906866    0.4332753283208175    0.5198985141564341    0.5522033808443244    0.5535740119759531    
  0.5521990771834394    0.5198977980954078    0.43328049625347204    0.32885963228780285    0.24820063699902598    
  0.2019378475806076    0.18718739282966387    0.20193908498979432    0.24820054678777836    0.32886281628906866    
  0.27471258357995826    0.38063557411455484    0.49287362268983564    0.5521986002420399    0.5546586394919941    
  0.5546584162563599    0.5521989604464862    0.492871973614294    0.38063710858970257    0.2747162697257492    
  0.20602268541020585    0.1743778783249614    0.17437902074742137    0.2060244907056657    0.27471258357995826    
  0.21408809475012813    0.299444789372079    0.4157689149863819    0.5160782572128659    0.5535876659621013    
  0.5546586482617109    0.553573898715442    0.5160930494086058    0.4157660542957825    0.29944211772969315    
  0.21408770430101629    0.1675612961326004    0.15324437739365657    0.16756016732316176    0.21408809475012813    
  0.16617607241269491    0.22216831073418516    0.3141665018724219    0.42735625533648297    0.5160782267327281    
  0.5521985811913893    0.5522032717460736    0.5160984165812121    0.42735454161312747    0.3141635035542213    
  0.22216788737584994    0.16617603498224195    0.14099402097188052    0.1409937248657892    0.16617607241269491    
  0.13594283624140946    0.16695299296496027    0.225502985548088    0.31416650480050495    0.4157689066903885    
  0.49287356328072374    0.519898520502009    0.4928633887797632    0.4157575536843057    0.31416551826634403    
  0.2255067925432941    0.1669515534850499    0.1359420044905342    0.1263839531593058    0.13594283624140946    
  0.12056080643824653    0.1348127325029388    0.1669530060325416    0.22216833490745816    0.29944485839163365    
  0.38063560725414913    0.4332752339244837    0.43326806858141076    0.38063737176111595    0.299451349173607    
  0.22216779169866235    0.1669508578746146    0.13481456784485016    0.12055990328295049    0.12056080643824653    
  0.11600418889375469    0.12056078837740351    0.13594279404464235    0.16617605628215792    0.21408807704973395    
  0.2747125848484017    0.3288628027802655    0.3508478601041683    0.32886688598712777    0.2747160371430458    
  0.21407936840938463    0.1661771221610754    0.13594233341184161    0.12056125359187946    0.11600418889375469    
  0.11283627651564924    0.11605597249818074    0.12743701469192903    0.1508202213721122    0.18882127605733842    
  0.23778527802514882    0.2824934009081196    0.30099442202581633    0.2824919200708852    0.23778592936220616    
  0.1888219230860089    0.1508194241345695    0.127435124294672    0.1160566032379628    0.11283627651564924    
  0.11605663919399083    0.1160575417121633    0.11911218314108418    0.1280266990736242    0.14597880824356996    
  0.1734470876706852    0.20452065846670628    0.2259130722324105    0.22591112213689282    0.20451991189135385    
  0.17344953390505616    0.14597605078199988    0.12802998548510097    0.11911165911658232    0.11605663919399083    
  0.12743513143273075    0.1277567499978286    0.12743488271857015    0.12803082109461297    0.13309553477380956    
  0.1452168665627909    0.1631286966919059    0.18014754250570508    0.1872158202854787    0.18014850129167073    
  0.16312707046276537    0.14521658904639234    0.13309695917094008    0.1280299617323176    0.12743513143273075    
  0.1508194759287932    0.15495483485294517    0.15495172673772548    0.15081908455797285    0.1459781505643305    
  0.1452168816591264    0.15038351735857644    0.15915856090931785    0.16610927890941976    0.16610928623495105    
  0.15915921908182765    0.15038509181576853    0.1452165868157878    0.14597603153520924    0.1508194759287932    
  0.1888219460597763    0.20296928669091913    0.20856717460701207    0.20297292065696446    0.18881940839344194    
  0.1734478129921495    0.16312776508516907    0.15915960214421007    0.15955784543646268    0.16044737199589051    
  0.15955702488884782    0.1591592154994306    0.16312706288450565    0.17344948247232236    0.1888219460597763    
  0.2377859378581206    0.2722464806618044    0.29432348595930186    0.294320470673868    0.2722480719390707    
  0.23778713187681275    0.2045180516991285    0.18014868544954382    0.1661091602571744    0.16044603037809402    
  0.1604474454185773    0.16610927641441345    0.18014855853216816    0.20451991375177142    0.2377859378581206    
  0.2824920074799153    0.3486881133537196    0.4040922532171236    0.4256669357329992    0.4040875738262939    
  0.3486877601224907    0.28249327421386755    0.22591328687900883    0.1872136205940348    0.16610915738388746    
  0.15955786126514482    0.166109286020309    0.18721576731932013    0.22591115612804713    0.2824920074799153    
  0.300994407857475    0.4012744018137054    0.5031223958965669    0.5677510296823407    0.5677556980868493    
  0.5031291775761185    0.4012723413872567    0.3009920193153164    0.2259132564839661    0.1801487078887343    
  0.15915957396514296    0.1591584912201899    0.18014749400240868    0.22591301332476915    0.300994407857475    
  0.282493406033291    0.4012749278430219    0.5436735534141935    0.6617285543080874    0.7066212391230006    
  0.6617263335138645    0.5436851477401758    0.4012724559123246    0.28249328107887056    0.20451800827299926    
  0.1631278183125097    0.15038355365771092    0.16312871821442518    0.2045206886049539    0.282493406033291    
  0.23778535167169962    0.3486823488375965    0.5031317372750012    0.6617386542349187    0.7599650188853638    
  0.7599519274305149    0.6617261501585209    0.5031291777376252    0.3486877487180536    0.2377870893829335    