#     DFTpy    
  CRYSTAL 
    
  PRIMVEC    
  5.776174021613493    4.607190317903449e-07    7.606067376551723e-07    
  4.6071914125241377e-07    5.776176002390588    7.689254282593103e-07    
  7.606068349351724e-07    7.689254459144829e-07    5.776175602022317    
  PRIMCOORD    
  16    1    
  Si    0.8523337740710211    4.923841310016479    2.0357543152742004    
  Si    4.923840652762285    0.8523356079000785    3.740420458554667    
  Si    0.8523346423620625    0.8523348556615544    0.8523351556282711    
  Si    2.0357573052399642    2.0357581506470814    2.0357579379536066    
  Si    4.923839252095922    2.0357544573282707    0.8523342001412709    
  Si    0.8523335835913345    3.740423704281514    4.923841264969108    
  Si    2.0357536950924575    0.8523357826481569    4.923841729777976    
  Si    3.7404202483862763    4.923842645412245    0.8523342695410728    
  Si    3.7404199565483855    2.0357584905825736    4.923844420102252    
  Si    2.035755201240742    3.7404186306127927    0.8523314669588347    
  Si    3.740418040848291    3.740421503851168    3.7404203794418254    
  Si    4.923840816363156    4.9238435377573495    4.923842459725865    
  Si    2.035757531675466    4.923846152318704    3.740420583489403    
  Si    3.7404171859976936    0.8523311505209933    2.035755977571455    
  Si    4.923842881400017    3.7404209756834197    2.035758074873773    
  Si    0.8523313996663575    2.0357566772329183    3.740418582256686    
  BEGIN_BLOCK_DATAGRID_3D    
  3d_datagrid_density    
  BEGIN_DATAGRID_3D#0    
  25    25    25    
  0.0    0.0    0.0    
  5.776174021613493    4.607190317903449e-07    7.606067376551723e-07    
  4.6071914125241377e-07    5.776176002390588    7.689254282593103e-07    
  7.606068349351724e-07    7.689254459144829e-07    5.776175602022317    
  0.20115803901048593    0.20571210310594965    0.21899778418765325    0.23998330692546727    0.26513859497249526    
  0.28668465363639734    0.29534770437940294    0.2866849266040192    0.2651385212006697    0.2399839607232199    
  0.21899793772120724    0.2057130123402275    0.20115835416052308    0.20571318256519633    0.21899860447190425    
  0.23998432345343837    0.2651396392791926    0.2866854002766689    0.2953490304162044    0.28668494693445223    
  0.2651394638602253    0.23998348810366232    0.2189983134708147    0.20571206375477608    0.20115803901048593    
  0.205712002991368    0.2322161270394058    0.2697159181446307    0.3191528879224608    0.37806038101052586    
  0.4311152803026618    0.4531915938597825    0.43111540058148173    0.37806101129969377    0.3191531231870675    
  0.26971686724389277    0.232216393733326    0.20571298330522628    0.1895132278950649    0.18247959534386865    
  0.18291159836581342    0.18770388213068895    0.1928820066838855    0.19506979072285188    0.19288197810010316    
  0.18770364268873976    0.1829116148683264    0.182478793360949    0.1895129322528249    0.205712002991368    
  0.21899794080267887    0.26322249582905394    0.3203000583209037    0.39529877150473725    0.49315244099594396    
  0.5911993830137824    0.6345348009904311    0.5911998193887608    0.4931524725444147    0.39529988827414936    
  0.32030038241871134    0.2632235148831111    0.21899805834866368    0.18710906790380097    0.166885060261637    
  0.1560657987432826    0.1513066502892455    0.14963992411641794    0.14925565643173017    0.14963980961821313    
  0.15130689148605875    0.15606548017667218    0.16688513114951073    0.18710836648758497    0.21899794080267887    
  0.2399830581188958    0.29175546828358045    0.35557901583409324    0.44097146657878616    0.5626360099125883    
  0.6957349724479703    0.7575065189430252    0.6957351995869692    0.5626366420413361    0.440971524105765    
  0.35558004529097814    0.2917555552764503    0.23998388807839677    0.2006499020633054    0.17433354523999436    
  0.15907881736971244    0.15172635140138982    0.14894772697595396    0.148246939096538    0.14894778334718448    
  0.15172620350329824    0.15907911975012412    0.17433313610294826    0.2006499798865475    0.2399830581188958    
  0.2651389485275207    0.3118419584871107    0.36883442303980574    0.44736987147816193    0.5631570912186803    
  0.692050104311735    0.7523508082775239    0.6920504612408062    0.5631569506059819    0.4473706615143838    
  0.3688344060442251    0.31184284127488726    0.26513885719897096    0.22895763897883498    0.20495888109997604    
  0.19250120203504362    0.18930626570781572    0.190646298775518    0.19162109735786984    0.19064614449738998    
  0.18930655755880832    0.19250102559441548    0.2049591635263694    0.22895697069218798    0.2651389485275207    
  0.2866845124368599    0.3161446072077402    0.3549161068023522    0.41204491993465336    0.49534340733846766    
  0.5838082882699923    0.623834912926673    0.5838083214604659    0.4953438689979779    0.41204502547903377    
  0.354917009263173    0.3161447738058283    0.28668547267037686    0.2656336799882727    0.255088651956438    
  0.25638772346673266    0.26817006912583047    0.28247902466506464    0.28867913286809066    0.28247922032446754    
  0.2681698874855118    0.25638784550427524    0.2550880260755993    0.2656336905406208    0.2866845124368599    
  0.29534813370279683    0.29907440373197913    0.31213461157191696    0.3392986208834337    0.38155277107445185    
  0.42468513466425195    0.4433544740426976    0.42468545223587423    0.3815527420364621    0.3392994212211732    
  0.31213485755074466    0.2990755592338924    0.2953484979264786    0.29907532866799946    0.3121349539753059    
  0.33929897501184453    0.3815527777970471    0.42468456876513194    0.4433544293696161    0.4246840999176025    
  0.3815525082019605    0.3392979947848025    0.31213465339636687    0.29907423202621647    0.29534813370279683    
  0.2866847828527067    0.26563370022606936    0.25508858594509587    0.2563878419495673    0.26817078373885883    
  0.28247926804627255    0.28868046583266066    0.28247915647396526    0.26817130214238566    0.25638807161299265    
  0.25508967721441217    0.2656342958203941    0.28668632312778447    0.3161454700262451    0.35491751130566024    
  0.41204581964357173    0.4953441478548335    0.5838093464063515    0.6238348633369789    0.5838084864544949    
  0.4953426272797991    0.41204505953753084    0.3549159504743382    0.3161447178171162    0.2866847828527067    
  0.26513889941408797    0.22895753892512466    0.20495894861884426    0.19250151938210197    0.1893062810869666    
  0.19064700631436923    0.19162100105399038    0.19064734861787994    0.189306450965347    0.1925025413447342    
  0.20495949055945664    0.22895907156528755    0.2651399471613567    0.311844431051899    0.36883568312050513    
  0.4473714852530995    0.5631585661387382    0.6920520584221171    0.7523528426984132    0.6920505507926693    
  0.5631573877186602    0.4473696805507604    0.3688346683223642    0.3118423283490007    0.26513889941408797    
  0.2399837508268199    0.2006499189655624    0.17433368798757887    0.15907875382307254    0.1517268505474756    
  0.1489474832933262    0.14824777399169087    0.1489476448745286    0.1517275838966465    0.15907935289374275    
  0.1743350607669182    0.20065098542835505    0.23998590343723575    0.29175734259517455    0.3555819799751127    
  0.4409734645054656    0.562638763005335    0.6957385289874238    0.7575094519798795    0.6957372929853016    
  0.5626367949983531    0.4409720830594993    0.35557960996069393    0.291755808606755    0.2399837508268199    
  0.21899810943154613    0.18710902989156353    0.16688482825285106    0.15606603289786092    0.15130629210178886    
  0.14964049569672142    0.14925540681858218    0.1496410366477403    0.15130690898614096    0.15606737839258975    
  0.16688592508492314    0.18711112465667548    0.21899978934941186    0.26322608571665995    0.3203025403360607    
  0.3953024012048661    0.4931556958885118    0.5912035789854123    0.6345388206999127    0.5912020632595466    
  0.49315425460246515    0.3953001094947724    0.32030080633936525    0.2632234089433327    0.21899810943154613    
  0.20571283082644237    0.1895128533628677    0.18247939893211088    0.18291104545260733    0.18770420051511355    
  0.19288147889330615    0.19507082819534302    0.19288195256757024    0.18770552170484392    0.18291236488141083    
  0.18248152421978536    0.1895145664243681    0.2057154708637655    0.23221846617681235    0.26971953712743224    
  0.31915564105568167    0.37806398122426477    0.43111875660739707    0.4531946469122343    0.431117868324539    
  0.3780621141213948    0.31915416873851765    0.2697170148296038    0.23221655008991404    0.20571283082644237    
  0.2011581872682224    0.20571283050882805    0.2189978668352868    0.23998413032617785    0.26513887338184405    
  0.2866860074174267    0.2953487112032955    0.28668702874027013    0.26514019538605105    0.23998654479202478    
  0.2189998739822231    0.20571562476671035    0.20116014406904076    0.2057154744650629    0.21900000322644644    
  0.2399863059334712    0.2651407574391457    0.28668725510513215    0.29534984311241824    0.2866863394545596    
  0.26513975399998746    0.23998442758106175    0.21899840996990974    0.20571284524585323    0.2011581872682224    
  0.20571294900646264    0.2322162733093995    0.26971693092012644    0.3191531920511346    0.37806182548397693    
  0.4311160562595502    0.45319390064641796    0.43111718399096977    0.3780639582718939    0.31915520566738176    
  0.26972000559104464    0.23221855656117013    0.20571557675546812    0.1895146607943615    0.18248149315308534    
  0.18291252619612053    0.18770533622038035    0.19288255855757988    0.19507088755142057    0.19288217938648103    
  0.1877043593636998    0.1829115773010148    0.18247958840340753    0.18951299291847376    0.20571294900646264    
  0.21899808301360446    0.26322359126716544    0.3203001906082047    0.3953000131260925    0.4931526964740544    
  0.5912013601483689    0.6345359478477149    0.5912024275943065    0.49315378024513623    0.39530251783090303    
  0.32030229792978426    0.2632265247614076    0.2189998882612267    0.18711125857415412    0.1668860195084283    
  0.1560671742364966    0.15130703694356626    0.14964085468004007    0.14925571730276482    0.14964045288242284    
  0.1513067549439245    0.1560660680353876    0.1668850624324137    0.18710922633048413    0.21899808301360446    
  0.23998397263254553    0.2917555704486592    0.355579879515588    0.4409712030670737    0.5626370418149023    
  0.6957351289651481    0.7575082119743279    0.6957354170129849    0.5626379632403073    0.4409720450302698    
  0.3555822958208296    0.2917573313142057    0.23998642026136882    0.20065113607774046    0.17433511895609208    
  0.1590793754413857    0.15172727835499403    0.14894782979590737    0.14824756207769282    0.1489476495219587    
  0.15172671932170226    0.15907898380262425    0.17433375261525108    0.20064997185886754    0.23998397263254553    
  0.2651389907857177    0.31184279088341077    0.36883405424342486    0.447370320198347    0.563156157373148    
  0.6920504006646833    0.7523499968901667    0.6920508592942441    0.5631563437061031    0.4473715960897293    
  0.36883520929464697    0.3118451286042113    0.2651402776938283    0.22895952787353238    0.2049597326946454    
  0.19250236942490395    0.18930647830696992    0.1906469986638106    0.19162101864728182    0.1906465820879589    
  0.18930635530914142    0.19250149852819734    0.20495908587600498    0.22895767862846952    0.2651389907857177    
  0.2866852865043129    0.31614460168871333    0.3549164463950487    0.41204416672504307    0.4953430782794486    
  0.583806828202754    0.6238343226622396    0.5838069272588681    0.4953440355949298    0.41204491278615446    
  0.3549181705316683    0.3161456793522482    0.28668722716160466    0.2656346624287332    0.2550899981417338    
  0.2563881056269135    0.2681709228900598    0.2824790460126739    0.28867985176671274    0.282478951922216    
  0.26817025806176553    0.2563877458026661    0.2550885875499889    0.2656337959329502    0.2866852865043129    
  0.2953482317004349    0.29907489973351026    0.3121343644909705    0.3392985163894548    0.38155176183182254    
  0.4246842944889421    0.44335290304994396    0.4246845255393339    0.3815519712469531    0.33929954648395894    
  0.31213495364973015    0.2990764644884252    0.29534903484039504    0.29907633292097036    0.31213531184751614    
  0.3392995583077788    0.3815527573287985    0.42468481827723    0.4433540110830333    0.42468428646797624    
  0.38155237639684614    0.3392983898809422    0.31213458404195793    0.2990746848629669    0.2953482317004349    
  0.28668509017292615    0.26563382274183095    0.25508879417131314    0.2563874554566205    0.2681704107065727    
  0.2824782770669719    0.2886795575631248    0.2824782281489076    0.26817064586365946    0.2563874760111572    
  0.2550896526271992    0.26563408789273835    0.28668655131216236    0.3161454252584795    0.3549176492217589    
  0.4120454702718931    0.4953437437040969    0.5838085272178539    0.623834332683178    0.5838079948966896    
  0.4953426864516455    0.4120449237943999    0.35491617900033073    0.3161448155477237    0.28668509017292615    
  0.26513897719558027    0.22895756902236677    0.20495897163682786    0.1925014668407114    0.18930594764083908    
  0.19064658149664623    0.1916203495376813    0.1906466608236377    0.18930577551562744    0.19250189026887907    
  0.2049588343680241    0.2289585001909509    0.26513935357614    0.3118438392401677    0.36883518907716967    
  0.4473708850363782    0.5631573139245547    0.6920505765826606    0.7523512658784542    0.6920495922966718    
  0.5631570905776712    0.44736958596690035    0.36883454435093976    0.3118423898982978    0.26513897719558027    
  0.23998359967818383    0.20064999218390125    0.17433357012630893    0.1590787863009359    0.15172662069112944    
  0.14894722928859627    0.1482472782514757    0.14894710907067155    0.15172672477064492    0.15907858535185182    
  0.17433405074845199    0.20065002067995685    0.23998470372854264    0.2917562257274014    0.35558065561405705    
  0.4409723127115454    0.5626369450638473    0.6957364385163594    0.7575068348718158    0.6957359131791845    
  0.5626358499336672    0.44097186143299727    0.3555792424323435    0.2917557236247663    0.23998359967818383    
  0.21899807506557686    0.18710874573443242    0.16688486772196479    0.15606575972442713    0.1513062532719448    
  0.14964005518525725    0.14925500557890953    0.1496401134633453    0.15130612954836112    0.15606609483403797    
  0.1668848100712984    0.1871095297818923    0.21899841710712256    0.26322426626938233    0.3203011876274327    
  0.39530056396323104    0.49315403705099703    0.5912008285003596    0.6345364833161203    0.5911997603844955    
  0.49315324567617835    0.3952990769071763    0.32030052445843565    0.2632228253963989    0.21899807506557686    
  0.20571218407229655    0.18951279092151863    0.1824788986849432    0.18291100362407653    0.1877035882280632    
  0.19288112384605957    0.19506976832615597    0.19288106901571184    0.18770383439943478    0.1829109929194993    
  0.18247954172171896    0.18951299193957982    0.20571330459189918    0.23221685673510895    0.2697174655194683    
  0.31915419413949153    0.37806168153318576    0.43111715455323735    0.4531923621980309    0.4311167067616973    
  0.37806070448461304    0.3191537014150854    0.26971612642594645    0.23221638043843779    0.20571218407229655    
  0.20115803901048593    0.20571210310594965    0.21899778418765325    0.23998330692546727    0.26513859497249526    
  0.28668465363639734    0.29534770437940294    0.2866849266040192    0.2651385212006697    0.2399839607232199    
  0.21899793772120724    0.2057130123402275    0.20115835416052308    0.20571318256519633    0.21899860447190425    
  0.23998432345343837    0.2651396392791926    0.2866854002766689    0.2953490304162044    0.28668494693445223    
  0.2651394638602253    0.23998348810366232    0.2189983134708147    0.20571206375477608    0.20115803901048593    
  0.20571201240713957    0.23221613349251738    0.2632226308559733    0.2917552769348114    0.3118422605681846    
  0.3161441539390062    0.2990746667334693    0.26563331043570326    0.228957849405642    0.2006497853599942    
  0.1871093865497866    0.18951303528866104    0.2057132721782416    0.2322169123138063    0.26322398769484184    
  0.2917563271983343    0.31184292223932164    0.31614532946445234    0.29907478181934116    0.26563413879422265    
  0.2289573572889934    0.2006502722581753    0.18710851363127032    0.18951293083566184    0.20571201240713957    
  0.23221625069922142    0.27932507095392434    0.3259572634937115    0.36881630481944727    0.41446875522733995    
  0.45031586726283573    0.4445413630545208    0.39183476445226495    0.32057519439249926    0.2581076046735596    
  0.2161668403888597    0.19488895248443666    0.18951316293328416    0.1948890128393811    0.20602569070114787    
  0.2168000631138346    0.22133481925918405    0.2165129238998633    0.20298168783141388    0.18565490764551154    
  0.17115212050259285    0.16521043874935312    0.17233827918097017    0.19488787922849202    0.23221625069922142    
  0.26971571545919487    0.3259573847850771    0.36495696738304484    0.39812628264935374    0.46625104038160414    
  0.5611426484182115    0.5995084758858971    0.5371114234158912    0.4254117451299006    0.3226534311468191    
  0.250104889538397    0.2060252560814875    0.18247961110686664    0.17233821484015613    0.1703215768251108    
  0.1712924185731584    0.17063772016799209    0.16620833998082798    0.15884526386597217    0.15198472671037086    
  0.14999445057633284    0.15732642865445656    0.17827625921499807    0.21616687713243096    0.26971571545919487    
  0.3191530677483699    0.3688161065965751    0.38005570125331356    0.38635546856532677    0.4598796493012886    
  0.6040622231358015    0.695971111839793    0.639457368833049    0.5004970167778205    0.3687343001642034    
  0.27529018519745574    0.21680003970635442    0.18291127891639436    0.16521094217951443    0.15813159146512415    
  0.1572766372894779    0.15868749438779123    0.1594773744230753    0.15911052683588822    0.15954736279951726    
  0.16461417615594076    0.1798249640923131    0.21006326433309366    0.2581064082443668    0.3191530677483699    
  0.3780600671231852    0.4144689299771821    0.40498581142981066    0.3939633271593384    0.45802301934425566    
  0.5995504442543177    0.694646172702463    0.6427441532344564    0.5061632792265994    0.3743997560948304    
  0.28017716139702004    0.22133427848164092    0.18770400229184692    0.1711516970228856    0.16705000222651126    
  0.17223264888548373    0.1830303872961027    0.19465693444746185    0.20372893154857283    0.21032334562578184    
  0.21864547152163072    0.2367971676665282    0.2706011554197343    0.32057531142219436    0.3780600671231852    
  0.43111573141109855    0.45031559053221976    0.4359181410649373    0.42273866013580125    0.4645223019482589    
  0.5524321925659678    0.5981360057245741    0.5460859711991886    0.43970102491985347    0.33694788675622495    
  0.26224423910838307    0.2165133041611031    0.19288151906411014    0.18565536768922347    0.1929226258990044    
  0.21367568286975386    0.2443616110082    0.27660762496375274    0.30010285724339414    0.30996532591074205    
  0.3130168729675659    0.3245794930703882    0.35248723465564474    0.39183382399214717    0.43111573141109855    
  0.45319116244351687    0.4445416441611275    0.4222300505683683    0.4055342282899482    0.41629721491038696    
  0.4429831559649499    0.4449983325246478    0.4035019235443541    0.3377049136789951    0.2745238595463876    
  0.22864119063413454    0.2029812365934577    0.19507034817118876    0.20298138339315477    0.22864129010189793    
  0.27452454946832977    0.33770471571459526    0.40350261697227413    0.4449976963744034    0.4429831993056325    
  0.4162961968958927    0.40553425899811807    0.4222295704880317    0.44454168438283087    0.45319116244351687    
  0.4311159710880144    0.39183442262906076    0.3524872746963061    0.32458030159818824    0.31301676222372593    
  0.30996617561664225    0.3001026180270004    0.2766083096887942    0.2443613867010259    0.2136762555696092    
  0.1929225736390731    0.18565586802037146    0.19288181732100274    0.21651384245180297    0.26224513010687467    
  0.3369487329088145    0.4397025846163973    0.5460867236653056    0.5981372061556129    0.5524314671574329    
  0.4645219437679917    0.4227379166859934    0.435918104630251    0.45031562371235406    0.4311159710880144    
  0.37806061853261835    0.3205753063288325    0.27060172378916375    0.236796827263636    0.21864620201685725    
  0.2103231218222948    0.20372973547702572    0.19465666425651898    0.1830312018674471    0.17223268201822944    
  0.16705078736690485    0.171152082571014    0.18770495643061114    0.22133527718661977    0.28017852685549127    
  0.374401575371526    0.5061650734769206    0.64274669693272    0.6946471965389504    0.599550576354794    
  0.4580217254044658    0.3939624634983376    0.4049854539159518    0.41446905336323486    0.37806061853261835    
  0.3191533364688658    0.2581072259465265    0.21006301780717684    0.17982564620023186    0.16461386235533215    
  0.15954813744027208    0.15911028659161255    0.15947831396930193    0.15868758881487724    0.15727776609248162    
  0.1581320133017846    0.16521218612701694    0.18291216856730808    0.21680165575142274    0.2752919463082954    
  0.3687365138531282    0.5004999326758879    0.6394604377985866    0.6959736901291008    0.6040626210011678    
  0.45987900518145575    0.38635462764720085    0.3800554183480941    0.3688166267657294    0.3191533364688658    
  0.26971663371517457    0.21616678004202713    0.17827695805592217    0.157326000715281    0.14999507968152914    
  0.15198437848968818    0.15884632105051036    0.16620842009706052    0.17063912169977002    0.17129295943447906    
  0.17032317847848408    0.1723391874785076    0.18248135937269497    0.20602681136310255    0.25010698435957585    
  0.3226558105163319    0.4254148052350379    0.5371150404468449    0.5995114140095358    0.5611442888743693    
  0.4662513249363412    0.3981264130540389    0.36495742145164    0.3259576455672231    0.26971663371517457    
  0.23221640005723135    0.19488865334431607    0.1723379629065377    0.16521110207417228    0.17115168784640772    
  0.18565593179835568    0.20298154211039998    0.2165144451382556    0.2213353551604206    0.2168021566211127    
  0.20602672181496376    0.19489107959088653    0.18951461047767265    0.19489092707039446    0.21616864866128727    
  0.25810976927846546    0.3205776742266526    0.39183748980547595    0.4445439635294244    0.4503177556105594    
  0.4144698722611218    0.3688172060588272    0.3259578920911173    0.27932598722238366    0.23221640005723135    
  0.20571280407967552    0.18951283284620238    0.18710922796369497    0.20064988831039732    0.22895838332446347    
  0.26563384141214175    0.29907648802112363    0.3161456138345414    0.31184528174227943    0.29175734398980857    
  0.2632265376895875    0.2322185176636213    0.20571564018001806    0.18951468544418826    0.18711118847878375    
  0.20065150786319802    0.22895955430369613    0.26563522777005905    0.29907633645155834    0.3161456367393264    
  0.3118432292318728    0.2917560029768295    0.26322352850388325    0.2322163949595372    0.20571280407967552    
  0.18951289931107435    0.19488867203885193    0.21616669330115115    0.258107738679351    0.3205753037412031    
  0.39183585862161713    0.4445422526792448    0.45031832410538913    0.41446953744128207    0.36881927159667127    
  0.3259594479401975    0.2793294548007221    0.2322184783988896    0.19489110966998222    0.17233939511692442    
  0.16521237715274834    0.17115256216617902    0.18565626141165315    0.20298188555466604    0.2165134828703741    
  0.22133472456140296    0.21679995003851366    0.20602531069822877    0.19488856205291924    0.18951289931107435    
  0.18247942797527456    0.20602512084558183    0.250104782937887    0.3226530743232103    0.42541207530352604    
  0.5371113175229085    0.5995097090997148    0.5611417267676954    0.4662506343589863    0.39812484638972384    
  0.3649592318244262    0.3259594345759834    0.269719876053756    0.21616844002548455    0.1782786064637279    
  0.15732678098984343    0.149995539461426    0.1519847038097139    0.15884586814262155    0.16620818525842718    
  0.17063796206487902    0.17129224582090216    0.17032138221063547    0.17233806697514956    0.18247942797527456    
  0.1829110997360889    0.21679991368401744    0.27528983215492786    0.36873403540695193    0.5004962679023102    
  0.6394574456792499    0.6959699039283038    0.6040614015718414    0.4598756096050196    0.3863536060728451    
  0.3800543638249792    0.36881932309400656    0.31915518815237004    0.2581097067895614    0.21006404070023113    
  0.17982652782378572    0.1646141466739338    0.15954811209724143    0.15911026401469003    0.15947760957456947    
  0.1586872925302113    0.15727664347054618    0.158131456242463    0.16521076320545455    0.1829110997360889    
  0.18770393767429353    0.22133426885633048    0.2801768686914608    0.3743992175229317    0.506162495837625    
  0.6427426388198425    0.6946456555505779    0.599548032979795    0.4580213784830735    0.3939602014883272    
  0.4049863494225035    0.4144698953582856    0.3780639363924542    0.3205769156805712    0.2706034997737366    
  0.23679745604559876    0.21864647226363376    0.2103231029775647    0.2037293231133374    0.1946564489597316    
  0.18303042035018446    0.17223243024269064    0.16704986980234268    0.17115156987128724    0.18770393767429353    
  0.19288154172042127    0.21651299105830343    0.2622439521660653    0.33694724029732953    0.43969992226403976    
  0.5460848484759896    0.5981342730832496    0.5524315394205872    0.46452051382581805    0.4227390122756295    
  0.4359178892918347    0.4503185477036427    0.43111750326362314    0.39183713076597115    0.3524881870298854    
  0.3245812971458625    0.31301677028589986    0.3099658083810574    0.3001023881843692    0.2766074725006767    
  0.2443611966264251    0.21367541518253916    0.1929224278531339    0.1856551193892967    0.19288154172042127    
  0.19506982116163002    0.20298115891654553    0.22864074024009304    0.27452339403049514    0.3377040225533537    
  0.40350048234498304    0.4449972094834816    0.4429815886665704    0.4162972721748061    0.40553373908085993    
  0.42223168548538986    0.4445426066460308    0.4531943015668833    0.44454297379255964    0.4222319494997243    
  0.4055347368281547    0.4162974178663455    0.44298288315533496    0.4449974381300671    0.40350153949658485    
  0.33770387088303044    0.2745237867359972    0.22864045847101974    0.20298116429513607    0.19506982116163002    
  0.19288157762389946    0.18565524014461438    0.19292242210745977    0.21367561615410585    0.2443608249328987    
  0.2766074528231793    0.30010143375178705    0.3099655720780971    0.31301578912348127    0.32458071248298    
  0.3524872043922017    0.3918361496378028    0.43111687452828906    0.4503179103336332    0.4359184903317336    
  0.4227391708453848    0.46452204503271305    0.5524318720131398    0.5981358700597184    0.546084753976436    
  0.4397007939716406    0.3369468647708972    0.2622442188614284    0.21651274650801708    0.19288157762389946    
  0.18770367892065493    0.17115164608723807    0.16704996587584672    0.17223230078723206    0.1830304315888716    
  0.19465609433597408    0.20372908254788136    0.21032235585528605    0.21864584627015285    0.2367964693005923    
  0.27060227492761185    0.3205754762584967    0.378062193007392    0.41446937666113975    0.40498632626275444    
  0.393962246287429    0.4580222418457613    0.599550193338682    0.694645589555343    0.6427438897077699    
  0.5061620357226465    0.37439970303645487    0.2801764442322024    0.2213343225501521    0.18770367892065493    
  0.1829112285394278    0.16521062139238962    0.1581314175117206    0.15727656487044359    0.1586871055195231    
  0.15947748019919503    0.1591097941671641    0.15954757598610497    0.16461336506053093    0.17982567484473938    
  0.21006285063003832    0.2581079073480709    0.3191536828890593    0.36881764024129987    0.3800551774194373    
  0.3863547646559393    0.4598786845145619    0.6040619923712418    0.6959714547019322    0.6394564563336259    
  0.500496990424462    0.36873331906418905    0.27529025768627596    0.2167994005817457    0.1829112285394278    
  0.18247894725206432    0.1723379905926569    0.17032113409482894    0.17129204690826177    0.170637671535783    
  0.1662077670891282    0.1588454987297295    0.15198393232332905    0.14999483529170302    0.15732585930058274    
  0.17827717447012034    0.21616699120879063    0.26971748016893055    0.32595809108625645    0.3649579121010812    
  0.398126270870488    0.4662510190260993    0.561143332582076    0.5995085043846897    0.5371118406665626    
  0.4254109777562904    0.3226535353742656    0.25010404899255756    0.20602524223086366    0.18247894725206432    
  0.1895128491076087    0.19488799366003692    0.2060249453424148    0.21679934838212686    0.22133405084931934    
  0.21651271762493451    0.20298086747822944    0.18565517186071395    0.17115133975580746    0.1652110968141398    
  0.17233796180748426    0.19488907468166483    0.23221680590738808    0.2793267420016517    0.325958276328558    
  0.368817243545374    0.4144695878559169    0.45031655905938833    0.44454249207031127    0.39183451741041975    