#     DFTpy    
  CRYSTAL 
    
  PRIMVEC    
  8.34837651561325    6.658829756344828e-07    1.0993144255172412e-06    
  6.658831338413793e-07    8.348379378455146    1.1113375330310344e-06    
  1.0993145661172413e-06    1.1113375585482759e-06    8.34837879979788    
  PRIMCOORD    
  16    1    
  Si    1.2318886578370223    7.1164893933831905    2.942301158794742    
  Si    7.116488443445489    1.231891308293082    5.406076444004792    
  Si    1.231889912788918    1.2318902210733402    1.2318906546189856    
  Si    2.9423054802296353    2.942306702107109    2.942306394698572    
  Si    7.116486419044886    2.942301364107266    1.2318892736416804    
  Si    1.2318883825343505    5.406081135094374    7.116489328275663    
  Si    2.942300262438317    1.231891560858664    7.116490000069731    
  Si    5.406076140245789    7.116491323447384    1.231889373946082    
  Si    5.406075718448838    2.9423071934201257    7.116493888429036    
  Si    2.9423024392932593    5.406073802057551    1.2318853233389406    
  Si    5.406072949663545    5.40607795478489    5.406076329662012    
  Si    7.116488679899873    7.11649261316492    7.116491055072538    
  Si    2.942305807499697    7.116496392023125    5.406076624574528    
  Si    5.406071714137291    1.2318848659873731    2.9423035613337434    
  Si    7.11649166452346    5.406077191417442    2.9423065925909997    
  Si    1.2318852260802822    2.942304572563202    5.406073732167866    
  BEGIN_BLOCK_DATAGRID_3D    
  3d_datagrid_density    
  BEGIN_DATAGRID_3D#0    
  37    37    37    
  0.0    0.0    0.0    
  8.34837651561325    6.658829756344828e-07    1.0993144255172412e-06    
  6.658831338413793e-07    8.348379378455146    1.1113375330310344e-06    
  1.0993145661172413e-06    1.1113375585482759e-06    8.34837879979788    
  0.02637291396313596    0.02729536129541008    0.029864734669093715    0.03349139052621977    0.037142809001270566    
  0.039781675168565005    0.04095191690492149    0.040873991664219324    0.04027892175692791    0.03997536834784151    
  0.04027895469578763    0.04087403968756636    0.04095200764860278    0.0397817478478977    0.037142936682904804    
  0.03349147987694985    0.029864838664819482    0.027295441818901863    0.026373046775958312    0.027295504930393257    
  0.029864961443787762    0.033491646216927205    0.03714312558006825    0.03978197455064967    0.040952212402519575    
  0.040874210469447045    0.04027911038912373    0.03997550870758159    0.04027904838480478    0.040874132023560605    
  0.040952059407624114    0.03978181934952027    0.03714294411609762    0.03349150140495483    0.029864799107869964    
  0.02729539153791798    0.02637291396313596    0.027295366230940636    0.03145496763092058    0.037733358381206915    
  0.04533885817733532    0.05262526443757029    0.05775460011269102    0.059869654479670444    0.059493972866359254    
  0.05820955857295365    0.05758795445466922    0.05820960498479232    0.05949408716578965    0.05986976590492418    
  0.05775477784316739    0.05262540552527315    0.04533903753537654    0.037733458399525625    0.0314551034847252    
  0.02729544455179232    0.025318021246972616    0.02513911771624686    0.026117756423621886    0.027534788565005828    
  0.028723238001611095    0.02933491229111354    0.029384670863800776    0.02916913847546208    0.029044008854098094    
  0.029169115662471132    0.029384615221000446    0.029334853454317286    0.02872312912446842    0.027534705882562183    
  0.02611764273337759    0.025139026627277575    0.025317905837355326    0.027295366230940636    0.029864733715678674    
  0.037730542552140034    0.048835052061698976    0.06200307244100712    0.07455850655847976    0.08342043776795206    
  0.08698080338111092    0.08621264008049992    0.08396507011126934    0.08288823631604364    0.08396514766639833    
  0.08621281004288946    0.0869810462153686    0.08342067647555687    0.07455877565792764    0.062003259876125025    
  0.04883523800533527    0.037730646553817096    0.029864855690512473    0.025148893877187856    0.022854691391966053    
  0.022135162814876166    0.022265875937106147    0.022668331390130057    0.02295689795350733    0.023030872680010323    
  0.022975659835464447    0.022931775847678148    0.022975641897022815    0.023030849458919943    0.02295685592288221    
  0.022668284915154695    0.02226580996719488    0.022135118805180386    0.022854605748607322    0.02514883831576816    
  0.029864733715678674    0.033491403559365474    0.045179796857585004    0.06172115957478634    0.0815181132796814    
  0.10055240610730348    0.11406766262614806    0.11950028010680624    0.1183932170600095    0.11503427402362584    
  0.11339133891893943    0.11503436492325794    0.118393464366889    0.11950057585267441    0.11406803983208944    
  0.10055272577135102    0.08151843536914082    0.0617213417396795    0.045179976662177095    0.03349149348304711    
  0.026261270559546968    0.022343568105002643    0.020548889297302676    0.01996941144563317    0.019959920099314677    
  0.02008998621484499    0.02017595596177778    0.02018776504310633    0.020175178248908212    0.020187753107391238    
  0.02017593837311793    0.020089975391339554    0.019959882914003215    0.01996940251842473    0.020548836816022    
  0.022343530458339755    0.026261180718149372    0.033491403559365474    0.03714283210239705    0.051969810291714345    
  0.07323455990216833    0.09901747272517898    0.12406836762140874    0.1420179462501111    0.14935354606955517    
  0.14808788388980162    0.14378840892826386    0.14165493406777746    0.14378854754294523    0.14808813052271438    
  0.14935392518244744    0.14201837873616358    0.12406884677958868    0.09901780706361583    0.07323486026614749    
  0.0519699644440666    0.03714296381312513    0.028057723185830604    0.023109306657016767    0.020761079935483904    
  0.019886592173518163    0.01974741516048865    0.01984081536502463    0.01993704251462005    0.019970281994760575    
  0.019964765646994    0.019970281544174774    0.019937063890341417    0.019840814371750667    0.019747426987355654    
  0.019886575432625928    0.020761078342361395    0.023109237489079726    0.02805768011553831    0.03714283210239705    
  0.03978168722348319    0.05601215692425714    0.07960766672511298    0.1084944063549361    0.13682481498525714    
  0.15729971200551185    0.16583063473288    0.164584776414764    0.1598780264581703    0.15755490575376496    
  0.15987817656209602    0.16458514902556529    0.16583103788492734    0.15730020084369775    0.1368252226251414    
  0.10849483734071824    0.07960793497239696    0.05601238059759028    0.03978178168217264    0.030045074307036745    
  0.024910355236163213    0.02260039341316512    0.021868241552067954    0.02188183027884766    0.022066935352296358    
  0.022179890554100665    0.02219194496041117    0.02217217542744175    0.022191963279176326    0.022179923186225404    
  0.022066966454665424    0.021881833615855936    0.02186827222104331    0.022600375377650944    0.024910337138351092    
  0.0300449903506749    0.03978168722348319    0.040951926203701104    0.05613430073490481    0.07851151834310936    
  0.1061807129408026    0.13355833916368984    0.15348998301477815    0.16195269356106945    0.1608827866875437    
  0.15639742690148548    0.15420393912512428    0.1563975532286339    0.16088303985260918    0.1619531082183617    
  0.1534903979604316    0.13355883252790077    0.1061810685958986    0.07851182568014746    0.05613447286283878    
  0.04095205507646536    0.032125356904814134    0.027831299762826833    0.026328949230617307    0.02631660987578539    
  0.026863961403263    0.027322607562623426    0.02747976266044606    0.02742195833617007    0.027351789459139682    
  0.027421986199501647    0.02747982943643324    0.027322660124816156    0.02686404038961205    0.02631663473195448    
  0.026328981784236986    0.027831257179663376    0.03212531408935131    0.040951926203701104    0.040874000899533476    
  0.052754461265666214    0.07077282204808481    0.0933543105491251    0.11585906420079621    0.13236319559946988    
  0.13953254588144823    0.13878805703099614    0.13510136616661764    0.13328540745741607    0.13510146052895258    
  0.13878829942486118    0.1395328419759899    0.1323635963298589    0.11585939772982665    0.09335465923504153    
  0.07077304851686274    0.052754671228713565    0.04087409906963739    0.034522509654419185    0.03229235660901277    
  0.0326772398184337    0.03429684630897973    0.0359893589184135    0.03698442127524366    0.03717077330083207    
  0.03689783560037762    0.03670726310684369    0.03689789632519413    0.037170859613888954    0.03698454386917945    
  0.03598944790377043    0.034296916453922084    0.0326772385037246    0.03229232571304035    0.03452241288734229    
  0.040874000899533476    0.040278934011884336    0.0474955562261381    0.05956059882635434    0.075136632371979    
  0.09085516037136693    0.10254544970418422    0.10778736491224818    0.10741010509986006    0.10485157019342656    
  0.10355961704285292    0.10485167003958318    0.10741027613281404    0.10778760056438105    0.10254567733340919    
  0.09085545530327617    0.07513685958123134    0.05956083486148173    0.04749569234197485    0.04027908796130246    
  0.03771373477290224    0.03893116336070336    0.042671836400483706    0.04729434133219811    0.05110212475076    
  0.05302077052943613    0.05312788938235112    0.052383239713778854    0.051949896867648816    0.05238331355798854    
  0.053128051613084704    0.053020905556202653    0.05110225800929597    0.047294393506361755    0.04267186525775054    
  0.038931066522143405    0.0377136523741909    0.040278934011884336    0.03997537600594102    0.042113745096123284    
  0.04821567916154694    0.05707726462677609    0.06642987718643384    0.07360447103685061    0.07696084026856286    
  0.07687943996196878    0.07536123501180395    0.07455978158567877    0.07536127216167963    0.07687955721350163    
  0.07696094407109896    0.0736046428241649    0.06643005178671078    0.05707747070929169    0.048215832132977844    
  0.042113930985012    0.03997552238954998    0.042113968926436256    0.048215904729784854    0.0570775233123353    
  0.06643004080742283    0.07360456412896155    0.076960777880398    0.07687932068352686    0.07536105889038519    
  0.07455963153536414    0.07536114953293771    0.07687947848463578    0.07696093293921456    0.07360461540799874    
  0.06643005289696015    0.05707741698501212    0.04821577232240594    0.042113783171250155    0.03997537600594102    
  0.040278984949682746    0.03771366032765217    0.038931043564069415    0.04267179288260384    0.047294328359749865    
  0.05110218129200947    0.05302089685068848    0.05312806964138634    0.05238342726618649    0.05195007181730267    
  0.052383468814816606    0.053128130800707    0.05302100185681163    0.05110228079024793    0.047294467943867366    
  0.042671916889636945    0.03893122907593411    0.03771381701729185    0.04027923030704753    0.047495911859477206    
  0.05956112739964652    0.07513717388951825    0.09085573147856266    0.10254584367751182    0.10778761409174567    
  0.10741016189654358    0.10485154526161054    0.10355953851304397    0.10485160695028767    0.10741030327875674    
  0.10778765218965503    0.10254576392901936    0.09085552211163818    0.07513692008334943    0.05956078548060595    
  0.04749566247558751    0.040278984949682746    0.040874092131263626    0.0345224596287997    0.03229234237440301    
  0.032677235918263464    0.03429690152420311    0.035989437027105754    0.036984555921764035    0.037170919282836716    
  0.0368979860149171    0.03670740085660855    0.03689799350670437    0.03717096142606938    0.03698459812521934    
  0.03598951072822217    0.034296973853676346    0.03267736790376241    0.032292478955726345    0.034522694458931386    
  0.04087436882591204    0.05275509156364505    0.07077361803888206    0.09335536829945217    0.11586013026552748    
  0.13236428670426523    0.13953329392041056    0.13878860126503062    0.13510165540453323    0.13328561297734431    
  0.13510163652377427    0.13878851483147567    0.13953309780153653    0.13236383383794836    0.11585962930653167    
  0.09335476851441751    0.0707731081124053    0.05275466506608381    0.040874092131263626    0.040952068217489736    
  0.03212536808708287    0.027831294152819035    0.026328978878002344    0.026316643018885286    0.02686403272909383    
  0.027322696001981266    0.027479858222548115    0.027422058377279564    0.02735187745793985    0.027422056017674678    
  0.02747988404482486    0.02732273425247424    0.02686407929106686    0.026316736019405627    0.026329075053783825    
  0.027831473688115258    0.032125591973784916    0.04095247315203595    0.056135075648609    0.07851276331073373    
  0.10618223782263597    0.1335602007954967    0.15349167781554626    0.16195421004501953    0.1608838636987206    
  0.1563982651110792    0.1542045037983497    0.1563980929495903    0.16088351081139254    0.16195355763193947    
  0.15349087709031173    0.1335591704328037    0.10618131672502706    0.07851194441612436    0.05613454137439304    
  0.040952068217489736    0.039781833857674295    0.030045079889070507    0.02491037421924613    0.022600394314073534    
  0.021868267644826914    0.021881864466781795    0.022066974414413527    0.022179954369732198    0.022191986733341596    
  0.022172245658077724    0.022192013801851394    0.02217998954830937    0.022067006368334405    0.021881929483095777    
  0.02186834763970443    0.0226005306560718    0.024910530946742934    0.03004536904415463    0.039782239081930335    
  0.05601316758746744    0.0796091050664445    0.10849642490702026    0.13682703109018857    0.1573021011283941    
  0.16583266940830915    0.1645865237169388    0.15987925635257885    0.15755587322310674    0.15987893892727723    
  0.16458588944064897    0.16583169004882978    0.15730078310360138    0.13682569719907028    0.10849514403195908    
  0.07960812124390199    0.056012457460531365    0.039781833857674295    0.03714299471498774    0.02805773854724944    
  0.023109296846888158    0.020761087064601905    0.01988659078139844    0.019747430720340114    0.019840828875057927    
  0.01993705988507655    0.01997031574502735    0.019964804980306033    0.01997034411340426    0.019937105723717614    
  0.019840909490654576    0.019747490671108568    0.019886705504507288    0.020761208213892345    0.023109499771888316    
  0.02805801750439815    0.03714347968239866    0.051970766094621625    0.0732361124838903    0.0990194759909066    
  0.12407086873495121    0.14202044162048044    0.14935590459077544    0.14808973302098163    0.14378993385006647    
  0.14165605287191613    0.14378954218558626    0.1480889668895634    0.14935468121713655    0.14201899425547881    
  0.12406931432957108    0.09901816868894119    0.07323503410178164    0.051970085038676464    0.03714299471498774    
  0.03349153084110539    0.026261269462496996    0.022343559781217926    0.020548859044716053    0.01996938616827479    
  0.01995990116728911    0.020089964665277054    0.020175961639891497    0.02018777835698543    0.020175231736840576    
  0.020187799686606358    0.02017604364939527    0.02009006587891041    0.019960043247416178    0.019969528603183614    
  0.020549055581004647    0.02234376326239058    0.02626158523104161    0.03349194667273032    0.04518073767923905    
  0.061722449217925    0.0815199743134325    0.10055451568497524    0.11407000390793423    0.11950235803274853    
  0.11839503817372382    0.11503565296744594    0.11339245926205835    0.115035244656905    0.11839424585401755    
  0.11950122335824051    0.11406863482364436    0.10055315861287345    0.08151873769789968    0.061721530169108196    
  0.045180055564900526    0.03349153084110539    0.029864867455102955    0.02514887112733803    0.02285465040558492    
  0.022135106077034134    0.022265810449476925    0.022668252661345485    0.022956848550218834    0.023030825194870885    
  0.022975675421735956    0.022931810958534738    0.022975754488073548    0.023030980878169235    0.02295706920935599    
  0.02266847847527166    0.022266076618440475    0.02213534687112531    0.022854933449256286    0.025149179379995872    
  0.029865286972028525    0.0377312484635876    0.04883615490283075    0.06200442696685595    0.07456019940842677    
  0.08342213825672054    0.08698247775285958    0.0862139813473875    0.08396619118148467    0.08288907836557634    
  0.08396585080127103    0.08621339987054452    0.0869815491800978    0.08342107736778523    0.07455909984888895    
  0.062003494269569165    0.04883536090312582    0.03773071507191697    0.029864867455102955    0.027295438941932707    
  0.025317967241226463    0.02513903674404077    0.02611764824941715    0.02753465945971887    0.028723103529401484    
  0.029334784267692857    0.029384595349400935    0.029169108678745205    0.02904409483141188    0.029169259588265557    
  0.029384891659040745    0.029335157390310694    0.02872352335811116    0.02753505704419046    0.026118054430035075    
  0.025139382191539748    0.02531834383938629    0.027295794576192814    0.03145559683735524    0.0377340836370371    
  0.04533986824334936    0.052626313262262754    0.057755811901976664    0.05987070840282879    0.059494944998887585    
  0.058210278644101436    0.05758856362502924    0.05821005933397391    0.05949451258877651    0.05987009430947699    
  0.057755062943638635    0.05262561467751554    0.04533918053049127    0.03773353724526114    0.03145512712609837    
  0.027295438941932707    0.02637300659821631    0.0272954166848093    0.029864832563631278    0.03349145700874514    
  0.03714289903831245    0.03978171169969302    0.04095198740476263    0.04087404100882614    0.04027907868291612    
  0.039975589342139226    0.04027934030951465    0.040874544255279185    0.04095266100850237    0.03978244188151367    
  0.03714363748017604    0.03349206721764386    0.0298653562096938    0.027295815409026397    0.026373402340814228    
  0.027295797114720147    0.029865306304236613    0.033491985058066866    0.03714353481834015    0.039782351650785655    
  0.04095261895419332    0.040874532364296064    0.040279419594388556    0.039975724041060055    0.04027926778368651    
  0.04087427462934604    0.0409522140173667    0.03978191797351737    0.03714306005396935    0.03349155880153923    
  0.02986488393166787    0.027295445195662103    0.02637300659821631    0.02729544541218254    0.031455100619378805    
  0.037733472081848685    0.04533902022911145    0.05262535289651376    0.05775471712922129    0.05986969629417867    
  0.05949409434572023    0.05820973132298279    0.057588337350889585    0.05821017345614639    0.059494961338305126    
  0.05987081371342861    0.05775596759186009    0.05262650435938075    0.04534001289391101    0.03773417948210576    
  0.031455657266884145    0.027295819965312863    0.0253183390063736    0.025139367030069283    0.026118012913410364    
  0.027535018709278592    0.028723494935056684    0.029335132303965804    0.029384887271764457    0.02916929850519955    
  0.029044165482940403    0.029169219546409133    0.029384727363762027    0.029334907481763775    0.028723210534685205    
  0.02753475371809621    0.026117711444371753    0.02513907407972053    0.025317998660436606    0.02729544541218254    
  0.029864877150861818    0.03773068549405805    0.04883527796195034    0.06200327460290242    0.07455870433557589    
  0.08342054204413604    0.0869809117638767    0.08621271886761457    0.08396532550833882    0.08288871162758649    
  0.08396601775957985    0.08621402858677002    0.08698266602207373    0.08342240669626468    0.07456048043674397    
  0.06200465944523864    0.04883631393318049    0.037731349560041205    0.02986534156001528    0.025149198094867414    
  0.02285493276308291    0.02213532881388625    0.022266049697969772    0.022668460599809665    0.022957053450113597    
  0.0230309787705498    0.022975780313691824    0.022931843570596282    0.022975727946703082    0.02303090072925097    
  0.022956912542756027    0.022668313905107186    0.02226586502712324    0.02213515243058994    0.022854683713303917    
  0.02514890709350157    0.029864877150861818    0.03349155412278621    0.045180039689848454    0.06172143241954706    
  0.08151844567178752    0.10055263142140462    0.11406784783323792    0.11950031641725899    0.11839330369596643    
  0.11503447388965543    0.11339192719212501    0.11503537792823396    0.11839509929949475    0.11950264694821813    
  0.11407041254231533    0.10055495828564706    0.08152032335721478    0.061722690682329606    0.045180884523948785    
  0.03349202447830697    0.02626161559683086    0.02234377565021257    0.020549052844796967    0.01996952425311581    
  0.019960040872764866    0.020090065641302675    0.020176050478807436    0.020187824768748888    0.02017524549349875    
  0.02018778622107752    0.020175985148597194    0.020089981760253738    0.019959925483636173    0.019969419412944254    
  0.020548890858825674    0.02234359154899301    0.026261298154943425    0.03349155412278621    0.03714304406659613    
  0.05197007764543589    0.07323495125611018    0.09901784957356942    0.1240686914844668    0.1420180837822884    
  0.14935356480054363    0.1480878098868233    0.14378856020399938    0.14165539516221526    0.14378961993090575    
  0.14808984879836945    0.14935626379798697    0.14202100797610498    0.12407142683598438    0.09901993564766248    
  0.07323642206733579    0.05197094459114423    0.037143574514624654    0.02805806812089386    0.02310952916023008    
  0.020761210492234203    0.019886707645538636    0.019747490788540874    0.019840897057939778    0.01993709644349276    
  0.01997034386009771    0.019964804351571202    0.019970317340399286    0.01993707060803217    0.019840836201711242    
  0.01974743180312358    0.019886601928110707    0.020761104748361424    0.02310931771277587    0.028057792809298224    
  0.03714304406659613    0.039781890709736804    0.05601248921947566    0.07960807579311133    0.10849487306913573    
  0.1368251053307488    0.15729986697597242    0.16583052499121909    0.16458461109849876    0.1598779500006319    
  0.15755517959026952    0.159878950956369    0.16458663431262077    0.16583312441708772    0.15730269615805015    
  0.1368276382655919    0.10849693245869164    0.07960942472453886    0.05601336959772198    0.03978235651219652    
  0.030045431935890404    0.024910556194607168    0.022600535595817733    0.021868342725008014    0.02188192616516398    
  0.022067007401470388    0.022179973795368603    0.022191996208705024    0.022172225068917858    0.022191986753186455    
  0.022179942784856358    0.02206696571156574    0.021881851335682455    0.02186827285052237    0.0226004117963942    
  0.024910397957756517    0.030045131497024546    0.039781890709736804    0.04095213535532815    0.05613459093074584    
  0.07851193025456567    0.10618111925695045    0.13355864738121032    0.15349005179125344    0.16195252651205025    
  0.16088243335591298    0.15639714967297277    0.15420388724119305    0.15639794246154012    0.16088397674385005    
  0.16195463600219873    0.15349227723342052    0.1335607752770528    0.10618272830582463    0.07851309327743998    
  0.056135280522284656    0.04095257440279053    0.032125662828857295    0.02783150965318143    0.026329088339137306    
  0.026316737310871554    0.02686407685315114    0.02732272813552148    0.02747985384441607    0.027422047925156158    
  0.027351836671045928    0.027422015423942025    0.027479821873310235    0.027322651482579573    0.02686401621479182    
  0.026316633768427435    0.026328989554072365    0.027831324219015966    0.032125427523448616    0.04095213535532815    
  0.04087417081745207    0.05275471903452716    0.07077315671370688    0.09335464477598543    0.11585926879999293    
  0.13236323829147864    0.13953230894715746    0.13878764979311814    0.13510094342043238    0.1332851383428054    
  0.1351014498931465    0.13878870318691017    0.13953366009876456    0.13236474300356038    0.11586062493349783    
  0.0933557755976347    0.07077390439814021    0.05275527104789987    0.04087447603193551    0.034522764580588436    
  0.032292533408920375    0.03267740403757796    0.034296990713634574    0.0359895241437249    0.0369845729358118    
  0.03717092398375619    0.036897951843691754    0.036707338199048235    0.036897914806228796    0.03717084796271731    
  0.03698448837177834    0.03598937683090256    0.03429687637667309    0.03267722560769195    0.032292366803504884    
  0.034522505705146776    0.04087417081745207    0.0402790662340642    0.047495735658168024    0.05956085557248521    
  0.0751368705670851    0.0908553056196721    0.10254544247300097    0.10778714484668557    0.10740974630163491    
  0.10485114194164505    0.10355924386713687    0.10485142225874845    0.10741028128259757    0.10778788365723894    
  0.10254619161451646    0.09085607662827831    0.07513745341377805    0.05956132929719976    0.04749605403845327    
  0.040279336552647114    0.03771391294080218    0.03893131594859438    0.04267198102066105    0.04729450912457503    
  0.05110231384555673    0.05302097580994536    0.053128082299433645    0.052383390520729184    0.05194998052515042    
  0.052383321363163524    0.053127973799454525    0.05302079391919721    0.05110212121030337    0.04729427855936064    
  0.04267178263746288    0.0389310609542781    0.03771370461729962    0.0402790662340642    0.03997544899686897    
  0.04211385805387697    0.048215832615366196    0.05707741361211185    0.066429964458664    0.07360442978254585    
  0.07696067052314456    0.07687915503397667    0.07536090048220956    0.0745594318688655    0.07536098190458161    
  0.07687938781192898    0.07696093560069646    0.07360476539569781    0.06643026486968533    0.057077712670912155    
  0.04821605241338135    0.04211410235360096    0.03997564407865409    0.04211405761457266    0.048215971906060806    
  0.057077603228639244    0.0664301704580423    0.07360473797222114    0.07696098853824093    0.07687952098158722    
  0.07536119997087835    0.07455967661767358    0.07536111372695721    0.07687932300050428    0.0769607147674216    
  0.07360437966555015    0.06642983637969437    0.05707725613552675    0.04821569546015057    0.04211378626297547    
  0.03997544899686897    0.04027899674705029    0.037713712515297704    0.038931132930807605    0.04267187191270133    
  0.04729435241645168    0.05110218409368598    0.05302077918059473    0.05312788080695577    0.052383170712509065    
  0.051949813657297075    0.052383210847199435    0.05312792685089923    0.05302085937957952    0.05110223410904297    
  0.04729447031387767    0.04267196509677958    0.03893127411492354    0.03771385725825397    0.04027922440315572    
  0.04749588111788767    0.05956107216516764    0.07513712264567816    0.09085572050085462    0.10254591391508149    
  0.10778773689264874    0.10741028269568988    0.10485163092781942    0.1035595156250718    0.10485144215251765    
  0.10741000490724734    0.10778726781282122    0.10254536225039199    0.09085513315515101    0.07513664239866097    
  0.05956063707725174    0.04749561309081241    0.04027899674705029    0.04087406603270855    0.034522461025115234    
  0.03229239019725246    0.032677266091719157    0.034296923471346843    0.035989421295022014    0.036984502026948314    
  0.03717078358817301    0.03689785161515172    0.03670721848902737    0.03689783292192946    0.03717078418503757    
  0.03698446113953005    0.035989406753628723    0.034296915713059886    0.03267731532372797    0.0322924490234455    
  0.034522624793059176    0.040874269368549564    0.052754912119037746    0.07077340334047015    0.0933550840529029    
  0.11585986130720134    0.13236404303146113    0.13953315266211275    0.13878847412140366    0.1351015423130187    
  0.13328538528146627    0.13510130440271836    0.13878799722158425    0.13953255071969883    0.13236323413696074    
  0.11585911746439995    0.09335438621057524    0.07077289083836664    0.052754535819982525    0.04087406603270855    
  0.04095198904737189    0.03212536315350218    0.027831297283949362    0.02632899237830506    0.02631663804959598    
  0.026864027159974678    0.02732264398723232    0.02747980640938887    0.0274219554543241    0.027351776430956803    
  0.027421925843731428    0.027479778709407446    0.02732262624785931    0.026863999101317645    0.026316643233962204    
  0.026329014468711203    0.027831376179833934    0.032125483067544515    0.04095226611059628    0.05613478992339121    
  0.07851230434538391    0.10618167713171035    0.13355951781748326    0.1534910729947472    0.16195365458713828    
  0.16088341928802274    0.15639781054659993    0.15420405625545086    0.15639753129296047    0.16088287381370153    
  0.16195281587788912    0.15349017234026485    0.13355853161608527    0.1061808835221823    0.07851165298652697    
  0.05613440236684283    0.04095198904737189    0.039781771179380726    0.030045033040678286    0.02491037424925938    
  0.022600382676466295    0.021868274429886578    0.0218818458314541    0.022066969214466048    0.02217989861175376    
  0.022191948827967933    0.022172164388959872    0.022191935544441516    0.022179892026026375    0.022066932127383046    
  0.02188183497337892    0.0218682756866044    0.022600426556186014    0.024910428505817213    0.030045200183971242    
  0.03978199522609256    0.05601274608446396    0.07960849876161888    0.10849557097943459    0.13682608128706122    
  0.15730105939945072    0.16583175229836705    0.16458564397381012    0.15987856084079768    0.15755516311531167    
  0.15987824884371368    0.1645850958176302    0.1658309682591649    0.15730002622736644    0.13682511185681548    