#     DFTpy    
  CRYSTAL 
    
  PRIMVEC    
  4.523739701545598    -2.4854307999999997e-10    4.710954744827585e-10    
  -2.4854307999999997e-10    4.523739701282736    2.2699657862068962e-10    
  8.608675827586206e-10    4.1487656551724133e-10    8.287578806164507    
  PRIMCOORD    
  4    1    
  Si    2.261869850686612    2.2618698518861464    2.5467253096722433    
  Si    8.387597002948865e-10    -7.762609230242379e-10    1.5970640906241278    
  Si    1.286460233458067e-10    5.862623719801783e-10    6.6905147108396    
  Si    2.261869851364772    2.261869850167798    5.7408535018911335    
  BEGIN_BLOCK_DATAGRID_3D    
  3d_datagrid_density    
  BEGIN_DATAGRID_3D#0    
  21    21    37    
  0.0    0.0    0.0    
  4.523739701545598    -2.4854307999999997e-10    4.710954744827585e-10    
  -2.4854307999999997e-10    4.523739701282736    2.2699657862068962e-10    
  8.608675827586206e-10    4.1487656551724133e-10    8.287578806164507    
  0.09908885627904142    0.09347414134939751    0.07901938347714936    0.0610434196330418    0.044521546613091684    
  0.031913109955066264    0.02339544804415577    0.018131789518259726    0.015135633299402198    0.013639894974605068    
  0.013195447868581862    0.013639896207570478    0.015135639379472172    0.018131786409410277    0.02339544000714636    
  0.031913100906958744    0.04452156443069795    0.06104340021519586    0.07901936754205252    0.09347414386502337    
  0.09908885627904142    0.09347413574424995    0.08823024690092565    0.07473995141725147    0.05798592394722807    
  0.04254197133154008    0.030711584161165335    0.022683266038329174    0.017710398946519636    0.014872386292624126    
  0.013456227508036307    0.013033263443948142    0.013456233819129361    0.014872381668819087    0.017710402228520536    
  0.0226832642631379    0.030711586078685738    0.04254199689499049    0.057985941032380785    0.0747399482440804    
  0.08823025350671661    0.09347413574424995    0.07901938220935742    0.07473993701896546    0.06377345365773637    
  0.050107177249967876    0.03740419140825866    0.027552042067853992    0.020797494930031035    0.016576702059468488    
  0.01416254092971789    0.012960646155739244    0.012602049833724698    0.012960647457057044    0.01416254378622202    
  0.016576703625761528    0.02079748754818785    0.027552044644389446    0.03740419403295552    0.05010716772620332    
  0.06377347200487274    0.07473991549896644    0.07901938220935742    0.06104342615755764    0.05798594168060198    
  0.05010715701517867    0.04019805346585009    0.030838471644893478    0.023461740673928512    0.018324278105057386    
  0.015087468307994035    0.01323748590769848    0.012318999959328307    0.012044423147089348    0.01231900001255981    
  0.013237485007843464    0.015087464284485931    0.01832427287244264    0.02346174096246623    0.03083847600529635    
  0.04019804835308214    0.05010716599517221    0.05798593949781493    0.06104342615755764    0.04452156342145893    
  0.04254198452171346    0.03740419295979346    0.03083848567844458    0.024529671979245802    0.0194666968922837    
  0.015896121433274204    0.013640537938665607    0.012370086608939995    0.011751541091460385    0.011568601152194147    
  0.011751543565479899    0.012370086629832959    0.013640543879685418    0.01589612333399846    0.01946669504392976    
  0.024529677278903157    0.030838473229576505    0.037404198842125834    0.04254196655336675    0.04452156342145893    
  0.03191310467820069    0.030711584506195957    0.02755203352850847    0.02346173940710103    0.019466684440445883    
  0.016226355195717683    0.013937960496359227    0.012517756053692179    0.01176174021843614    0.01142407779800144    
  0.011331751794799377    0.011424080738505525    0.011761738381770226    0.01251775321191364    0.013937955417569493    
  0.016226353535993387    0.019466702655677716    0.023461733904573685    0.027552039185697163    0.030711576111229197    
  0.03191310467820069    0.0233954377860336    0.02268326745730798    0.020797492439619588    0.018324278229473922    
  0.015896119780938602    0.013937953966243739    0.01259880475131793    0.011832045570274083    0.011493542493557635    
  0.01139235665557987    0.011376808122957377    0.01139235520341554    0.011493552405057174    0.011832040034014698    
  0.01259880236432897    0.013937958355569945    0.015896126104690954    0.018324273418562458    0.020797493448168117    
  0.022683249507005638    0.0233954377860336    0.018131792898549454    0.017710402247851    0.016576694461211246    
  0.015087468693394968    0.013640535590044316    0.012517761230860711    0.011832037088614616    0.011547941976831183    
  0.011532574060491057    0.011617625701529175    0.011666016430601    0.011617626058491893    0.01153257672060048    
  0.011547937829915094    0.011832035694271869    0.012517758039013418    0.013640540051501582    0.015087457982382474    
  0.01657671115089039    0.01771040460442248    0.018131792898549454    0.015135648392046506    0.014872390331685836    
  0.014162544606560632    0.013237492452428015    0.01237008990939518    0.011761743657265265    0.011493549378630747    
  0.011532580308723145    0.011749018870371917    0.011976464682790934    0.012070023430021342    0.011976465922607805    
  0.01174901279750666    0.011532577844566315    0.011493545765410217    0.011761748019555703    0.012370085835063294    
  0.013237482282831734    0.014162552209613832    0.014872384166171352    0.015135648392046506    0.013639894253841206    
  0.013456237612754876    0.012960641148415728    0.012319007178994637    0.011751539027473723    0.011424082389615422    
  0.011392354153338531    0.011617616283615614    0.011976462897740507    0.01228476063853016    0.012405174543003846    
  0.012284765581363067    0.011976453063744976    0.011617621850231004    0.011392355593514425    0.01142408057919941    
  0.011751546296201556    0.012318998145345409    0.01296064906631991    0.013456224223988726    0.013639894253841206    
  0.013195446207327525    0.013033262909256561    0.012602050597077615    0.012044420097156106    0.011568598862961882    
  0.011331750157291194    0.011376812065034322    0.011666013667986311    0.01207002141110603    0.01240518339791486    
  0.012526587146425188    0.012405186876496697    0.012070014733342719    0.011666014599326119    0.011376808751351756    
  0.011331747398986897    0.011568607492215506    0.012044414488595641    0.012602052832716261    0.013033258605887608    
  0.013195446207327525    0.01363989810213184    0.013456235597475675    0.012960645009190405    0.012318999909495152    
  0.011751537996605556    0.011424082294154795    0.011392355297967975    0.011617623954057459    0.011976461202305845    
  0.012284755958300642    0.012405173679593552    0.012284768112309823    0.011976460287139157    0.011617619887326337    
  0.01139235532669324    0.011424082057052953    0.011751544741029782    0.012319000369530044    0.012960652436080506    
  0.013456229684130547    0.01363989810213184    0.015135644483184708    0.014872385801567205    0.014162540543976218    
  0.01323749048459626    0.012370094226326442    0.0117617389072895    0.011493550589611849    0.011532578804525444    
  0.011749013061616315    0.01197646148017841    0.012070021374101965    0.011976462866924161    0.011749015328388204    
  0.011532571520594323    0.011493549634098594    0.011761746553724355    0.012370086638386867    0.013237484722367571    
  0.014162553503398677    0.01487238929458253    0.015135644483184708    0.01813178688350333    0.017710408246112374    
  0.01657669193315812    0.01508746593688677    0.013640541919581441    0.012517754842069049    0.011832037912537808    
  0.011547945989076155    0.011532576512317221    0.011617617825913138    0.011666015118190282    0.011617624478947094    
  0.011532579979164643    0.011547945599308827    0.011832033001140895    0.012517755815942486    0.01364053746597866    
  0.01508745751125908    0.016576704432286853    0.017710396614688796    0.01813178688350333    0.02339543940436253    
  0.022683266033813057    0.020797488489883165    0.018324274963864552    0.015896119542567737    0.013937964272288578    
  0.012598802053080714    0.011832036996147623    0.011493551952663156    0.011392353882928636    0.011376816512886353    
  0.011392352950498208    0.011493550007755272    0.011832045064092515    0.012598805758937038    0.013937962495822302    
  0.015896121129521337    0.018324277663852983    0.020797494145897346    0.022683254460830433    0.02339543940436253    
  0.03191310340920897    0.03071158787903301    0.027552027832456315    0.023461741990685053    0.019466688401709314    
  0.0162263605860336    0.013937962813958942    0.01251775296388524    0.011761742848164477    0.01142407691640783    
  0.011331747350477718    0.011424080641624496    0.011761740866621427    0.012517753455190975    0.013937958383826145    
  0.016226356175035674    0.01946670185073676    0.02346173080678551    0.02755203554952565    0.03071158557296308    
  0.03191310340920897    0.04452156268163861    0.04254198204933389    0.0374041898424599    0.030838485987243855    
  0.024529661083033075    0.01946669673737751    0.015896123427369457    0.01364053842324577    0.0123700890087762    
  0.011751542412729856    0.011568601678538161    0.011751543636005298    0.012370084737372973    0.013640546401606581    
  0.015896123201652172    0.019466696489700085    0.024529665201443767    0.030838486827080947    0.03740419907798156    
  0.042541965754478966    0.04452156268163861    0.06104342410314217    0.057985943269640176    0.05010714136308875    
  0.0401980505058101    0.030838482264529624    0.023461747820459067    0.01832427732663194    0.01508746287648786    
  0.013237485853027309    0.012318996790372736    0.012044420597244957    0.012318998773913655    0.01323748612169643    
  0.01508746419591351    0.018324274586414897    0.023461734400557675    0.030838473604467797    0.04019805067978944    
  0.050107164758540025    0.057985954597970325    0.06104342410314217    0.07901937774912358    0.07473992370662907    
  0.06377345774329476    0.050107170732880756    0.03740419090800473    0.027552044328303698    0.020797486872575984    
  0.016576699301391475    0.014162543503399532    0.012960645899790688    0.012602049573570756    0.012960646569757437    
  0.014162543678927284    0.016576696524867884    0.020797485716099746    0.027552047644384303    0.03740418697784073    
  0.05010716129114008    0.06377345808059214    0.07473993566601286    0.07901937774912358    0.09347410994270638    
  0.08823026584076829    0.0747399448663834    0.05798595575603685    0.04254197950903931    0.030711586598604526    
  0.02268326431393819    0.017710402668151434    0.014872386788242466    0.013456229231114605    0.013033263310137154    
  0.01345623582439884    0.014872386959970079    0.017710406008191546    0.02268326358214793    0.03071158190925883    
  0.0425419882464026    0.05798594094326554    0.07473995184707964    0.08823025917741721    0.09347410994270638    
  0.09908885627904142    0.09347414134939751    0.07901938347714936    0.0610434196330418    0.044521546613091684    
  0.031913109955066264    0.02339544804415577    0.018131789518259726    0.015135633299402198    0.013639894974605068    
  0.013195447868581862    0.013639896207570478    0.015135639379472172    0.018131786409410277    0.02339544000714636    
  0.031913100906958744    0.04452156443069795    0.06104340021519586    0.07901936754205252    0.09347414386502337    
  0.09908885627904142    0.1230058697500027    0.11561743246786163    0.09669804836099216    0.0734126135029975    
  0.052218258186598844    0.0362596664169998    0.025698658534137764    0.01932121075317807    0.015741271936316057    
  0.01396732775691187    0.013435205818277552    0.013967331936708094    0.01574127849182243    0.019321206716492092    
  0.025698657119977205    0.03625966435304765    0.05221825620318741    0.07341259524154356    0.09669803574291101    
  0.11561741981430736    0.1230058697500027    0.11561743901575845    0.10876246205168928    0.09119799828803475    
  0.06952461443417242    0.0497433896297617    0.03478622620534175    0.024855764199189664    0.018835295636987274    
  0.01545177169492398    0.013771038441494804    0.01326883117622337    0.013771043863724406    0.015451765231850803    
  0.018835298078641018    0.02485575761682048    0.03478622638137636    0.049743409956472105    0.06952463438705364    
  0.09119800447794722    0.10876245690880121    0.11561743901575845    0.09669801886057218    0.09119798006401827    
  0.0770488691865249    0.05948577733750448    0.043301693795386745    0.030939020922976877    0.02263630772437363    
  0.01755759761582936    0.014685842636572046    0.013259822788766407    0.012833748632840088    0.013259827068052902    
  0.014685844539116895    0.017557597458166235    0.02263629424524158    0.030939020994110566    0.043301690668042285    
  0.05948576156109461    0.07704889990702134    0.09119796528311888    0.09669801886057218    0.07341262535685537    
  0.06952462062365918    0.059485770814385074    0.04688844841518427    0.035123073233004835    0.025994043595424423    
  0.01976708617634293    0.01590518793402705    0.013711245356395422    0.012622467666753219    0.012298787070607754    
  0.012622465571926795    0.013711245495768755    0.015905191294754668    0.01976707182984122    0.025994038066794446    
  0.03512307513567386    0.0468884310725145    0.05948577184999288    0.06952463810759432    0.07341262535685537    
  0.05221826359469551    0.049743400128089185    0.043301687701472975    0.035123076519575226    0.027354678487457797    
  0.021226436290117633    0.01697443630886152    0.01431522918997199    0.012814175775980402    0.012084302495069806    
  0.011870646385412183    0.012084307021796525    0.0128141764362981    0.01431522960484607    0.016974439786211444    
  0.021226427782540993    0.02735469040580654    0.03512307257932173    0.043301702575172026    0.04974339617684045    
  0.05221826359469551    0.03625967508959049    0.034786226625777614    0.03093901588384353    0.025994040926692892    
  0.021226424451662534    0.017406981193936837    0.014741245736452753    0.013093340012504524    0.01220991660298194    
  0.011815488497284147    0.011707924729950235    0.011815494667711684    0.012209916419712802    0.013093338820930896    
  0.014741242023822893    0.017406984536247113    0.02122643583543929    0.025994037530099705    0.030939017991286663    
  0.03478621738396684    0.03625967508959049    0.025698656986202086    0.024855761186316903    0.022636303639689145    
  0.019767085657566335    0.01697442933893682    0.014741242874963366    0.0132245492912314    0.012365557156378897    
  0.011990071760586779    0.011881784869629482    0.011866765999721274    0.011881786572162784    0.011990083191570682    
  0.01236555391004257    0.013224550528125267    0.014741245643800548    0.016974441271348898    0.01976708161676548    
  0.022636310939736805    0.024855748900162056    0.025698656986202086    0.019321216433197497    0.01883529692983689    
  0.01755759605317372    0.015905188889899852    0.014315225822265382    0.013093342035235638    0.012365553181141848    
  0.012087712716036106    0.012108263508514364    0.012232439125939073    0.012293956314503576    0.012232436451834524    
  0.012108255965198671    0.012087714492704054    0.012365548499722509    0.013093341072489845    0.014315225406903184    
  0.01590518284441538    0.01755760940097297    0.018835302525645622    0.019321216433197497    0.0157412846049683    
  0.015451778310549743    0.014685840695731681    0.0137112535860537    0.012814175494836478    0.012209918286969634    
  0.011990080079467192    0.012108273147537383    0.01241536312106595    0.01271382456376951    0.012837395441503776    
  0.012713829719327064    0.0124153640649898    0.012108267328483536    0.011990073941530888    0.012209924367201782    
  0.012814177625776399    0.013711243041037683    0.01468585373456795    0.015451770339958351    0.0157412846049683    
  0.013967327450973309    0.013771042062768801    0.013259821165890235    0.012622474164989404    0.012084301120731722    
  0.01181549354065848    0.011881788699210796    0.012232431773033176    0.012713828025585811    0.013122143734101754    
  0.013278770183790686    0.01312214355915612    0.012713828663661915    0.012232434357734917    0.011881789488816708    
  0.01181549052974645    0.012084308219951838    0.012622463350401103    0.013259826777570715    0.013771033086347943    
  0.013967327450973309    0.013435203974586925    0.013268833060188136    0.012833743447842983    0.012298793375770705    
  0.011870642646573327    0.01170792720950886    0.011866764491906446    0.012293952689025183    0.012837395626163853    
  0.013278774042173539    0.013448940845428914    0.013278779967148543    0.012837394780436558    0.012293946930998587    
  0.011866761666711034    0.011707921739703463    0.011870651828521223    0.01229878062890324    0.012833749037153614    
  0.013268823885963522    0.013435203974586925    0.013967336388386186    0.013771043087387323    0.013259825991778579    
  0.0126224624305586    0.012084301623719672    0.011815487778774917    0.011881793605882039    0.012232439887422968    
  0.01271382352545122    0.013122136885286038    0.013278774689458003    0.013122138997757677    0.012713817963870834    
  0.0122324336679566    0.011881790716081819    0.011815492152622578    0.012084309466952402    0.01262246528802105    
  0.013259832241618858    0.013771033982793935    0.013967336388386186    0.015741281631840538    0.015451773020599111    
  0.014685840061932779    0.013711249842643658    0.012814182074777079    0.012209921216395957    0.011990079915143396    
  0.012108268597599276    0.012415356430952899    0.012713824922066132    0.012837396895420471    0.012713827721055108    
  0.012415362229215418    0.012108260299759923    0.011990079752894792    0.01220992068491047    0.012814177519292728    
  0.013711242042015175    0.01468585735756721    0.015451776727236194    0.015741281631840538    0.019321208878580447    
  0.018835296046356857    0.017557596526537444    0.015905186007435613    0.014315233401661359    0.013093341260628711    
  0.012365554138083084    0.012087715273623336    0.01210826519581372    0.012232434650102894    0.01229395463553746    
  0.012232437978022941    0.012108258993473198    0.012087706548313572    0.012365554114909812    0.013093343092891147    
  0.014315222751209215    0.015905179642044912    0.017557607787373575    0.018835289590473415    0.019321208878580447    
  0.025698658863086643    0.024855766101709774    0.022636299568480102    0.01976708759224346    0.016974431246783796    
  0.014741246398567918    0.01322454735774611    0.012365552890078804    0.011990074647819569    0.011881788133634105    
  0.011866766719144259    0.011881786092330976    0.011990083350952106    0.0123655550016852    0.013224552018884905    
  0.014741242525437261    0.016974437200677775    0.019767078197597824    0.022636308424342007    0.024855754961878574    
  0.025698658863086643    0.036259659420838544    0.03478622443008267    0.030939008811864177    0.02599403311364974    
  0.021226427172873142    0.01740698966196521    0.014741245964015647    0.013093338378665494    0.012209918044796528    
  0.011815485040982246    0.011707922937743644    0.011815486996394337    0.012209917080679651    0.0130933387458967    
  0.014741241230098926    0.017406984670894087    0.02122643442571947    0.02599402926446109    0.03093902022094828    
  0.034786227902304886    0.036259659420838544    0.05221825645791102    0.0497434026166765    0.0433017024147979    
  0.03512308813121355    0.027354679628027893    0.021226435507168302    0.016974438064847417    0.014315227066122257    
  0.012814176246189654    0.012084308141090995    0.011870642202246874    0.012084307567349144    0.012814176641940992    
  0.014315228424366949    0.01697443577396141    0.02122643006073491    0.027354689819798363    0.035123084033970804    
  0.043301698634209976    0.04974338941097638    0.05221825645791102    0.07341261569503119    0.06952462799186987    
  0.059485746449811805    0.04688845038434329    0.03512307331128494    0.02599404315588912    0.01976708517109194    
  0.015905183956921996    0.013711243730017052    0.012622464067151513    0.012298788922578406    0.012622468701536469    
  0.013711244562066157    0.015905187977317443    0.01976707976313321    0.025994038477337823    0.03512307831643523    
  0.04688844943078763    0.059485763797280836    0.06952462286207096    0.07341261569503119    0.09669804168274058    
  0.09119797780517397    0.07704887111712781    0.05948577439538821    0.04330168939083235    0.030939026106598832    
  0.022636300240835367    0.017557601278265007    0.014685848363534678    0.013259824855280615    0.012833747908009601    
  0.013259824735034167    0.014685844432174163    0.017557598780817227    0.022636300528486815    0.030939024938578457    
  0.043301694835609666    0.059485748343527795    0.07704890296891671    0.09119797944996645    0.09669804168274058    
  0.11561740733302552    0.10876245419181725    0.09119799251616739    0.06952463160779927    0.04974339134540191    
  0.03478622803148428    0.024855755453926508    0.01883529263394864    0.01545177215281662    0.013771037334498623    
  0.013268831453010936    0.013771044464408298    0.015451771901463436    0.018835298825880697    0.024855760262212312    
  0.034786225699273886    0.04974340364256171    0.06952460514038754    0.0911979991156227    0.10876245026148672    
  0.11561740733302552    0.1230058697500027    0.11561743246786163    0.09669804836099216    0.0734126135029975    
  0.052218258186598844    0.0362596664169998    0.025698658534137764    0.01932121075317807    0.015741271936316057    
  0.01396732775691187    0.013435205818277552    0.013967331936708094    0.01574127849182243    0.019321206716492092    
  0.025698657119977205    0.03625966435304765    0.05221825620318741    0.07341259524154356    0.09669803574291101    
  0.11561741981430736    0.1230058697500027    0.20775500758737364    0.1942326389865639    0.1593589846489729    
  0.11655603095880412    0.07832656264287823    0.0505252682629988    0.03300183151891542    0.022931714654890585    
  0.017518852342237254    0.014905631062809054    0.014130816270294697    0.01490563893983859    0.01751885398268482    
  0.022931720160876384    0.033001821467372065    0.05052526383916524    0.0783265714851952    0.11655602194850645    
  0.15935895102919997    0.19423260209095458    0.20775500758737364    0.19423262408682543    0.1817004710931094    
  0.14934514283977182    0.10960610536884455    0.07406230889157273    0.04814836116399219    0.031739438221693055    
  0.022274294030608224    0.017166216522938926    0.01469644387837988    0.013963077456528718    0.014696451093733513    
  0.017166213633653653    0.022274296194184636    0.03173943450080305    0.048148348932289656    0.07406232265121776    
  0.10960611060883607    0.14934515327343617    0.18170047681718188    0.19423262408682543    0.15935894309884635    
  0.14934510409359428    0.12348822986293445    0.09165198695642626    0.06303648907283362    0.041971310411995325    
  0.028461236843421733    0.020566870996985093    0.016262818466492912    0.014166303818425489    0.013544504476672463    
  0.014166308994879966    0.016262816767723846    0.020566867260441466    0.028461231576083133    0.04197130987930963    
  0.06303647832409721    0.09165197664700639    0.12348826019379268    0.1493451118518838    0.15935894309884635    
  0.11655602641499362    0.10960612319492133    0.09165198257923539    0.06945048194729334    0.049271838741047486    
  0.03416922265965458    0.024290669849546517    0.018409573176575638    0.015154305744014555    0.01356281441406297    
  0.013091697644274425    0.013562815259738615    0.01515430704731833    0.018409567957460668    0.024290661561777033    
  0.034169221125242434    0.04927183936758792    0.06945046635533879    0.09165198847539263    0.10960609836475108    
  0.11655602641499362    0.0783265794938369    0.0740623082598394    0.06303649923155377    0.04927184385246288    
  0.03654869242277691    0.026824478569910225    0.020330997613546974    0.016393939584116664    0.014207557868948765    
  0.013152834061892498    0.012847654446272432    0.013152841164936922    0.014207554751222097    0.01639394235216058    
  0.020331009066164262    0.026824474074354756    0.03654870143133163    0.0492718398353979    0.06303650656745341    
  0.07406229650307078    0.0783265794938369    0.050525265119711865    0.048148354296575026    0.04197129912560001    
  0.0341692234084244    0.026824468550674226    0.021112386202710765    0.017245603047269777    0.014920618414287651    
  0.013682750186698164    0.013133191381273867    0.012985334474581042    0.013133199408504907    0.013682746191890333    
  0.014920617914836813    0.017245600370312315    0.02111238742494946    0.026824484212465756    0.03416921620368864    
  0.04197130652159662    0.04814834770535399    0.050525265119711865    0.033001826880788385    0.03173943425188244    
  0.028461239025915717    0.024290674679256597    0.020330997185453073    0.01724560320738876    0.015222191697632476    
  0.01412542287917518    0.013681540082987565    0.013579617048831042    0.013575399953805432    0.0135796110086013    
  0.013681545617296132    0.014125420840977078    0.015222194874944403    0.01724560488357709    0.02033100912768522    
  0.02429066795681544    0.028461238095639312    0.03173941990737121    0.033001826880788385    0.022931726549918464    
  0.02227429519647586    0.020566862987801287    0.018409569657658154    0.016393932136028803    0.014920620804945571    
  0.014125414648669225    0.013932069149586123    0.0141224894781454    0.014406397289567392    0.014532994592633    
  0.014406400398199596    0.014122490437222628    0.013932064562062842    0.014125412591895557    0.014920620836350894    
  0.016393934387067797    0.018409564237369957    0.020566876250063516    0.022274298233521304    0.022931726549918464    
  0.017518865185387856    0.017166219632795764    0.01626281775391852    0.01515431548228305    0.014207558683987742    
  0.013682748045252035    0.013681545363130753    0.014122498405075082    0.014784839336836676    0.015374082319900232    
  0.015608530723939409    0.01537407884762777    0.014784836342545437    0.014122498243351718    0.0136815413620341    
  0.01368275464935683    0.014207555087028926    0.015154309031826551    0.01626282935554918    0.017166212156155377    
  0.017518865185387856    0.014905629499112151    0.014696449723209118    0.014166300667015519    0.013562819794791441    
  0.01315283319066199    0.013133194419657985    0.013579614297094077    0.014406389921611517    0.015374078169295072    
  0.016162692318784005    0.016470300794180277    0.016162699048394222    0.0153740793032351    0.014406395295255106    
  0.013579616494686784    0.01313319644243546    0.01315284543536801    0.013562810934257388    0.014166307310050773    
  0.014696441659609101    0.014905629499112151    0.014130817292152155    0.013963075933458972    0.013544503321717933    
  0.01309170072287917    0.012847654009677158    0.012985335633637064    0.013575404333943842    0.014532993244751402    
  0.015608525283528478    0.016470305731355286    0.016801316765673868    0.016470302915143138    0.01560852400103722    
  0.014532991560550058    0.013575398345204468    0.012985331663101332    0.012847656388011853    0.013091693232878714    
  0.013544509355110245    0.013963067701763846    0.014130817292152155    0.014905635261950259    0.014696448594279064    
  0.014166303409705266    0.013562815045174172    0.013152834350722961    0.013133195879740371    0.013579612870635579    
  0.01440639780726768    0.015374073875190481    0.016162690251936465    0.016470298365776126    0.016162697679236178    
  0.015374076832231751    0.014406398850693237    0.013579607042772182    0.013133194555041805    0.013152843285313855    
  0.013562810017183034    0.014166314569709817    0.014696445252060125    0.014905635261950259    0.017518865535583544    
  0.017166216366225128    0.016262818503592857    0.015154310648339568    0.014207565030021449    0.01368274904659742    
  0.013681548092672295    0.014122495263310948    0.014784844237995599    0.015374072557486643    0.015608524426081285    
  0.015374086987398764    0.014784842478448324    0.014122491039378644    0.013681543391808021    0.013682755382131113    
  0.014207554243247128    0.015154307150208064    0.016262833241025534    0.017166216979131416    0.017518865535583544    
  0.02293171914778412    0.022274302510430898    0.0205668626732801    0.01840957386313543    0.016393934543913982    
  0.01492061908325055    0.014125420184671531    0.013932065950939666    0.014122491141951871    0.014406392090166484    
  0.014532996214514812    0.014406400006459524    0.014122493824033496    0.013932065078367908    0.014125414635592208    
  0.014920616570461061    0.01639393324416181    0.018409566810678752    0.020566872394187568    0.022274292999917723    
  0.02293171914778412    0.0330018272766855    0.03173943982026803    0.028461230840418298    0.024290671424818305    
  0.020331002438520325    0.017245603098032813    0.015222196771992755    0.014125415381929863    0.013681542248490788    
  0.01357961156699657    0.01357540723223141    0.013579615806607373    0.013681548506167861    0.014125423448104225    
  0.015222197579746617    0.01724560786530505    0.020331008755937057    0.02429066250994141    0.028461245276160705    
  0.03173942395309518    0.0330018272766855    0.05052526201073231    0.04814835598001188    0.0419712992554837    