#     DFTpy    
  CRYSTAL 
    
  PRIMVEC    
  2.9195172413793102    0.0    0.0    
  0.0    2.9195172413793102    0.0    
  0.0    0.0    2.9195172413793102    
  PRIMCOORD    
  2    1    
  Si    0.0    0.0    0.0    
  Si    1.4597586206896551    1.4597586206896551    1.4597586206896551    
  BEGIN_BLOCK_DATAGRID_3D    
  3d_datagrid_density    
  BEGIN_DATAGRID_3D#0    
  13    13    13    
  0.0    0.0    0.0    
  2.9195172413793102    0.0    0.0    
  0.0    2.9195172413793102    0.0    
  0.0    0.0    2.9195172413793102    
  0.05485681872972215    0.10396441191669213    0.2736648254477586    0.4004658952339735    0.3471249277406248    
  0.26333136738399804    0.23267360713041835    0.2633313123802958    0.3471249858874529    0.40046588331171856    
  0.2736647527361221    0.1039644117148391    0.05485681872972215    0.10396442815848135    0.16207406629076104    
  0.32244845110360354    0.40889481495668795    0.3427536575989333    0.26208429777910125    0.2332023980423196    
  0.26208423877601844    0.3427537006077007    0.4088947940843966    0.3224483902620343    0.16207402713378674    
  0.10396442815848135    0.27366483560811433    0.3224485046247166    0.40752610471687184    0.40520390049257277    
  0.32626237523466667    0.2582935009172338    0.2348134873553042    0.2582935216234963    0.3262624032353972    
  0.405203899179977    0.40752618307165134    0.32244847278841704    0.27366483560811433    0.40046583763960597    
  0.4088948161176896    0.4052038745098468    0.36045764257994645    0.2980530454466086    0.25188410506440667    
  0.23591442820955605    0.25188411523028303    0.29805306380834173    0.36045759759393986    0.40520382911745123    
  0.40889478719890693    0.40046583763960597    0.3471249835996158    0.34275365600328733    0.32626237445521994    
  0.29805306141937415    0.2670721629563409    0.2435177174447979    0.23481348588166    0.24351769607439805    
  0.26707220999241194    0.2980531002857171    0.3262623686505363    0.3427537250748814    0.3471249835996158    
  0.2633313023060799    0.26208428630019787    0.2582935335071135    0.25188411561725726    0.2435176572739677    
  0.23612710614683186    0.23320237252350037    0.23612715280095517    0.24351768169925464    0.25188411637957525    
  0.2582935576854324    0.26208424960677373    0.2633313023060799    0.23267366774414341    0.2332023516006634    
  0.23481349396881707    0.2359144669283349    0.23481345448969007    0.23320240005701373    0.2326735895494187    
  0.23320238219255338    0.2348134893304247    0.2359144464777561    0.23481346331241218    0.2332023810132336    
  0.23267366774414341    0.26333129162453917    0.26208426269893054    0.2582934833416686    0.2518841291067326    
  0.2435176151006051    0.23612713061587598    0.23320239443631502    0.23612710002147605    0.24351769633052658    
  0.2518841118719753    0.2582935009389871    0.2620842389163896    0.26333129162453917    0.34712499942322794    
  0.34275373026442335    0.3262624180876987    0.2980530222481109    0.2670721692988332    0.24351768066860272    
  0.23481346731074043    0.24351769175073892    0.2670722214408302    0.29805301839738696    0.3262623936571231    
  0.34275367643070226    0.34712499942322794    0.40046578924376813    0.408894779899107    0.4052038692741661    
  0.36045766959612063    0.2980530676045009    0.2518841299341006    0.23591443886350544    0.2518840895324993    
  0.2980530703883697    0.3604576129327994    0.4052038389585024    0.4088948297430556    0.40046578924376813    
  0.27366481390371056    0.3224484543382899    0.4075261539193299    0.40520390087180286    0.3262623462680914    
  0.25829353585131176    0.23481346679258788    0.2582935299963826    0.32626240063589684    0.4052039407744193    
  0.40752612924075526    0.32244843018350977    0.27366481390371056    0.10396441647062417    0.1620740855596425    
  0.32244842031209364    0.40889478670220797    0.3427536376322668    0.2620842858284484    0.23320237167748598    
  0.26208427381695315    0.3427537326096773    0.40889475981402423    0.3224484704808028    0.16207404214203072    
  0.10396441647062417    0.05485681872972215    0.10396441191669213    0.2736648254477586    0.4004658952339735    
  0.3471249277406248    0.26333136738399804    0.23267360713041835    0.2633313123802958    0.3471249858874529    
  0.40046588331171856    0.2736647527361221    0.1039644117148391    0.05485681872972215    0.10396441282831684    
  0.16207406994131757    0.32244841975334465    0.4088948777113813    0.34275365370136884    0.2620842738088589    
  0.23320234937719542    0.2620842264822672    0.3427536560811395    0.4088948085878991    0.3224483628115529    
  0.1620740668119468    0.10396441282831684    0.16207407077644592    0.22242672890848378    0.3626748022572661    
  0.4141408687369682    0.3403893074738706    0.26333884300439303    0.23612712597966126    0.2633387934955045    
  0.34038939577653543    0.4141408440515606    0.36267479278735887    0.22242669193472775    0.16207407077644592    
  0.3224484612515731    0.3626748700090744    0.4240511611856468    0.40661495021935457    0.3293654964383176    
  0.2655858264374233    0.24351768771975654    0.26558586966433606    0.32936550601381787    0.40661499558352593    
  0.4240512528894231    0.36267481905810817    0.3224484612515731    0.4088947333384589    0.41414087125423965    
  0.4066149871555785    0.36464708244259303    0.30848787522115545    0.2665860659487279    0.2518841348825736    
  0.26658603397192554    0.30848789594681075    0.3646470613728068    0.4066148885741512    0.41414083805889357    
  0.4088947333384589    0.34275371260154286    0.34038932105532266    0.3293654514567718    0.3084879021560873    
  0.28456687946153814    0.26558588206285716    0.25829350956286923    0.2655858357485765    0.28456690486696934    
  0.30848794066874224    0.3293654378417354    0.3403893639993685    0.34275371260154286    0.26208424305696487    
  0.26333883511137673    0.26558584732522184    0.26658604864520136    0.2655858213204739    0.26333883629022    
  0.26208423188778346    0.2633388180641746    0.2655858476762921    0.2665860847302566    0.26558583770254274    
  0.26333881041004353    0.26208424305696487    0.23320239560750095    0.23612710765662306    0.24351767007682915    
  0.251884168539609    0.25829348179496614    0.2620842697784089    0.263331279930959    0.26208426375969046    
  0.2582935354115486    0.2518841221123248    0.24351767494356164    0.23612710944967924    0.23320239560750095    
  0.2620842884798048    0.26333881499927353    0.2655858615283556    0.26658607781871707    0.26558583018761933    
  0.2633388021350822    0.2620842490519071    0.26333880242737046    0.2655858581580809    0.2665860787208131    
  0.26558583908125016    0.26333878195016636    0.2620842884798048    0.3427536835130919    0.3403894164970884    
  0.3293654544543934    0.3084878649302101    0.28456685939946846    0.2655858533846726    0.2582934970584554    
  0.2655858543123997    0.2845669024709378    0.3084878764349294    0.3293655054356952    0.34038935903659234    
  0.3427536835130919    0.408894743279207    0.41414086446463305    0.4066149391437287    0.36464709528282674    
  0.30848787598288235    0.26658606721337014    0.2518841332285902    0.2665860449323548    0.3084878994164225    
  0.36464704590187047    0.4066149260208583    0.41414084549067315    0.408894743279207    0.32244842512138205    
  0.36267482704036347    0.4240512138100009    0.40661494624208294    0.32936546663092664    0.26558586856907423    
  0.24351767926512755    0.2655858672981648    0.329365495978801    0.4066150306990085    0.4240512244374336    
  0.36267483565810954    0.32244842512138205    0.16207403706303306    0.2224267453066996    0.362674792727905    
  0.41414084426845865    0.34038936136501147    0.2633388329952394    0.23612707269916522    0.26333881336965925    
  0.3403894095554829    0.41414083892852255    0.3626748666544734    0.22242669784422542    0.16207403706303306    
  0.10396441282831684    0.16207406994131757    0.32244841975334465    0.4088948777113813    0.34275365370136884    
  0.2620842738088589    0.23320234937719542    0.2620842264822672    0.3427536560811395    0.4088948085878991    
  0.3224483628115529    0.1620740668119468    0.10396441282831684    0.2736648585469051    0.32244845724284454    
  0.4075261456201492    0.4052039526765423    0.3262623406649405    0.25829353682478534    0.23481346591048377    
  0.25829353177830994    0.32626236146050447    0.40520388037239574    0.4075260735016353    0.3224484652804807    
  0.2736648585469051    0.3224484885424304    0.36267481669897234    0.42405121677849156    0.40661500205052203    
  0.3293653901809341    0.2655858524055757    0.24351770449747584    0.2655858358019899    0.3293655022877935    
  0.40661498878041274    0.4240511496466886    0.3626747435411409    0.3224484885424304    0.40752616744241016    
  0.42405128808366793    0.43628180675729517    0.39919185046206557    0.33462777481902123    0.2845668864472465    
  0.2670722079293998    0.2845669229496513    0.3346278080936105    0.39919191601028314    0.43628184824434674    
  0.42405125228005874    0.40752616744241016    0.405203865234259    0.4066150198643589    0.3991918405072856    
  0.37247801901588923    0.33678262227869854    0.3084878883720435    0.29805304079229133    0.3084878732571288    
  0.33678264599260094    0.37247798040115465    0.3991917822552732    0.4066149745576957    0.405203865234259    
  0.3262624026281313    0.32936544335323714    0.33462778242381347    0.33678267045947147    0.334627731883633    
  0.3293655601070131    0.3262623776785694    0.3293654887858549    0.33462778518168645    0.336782710877172    
  0.33462773809601676    0.32936548239607677    0.3262624026281313    0.258293492486738    0.2655858533885996    
  0.28456690178015903    0.30848788940650596    0.3293654523242757    0.34038939990797634    0.3427536645409507    
  0.3403893880160012    0.32936548245137987    0.3084878823528499    0.28456690559196346    0.2655858247034289    
  0.258293492486738    0.2348135186980731    0.24351766190127885    0.2670721697744217    0.29805308337972825    
  0.3262623607974964    0.34275374511642664    0.34712492510085485    0.3427537024426666    0.3262624066965159    
  0.29805307964845074    0.26707216925329963    0.24351765167728281    0.2348135186980731    0.2582935297930881    
  0.26558588258174    0.2845668785603612    0.30848790281437855    0.3293654548300597    0.34038941594329236    
  0.34275372388615705    0.34038936757993504    0.3293654952661968    0.30848789389737746    0.2845668872364246    
  0.2655858370571355    0.2582935297930881    0.3262624147641935    0.329365519877986    0.3346277609163135    
  0.3367826492832126    0.33462778112163916    0.32936549590009756    0.32626232306547226    0.3293655176577595    
  0.3346277951819195    0.33678261982653795    0.3346277939397778    0.32936542703155697    0.3262624147641935    
  0.4052038665609159    0.4066149571642195    0.39919187939340856    0.37247801915559126    0.3367826382471378    
  0.3084878954840694    0.2980530616696274    0.3084878661153316    0.33678265643607413    0.3724779760711525    
  0.3991918088582858    0.40661499325151573    0.4052038665609159    0.40752616510809003    0.42405122147581026    
  0.43628179000568634    0.399191847755464    0.3346278073903492    0.28456693167404185    0.26707218007361583    
  0.2845669051201068    0.33462782257849283    0.3991919261322353    0.4362818341396321    0.4240512459931498    
  0.40752616510809003    0.32244842238266125    0.36267484656238297    0.424051203542554    0.40661498380239164    
  0.32936544877529705    0.26558586885672636    0.24351766532775038    0.26558586147726887    0.3293654933394946    
  0.40661499779746246    0.42405122555117103    0.3626748090196032    0.32244842238266125    0.2736648585469051    
  0.32244845724284454    0.4075261456201492    0.4052039526765423    0.3262623406649405    0.25829353682478534    
  0.23481346591048377    0.25829353177830994    0.32626236146050447    0.40520388037239574    0.4075260735016353    
  0.3224484652804807    0.2736648585469051    0.40046583868895513    0.4088947863191591    0.40520387578640815    
  0.36045764615275677    0.298053027034018    0.2518841663634548    0.23591441715008943    0.251884125323454    
  0.2980530426683456    0.36045764968468186    0.4052038207645953    0.4088947535426731    0.40046583868895513    
  0.4088948215748498    0.4141408656234558    0.4066149675795797    0.36464706084272996    0.30848786805300826    
  0.26658608855723925    0.2518841498814395    0.26658604907975403    0.30848789417635614    0.3646470491846873    
  0.4066149131743332    0.4141408016871734    0.4088948215748498    0.40520392206311473    0.4066150434751411    
  0.3991918671952414    0.37247796545318407    0.33678261281133787    0.30848787747110923    0.29805304433305413    
  0.3084879279177238    0.3367826773541729    0.3724779791006786    0.39919191372188356    0.40661497707438704    
  0.40520392206311473    0.36045763293664135    0.3646470853784937    0.3724779794793441    0.3761111083130232    
  0.37247798809720606    0.3646470068768374    0.36045761255066916    0.3646470213703811    0.37247799935445    
  0.3761110517742461    0.37247794533544965    0.3646470640619048    0.36045763293664135    0.29805303929618965    
  0.30848788159426394    0.33678265817541997    0.37247801006231335    0.39919184390364076    0.4066150305108213    
  0.4052038630592854    0.406614956485331    0.39919190914017805    0.3724780632511416    0.33678261027312945    
  0.30848792309403794    0.29805303929618965    0.251884144294344    0.26658606574357757    0.30848790629124373    
  0.36464705084731336    0.4066149354543938    0.41414086205007694    0.40889476498523786    0.4141408949222206    
  0.40661498985884437    0.3646470288464005    0.30848793656119133    0.26658605139836816    0.251884144294344    
  0.2359144555889282    0.25188411696645197    0.2980530365030941    0.36045764125448143    0.40520384519801145    
  0.4088948253297821    0.40046575491214226    0.4088947748770277    0.4052038897606612    0.36045763278825743    
  0.29805301234598164    0.25188412709102637    0.2359144555889282    0.25188414033018447    0.26658607744404317    
  0.30848787558313473    0.3646470529401277    0.4066149057053449    0.41414091033799405    0.40889481443208386    
  0.4141408507189913    0.40661497339998326    0.3646470421895455    0.30848787332088684    0.26658607146796826    
  0.25188414033018447    0.2980530631151524    0.30848793540070907    0.3367826615045406    0.37247798264424026    
  0.3991918620902319    0.40661494359112027    0.40520387484502823    0.4066150085626126    0.39919192536902637    
  0.37247796107913195    0.3367826730261881    0.3084878887773858    0.2980530631151524    0.3604576145840963    
  0.3646470678009668    0.37247795980390175    0.37611109733241943    0.372478001886887    0.36464705314733764    
  0.36045761636184465    0.3646469958610699    0.3724779926675609    0.3761110796706395    0.37247791989743656    
  0.36464709643516285    0.3604576145840963    0.40520390978585613    0.40661498361305753    0.399191876488292    
  0.37247797407505945    0.33678262287258004    0.3084879158371206    0.29805302418821483    0.30848791056356273    
  0.3367826813429114    0.37247804096147313    0.39919185048696587    0.4066149286943038    0.40520390978585613    
  0.4088947732545994    0.41414086453442006    0.40661495353183774    0.36464705022904204    0.308487860856674    
  0.26658611572692414    0.2518840991120382    0.2665861058751177    0.30848792064770164    0.36464701874570626    
  0.40661499336341433    0.4141408179033793    0.4088947732545994    0.40046583868895513    0.4088947863191591    
  0.40520387578640815    0.36045764615275677    0.298053027034018    0.2518841663634548    0.23591441715008943    
  0.251884125323454    0.2980530426683456    0.36045764968468186    0.4052038207645953    0.4088947535426731    
  0.40046583868895513    0.3471249791146553    0.34275369676834916    0.32626235931818065    0.2980530796627216    
  0.26707215510718035    0.2435176950186332    0.23481348823626327    0.24351766116995446    0.2670721801388463    
  0.29805305468923027    0.32626231473476536    0.3427536980918854    0.3471249791146553    0.3427537372245534    
  0.3403893979625017    0.32936548679264815    0.3084879267046494    0.28456683739565297    0.26558589295548934    
  0.25829353864315585    0.2655858562124333    0.2845669021526132    0.30848792500107597    0.3293654085089912    
  0.3403893133433828    0.3427537372245534    0.32626241759431274    0.32936551895945876    0.33462774853795074    
  0.3367826368328919    0.3346277881928491    0.32936544508724697    0.32626241240348974    0.32936550478170185    
  0.33462781554763343    0.3367826700297312    0.334627788915549    0.32936547655625753    0.32626241759431274    
  0.29805302989421617    0.30848791408495946    0.33678266838343857    0.3724780266684141    0.39919187998752764    
  0.4066149697194252    0.405203886157048    0.4066149297079095    0.3991918472055207    0.3724780065249145    
  0.3367825779652133    0.30848790687347305    0.29805302989421617    0.26707219532687065    0.2845668468564215    
  0.3346277776350044    0.3991918972866313    0.43628178191125117    0.42405132901552484    0.4075261047428096    
  0.4240512121076445    0.436281818521577    0.39919196823580266    0.33462774890658825    0.28456692036076403    
  0.26707219532687065    0.2435176698435096    0.2655858816149903    0.3293654861274478    0.40661495322038443    
  0.42405118056993035    0.3626748104523968    0.32244840925955814    0.36267483996844535    0.42405123935485756    
  0.4066149614025549    0.3293655030312223    0.26558585081033775    0.2435176698435096    0.234813533116533    
  0.25829346944261894    0.32626237618847587    0.4052039691812269    0.4075260904026798    0.32244849318789    
  0.2736647784106126    0.3224484647271892    0.40752615996231917    0.40520392030462965    0.326262366390425    
  0.25829349773306676    0.234813533116533    0.24351768498112406    0.2655858905847751    0.32936547122368737    
  0.4066149593705678    0.42405124374162934    0.36267483024107405    0.322448490969749    0.3626748134805161    
  0.42405126172794655    0.4066149701361725    0.32936545903555176    0.26558582334383557    0.24351768498112406    
  0.2670722107014019    0.28456692650060345    0.33462777542640104    0.3991918556026188    0.4362817425815796    
  0.42405125807981175    0.4075260861808939    0.42405127639134077    0.4362818178617338    0.39919187268991    
  0.3346278276959241    0.2845668841018267    0.2670722107014019    0.2980530411731341    0.30848791998772174    
  0.3367826471620576    0.37247801160532934    0.3991918501006112    0.4066149446953424    0.40520392804487293    
  0.40661496232228866    0.39919188971661695    0.372477968796432    0.33678262294737077    0.3084878925691609    
  0.2980530411731341    0.3262623816397883    0.32936546908530745    0.3346277889450903    0.3367826406489484    
  0.3346277948160761    0.329365491602325    0.32626240666225337    0.3293654722018739    0.3346277984887499    
  0.3367826536157162    0.33462780086855437    0.3293654722364189    0.3262623816397883    0.3427536293012554    
  0.34038942960816954    0.32936546802363836    0.30848790366016954    0.2845669034529009    0.26558589668438665    
  0.258293479080732    0.2655858552204975    0.2845669280639175    0.3084879281241768    0.32936549282687755    
  0.34038938098930716    0.3427536293012554    0.3471249791146553    0.34275369676834916    0.32626235931818065    
  0.2980530796627216    0.26707215510718035    0.2435176950186332    0.23481348823626327    0.24351766116995446    
  0.2670721801388463    0.29805305468923027    0.32626231473476536    0.3427536980918854    0.3471249791146553    
  0.26333133022544625    0.26208427670770107    0.2582935116878557    0.251884156315722    0.24351763536876342    
  0.2361271472828921    0.23320234932971365    0.2361271058933989    0.24351765288557034    0.2518841457237039    
  0.2582934562809963    0.26208427787380556    0.26333133022544625    0.26208426301029886    0.2633387903160529    
  0.2655858383169439    0.2665860774279677    0.26558579720455666    0.26333878644059777    0.2620842666255454    
  0.26333876423045716    0.265585859446977    0.26658609104371533    0.2655858186209884    0.26333874197709733    
  0.26208426301029886    0.258293518314993    0.2655858922893958    0.28456686387086144    0.3084878886614938    
  0.3293654710255149    0.3403893568233794    0.34275371949135386    0.3403893983701372    0.3293654750230936    
  0.3084879209540091    0.28456690503646903    0.26558587867889455    0.258293518314993    0.251884114834007    
  0.26658611251246234    0.308487870180806    0.3646470684751798    0.40661496770725924    0.4141408228994998    
  0.4088947333778987    0.41414082304254424    0.40661497052735124    0.3646470461524669    0.30848781827132987    
  0.2665860663176051    0.251884114834007    0.24351766318562704    0.2655858075022499    0.32936546360386243    
  0.4066149644575305    0.4240511957097276    0.36267488050897956    0.3224484523427825    0.36267479621374993    
  0.42405122148790203    0.40661504782308006    0.32936541022014004    0.2655858569164481    0.24351766318562704    
  0.2361271119132147    0.26333883082619863    0.3403893714694231    0.4141408597096769    0.3626747687362399    
  0.22242673888871795    0.16207402601097856    0.2224267359228586    0.36267482065832185    0.414140827993722    
  0.3403893943278607    0.26333877862767635    0.2361271119132147    0.23320238115635153    0.26208424625512355    
  0.3427536715325194    0.4088948173312632    0.3224483963883445    0.16207406412790717    0.10396440412558983    
  0.1620740601635253    0.3224484729307974    0.40889479079515556    0.34275367560456843    0.2620842644471512    
  0.23320238115635153    0.2361271378316997    0.2633388185769735    0.34038937672586356    0.4141408428347845    
  0.3626747902710987    0.22242674476339863    0.16207406861839135    0.22242673153520223    0.362674824654891    
  0.4141408641971593    0.34038934285310285    0.2633387715128766    0.2361271378316997    0.24351765600221945    
  0.2655858969133625    0.32936546566929453    0.4066149437018215    0.42405122103801823    0.36267479410791464    
  0.3224484173566795    0.3626748341055405    0.42405120122616047    0.40661493465211357    0.32936550091519645    
  0.2655858269013052    0.24351765600221945    0.25188411038480424    0.2665860783713987    0.30848791119878066    
  0.3646470615572027    0.4066149607832379    0.4141408478410488    0.4088948009455655    0.41414079007877164    
  0.4066149424610689    0.36464705858096    0.30848783374445027    0.2665860880105601    0.25188411038480424    
  0.2582935189743649    0.2655858385211395    0.2845668991919353    0.30848787734107086    0.32936548268195515    
  0.34038942758724905    0.34275366136310714    0.3403893915065509    0.3293654680955979    0.3084879199259745    
  0.2845668969276729    0.2655858581977766    0.2582935189743649    0.26208423022203226    0.26333881822875044    
  0.26558581956440785    0.26658609199249994    0.2655858036273404    0.263338835742376    0.2620842380521965    
  0.26333881618103494    0.2655858569771736    0.26658606292257003    0.2655858791228363    0.26333879235824015    
  0.26208423022203226    0.26333133022544625    0.26208427670770107    0.2582935116878557    0.251884156315722    
  0.24351763536876342    0.2361271472828921    0.23320234932971365    0.2361271058933989    0.24351765288557034    
  0.2518841457237039    0.2582934562809963    0.26208427787380556    0.26333133022544625    0.23267366617121524    
  0.2332023789147567    0.2348135004218789    0.2359144826513373    0.23481345815923002    0.23320241675150571    
  0.23267361224630365    0.23320236466930996    0.23481350978062415    0.23591448654368785    0.23481343461882187    
  0.2332023806032233    0.23267366617121524    0.23320239542791188    0.23612713377932085    0.24351767160313367    
  0.2518841565805436    0.2582934805196609    0.26208428961872793    0.26333132915534146    0.26208425175452504    
  0.25829351711152754    0.2518841426582113    0.24351762126163093    0.23612708020339432    0.23320239542791188    
  0.23481352226224297    0.24351772457760668    0.26707216123661603    0.29805304670205207    0.326262368833648    
  0.3427536755516644    0.34712497273097426    0.34275370680610967    0.3262624103972133    0.2980530497642685    
  0.26707220817177213    0.24351768898115914    0.23481352226224297    0.23591445377986237    0.2518841662225526    
  0.29805302778390236    0.36045765049151607    0.40520388172783994    0.4088947356444608    0.4004657947574828    
  0.40889476523334745    0.40520389997185197    0.3604576012734035    0.2980529874429102    0.25188413785009367    
  0.23591445377986237    0.23481350373662788    0.2582934826674384    0.3262623781242915    0.4052039056933688    
  0.40752611579559167    0.3224485037017331    0.2736648174842002    0.32244848019803274    0.40752618177795913    
  0.40520396110284335    0.3262623589349161    0.25829354157633966    0.23481350373662788    0.23320237532681345    
  0.26208429358326135    0.34275372603958415    0.408894779120295    0.32244842456111805    0.1620740427676238    
  0.10396441683470525    0.16207407811033842    0.3224484584951923    0.40889476838614774    0.3427537362993687    
  0.26208425177069733    0.23320237532681345    0.23267365886907998    0.26333128003582634    0.34712496928425707    
  0.4004658576145909    0.27366477337625345    0.10396441952316765    0.05485679286564308    0.10396442378898964    
  0.27366481567547246    0.4004658287923287    0.34712492810446494    0.26333132846649454    0.23267365886907998    
  0.23320236225779237    0.2620842644519667    0.3427536544386527    0.4088947746973034    0.322448383487195    
  0.16207406396015991    0.10396443025249734    0.16207403770590406    0.3224484797496454    0.4088947670253346    
  0.3427536617601    0.262084245210729    0.23320236225779237    0.23481351461925937    0.25829354145081423    
  0.32626241715907495    0.40520386732928787    0.40752613127655557    0.3224484594690302    0.273664774238742    
  0.32244847041021    0.4075261781721597    0.40520386565470384    0.32626239722429223    0.25829349941792135    
  0.23481351461925937    0.23591442072281035    0.25188413489377115    0.2980530327049907    0.3604576652024293    
  0.4052039124886179    0.40889477108751643    0.40046581207738124    0.408894721613108    0.40520391494962593    
  0.3604576188697022    0.29805300668551116    0.25188416614989667    0.23591442072281035    0.23481348744994868    
  0.24351767534008462    0.26707219011224925    0.2980530463484871    0.32626234347769417    0.3427537155609035    
  0.3471249397082711    0.3427536981914902    0.32626239305397375    0.2980530773069719    0.26707218038553965    
  0.2435176547992473    0.23481348744994868    0.23320237658688772    0.23612716047980734    0.24351765474160814    
  0.25188413147224464    0.25829347937268915    0.2620842871145867    0.2633312951788945    0.262084280864739    
  0.25829353676243866    0.2518841282354311    0.24351768550850758    0.2361271126706284    0.23320237658688772    
  0.23267366617121524    0.2332023789147567    0.2348135004218789    0.2359144826513373    0.23481345815923002    
  0.23320241675150571    0.23267361224630365    0.23320236466930996    0.23481350978062415    0.23591448654368785    
  0.23481343461882187    0.2332023806032233    0.23267366617121524    0.2633313078729393    0.262084275967291    
  0.2582934891361693    0.2518841943140086    0.24351764622919414    0.23612712949434345    0.2332023616562718    
  0.23612709230003362    0.24351764443263926    0.2518841609656549    0.2582934359562789    0.26208428213122176    
  0.2633313078729393    0.26208428648853427    0.2633388006634314    0.26558584922201806    0.26658607789303723    
  0.26558579321919074    0.2633388330032678    0.2620842792909013    0.26333879162486673    0.2655858642908833    
  0.2665860599522089    0.2655858415118779    0.2633387611662493    0.26208428648853427    0.2582935180304067    
  0.2655858995502324    0.28456684652536146    0.30848788195386917    0.32936550241550117    0.3403893527871932    
  0.34275371298187585    0.3403894086262704    0.3293655109944954    0.3084879266229024    0.28456691537695034    
  0.26558585949422986    0.2582935180304067    0.2518841090209956    0.26658607465548656    0.3084879256304964    
  0.3646470651565894    0.4066149383564567    0.41414083803748525    0.4088947734732395    0.4141408207677703    
  0.40661496012206516    0.3646470540512358    0.3084878304694307    0.2665860480829038    0.2518841090209956    
  0.2435176831445157    0.26558579840012775    0.3293654516079035    0.40661498659368533    0.4240512171482322    
  0.3626748600177058    0.32244844608645334    0.36267479518742696    0.42405124578093173    0.4066150259429405    
  0.3293654230641906    0.2655858470136614    0.2435176831445157    0.2361271074267325    0.26333884017723647    
  0.34038937609232833    0.41414083372404165    0.3626747716790904    0.2224267583714929    0.16207403328273462    
  0.2224267425001642    0.3626748139179804    0.4141408655830791    0.34038937031877503    0.2633388038152189    
  0.2361271074267325    0.23320238890091347    0.26208425765852433    0.3427536996391986    0.40889483832594886    
  0.3224484031165259    0.16207406171205913    0.10396440588952194    0.16207405962143123    0.32244846597854426    
  0.4088947708615965    0.3427536871780513    0.26208425771944566    0.23320238890091347    0.23612715171459867    