#     DFTpy    
  CRYSTAL 
    
  PRIMVEC    
  5.171994706639754    2.1637709272280688e-05    -5.424972413793102e-13    
  -2.5859786145128787    4.479089752566707    -1.0614224137931033e-11    
  -8.920703448275862e-13    -2.0667473793103447e-11    8.503562912772534    
  PRIMCOORD    
  4    1    
  Si    1.2875083219519835e-05    2.9860668360614584    4.782181245292548    
  Si    2.5860032170375953    1.4930445541778836    0.5303997261139882    
  Si    1.2875085162605413e-05    2.9860668360602256    7.97316312386209    
  Si    2.586003217045988    1.493044554211056    3.7213817302541314    
  BEGIN_BLOCK_DATAGRID_3D    
  3d_datagrid_density    
  BEGIN_DATAGRID_3D#0    
  23    23    37    
  0.0    0.0    0.0    
  5.171994706639754    2.1637709272280688e-05    -5.424972413793102e-13    
  -2.5859786145128787    4.479089752566707    -1.0614224137931033e-11    
  -8.920703448275862e-13    -2.0667473793103447e-11    8.503562912772534    
  0.007486595217871687    0.007667748483657077    0.008320058619993614    0.009782676309033256    0.012690644708758442    
  0.01809070552521439    0.027516773502698117    0.042651217791352315    0.0640187912571082    0.0886816127891117    
  0.10935898301964964    0.1175581308452264    0.10935898528818153    0.08868163211623901    0.06401880741244355    
  0.04265122499452811    0.02751677814524189    0.0180907103278201    0.012690650137471053    0.009782672881689203    
  0.008320057990775455    0.0076677437263436435    0.007486595217871687    0.007667750331882604    0.007668404039552813    
  0.008086578631720746    0.009164292731408709    0.011429564966208913    0.015818583331534006    0.023873424556200954    
  0.03766349782062055    0.05883389618770768    0.08637561274583722    0.11421422798220199    0.13226974450486442    
  0.13227371774983626    0.11421126073521097    0.08636793190299291    0.05884315733982951    0.03766737267126974    
  0.023870427631290506    0.01581888202794651    0.011429882017753705    0.009164067240212693    0.008087133711831784    
  0.007667750331882604    0.008320055644916861    0.008086575634606854    0.008319851222655644    0.009164438696729376    
  0.01110284800896606    0.015099588373704202    0.02291413943670644    0.03743379275956701    0.06205417155823755    
  0.09810779482228262    0.14072103768540475    0.176910196483628    0.19128856819454632    0.17691539281590943    
  0.14073976852540296    0.09810685271378322    0.06204510062414055    0.03743636283159427    0.02291789363250475    
  0.015099282638012582    0.01110330689867627    0.009164071575553132    0.008320055644916861    0.00978267478595015    
  0.009164287799859111    0.00916443197018502    0.009782246818941097    0.011430051506262884    0.015098370696095391    
  0.022814806858796735    0.03831201959425848    0.06727567633259002    0.11503491673223176    0.1798233974952904    
  0.24561743254016571    0.2871406997788428    0.2871294722022349    0.24559932433345952    0.17983492605287038    
  0.11504777266765324    0.06728026029650323    0.038313309684812766    0.02281248079683991    0.015099286754560577    
  0.011429892483347071    0.00978267478595015    0.012690641577780567    0.011429571738419853    0.011102847129728687    
  0.01143006059774022    0.012690342732594723    0.01581945590454744    0.02291457970645003    0.03831294519540126    
  0.06971925701753054    0.12726282954824011    0.21508263880462158    0.31534956561570965    0.39013129891139375    
  0.41579772115078545    0.3901739223130617    0.315344971021604    0.21507370741015897    0.12727224998378797    
  0.06971860529312568    0.038313305288330685    0.022917896355979527    0.015818884314418528    0.012690641577780567    
  0.018090704160146905    0.015818575721527797    0.015099590218146542    0.015098371090608347    0.015819452854077307    
  0.018089429718491874    0.02387420927725387    0.037433640994833046    0.0672767280022435    0.12726779988418724    
  0.22932666868475676    0.3571529716305784    0.45326208424312303    0.48684976022933213    0.4868293836745313    
  0.45328349837797577    0.35719350560594504    0.2293216855869554    0.1272722103197145    0.06728024688055863    
  0.03743635351997764    0.023870426145738078    0.018090704160146905    0.02751677414184588    0.02387342405303485    
  0.022914134488604236    0.02281479886669384    0.02291457679386437    0.023874193225155615    0.02751382793373907    
  0.03766858989420366    0.06204930276129961    0.11504642383787066    0.21506640516968978    0.357184798062008    
  0.46966476457456113    0.48791796020457284    0.47388854781256756    0.4879062089565301    0.4696716785877229    
  0.3571935295302628    0.21507371213025742    0.11504778475282303    0.062045115185971486    0.037667378732069226    
  0.02751677414184588    0.042651232168335364    0.0376634992474718    0.03743379260469021    0.03831202276678347    
  0.03831293954554915    0.037433627645514285    0.037668596419620934    0.04265147482085084    0.05883815563037444    
  0.098109917631256    0.1798277053004682    0.3153545916202574    0.4532817319951316    0.48790010498396313    
  0.44490689907787734    0.4449317986598765    0.4879062107444715    0.45328348385009665    0.3153449810950909    
  0.17983497019710817    0.09810688193775131    0.05884317293991247    0.042651232168335364    0.06401880326138758    
  0.058833889268368265    0.06205417279871794    0.06727566984549346    0.06971924111001948    0.06727670352211142    
  0.06204931016971403    0.05883814783413494    0.06402610559955067    0.08636977919485722    0.14074327414273832    
  0.24560301166522647    0.39016764874211635    0.48679065060235843    0.47393646213209967    0.4449067825579011    
  0.473888564926537    0.48682934979847875    0.39017384102966113    0.24559933025699668    0.1407397627810669    
  0.08636795179735138    0.06401880326138758    0.08868161905817064    0.08637558865716989    0.09810776488603105    
  0.11503490186552787    0.1272627978542088    0.1272677607642331    0.11504644192316212    0.09810990370977773    
  0.08636975385563772    0.08869012929969447    0.11421253585612787    0.17692388433905193    0.2871363107702641    
  0.41583057475707036    0.48679064744984935    0.48790017501115784    0.48791793098707564    0.48684962517607777    
  0.41579774567694294    0.28712943388762596    0.17691536392414173    0.11421126649261985    0.08868161905817064    
  0.1093590220561048    0.11421423198610477    0.14072100008434973    0.17982339828013658    0.21508258147991566    
  0.22932663425819405    0.2150663549697018    0.17982768734283439    0.14074320069932963    0.11421251823995567    
  0.10936675879994333    0.13227626753648428    0.19129682100327816    0.2871363487744151    0.3901677062378375    
  0.45328170976347654    0.46966479946041284    0.45326216013500215    0.3901312651384018    0.28714069959692007    
  0.1912886188118734    0.13227374533597222    0.1093590220561048    0.1175581556603241    0.13226974527791044    
  0.1769101826749984    0.24561746392855716    0.31534955222496913    0.3571529595646267    0.357184790126137    
  0.31535456795145733    0.24560296225987424    0.1769238542691081    0.13227624735917395    0.11756610121053516    
  0.13227623337967898    0.17692389991905844    0.2456030543261064    0.31535462183120905    0.357184793906167    
  0.35715299088470404    0.31534954852092106    0.24561743974038966    0.17691018578580625    0.13226971194890025    
  0.1175581556603241    0.1093590482775748    0.13227374207622522    0.19128860232075617    0.28714070370930467    
  0.3901312544270358    0.45326216534821834    0.4696647566622737    0.4532817039826421    0.3901677131780021    
  0.2871363450986432    0.19129688600735426    0.13227626443641455    0.10936673482114527    0.11421252808461205    
  0.14074320443862418    0.17982768957837295    0.21506633986261378    0.22932666574513716    0.21508260878413188    
  0.17982338914026466    0.14072099410879627    0.11421422335323556    0.1093590482775748    0.08868161772327388    
  0.11421126014879607    0.17691538638342763    0.2871294525187766    0.41579768041959153    0.4868496906048015    
  0.4879180145529508    0.4879001329846342    0.4867906585375146    0.41583065976101685    0.2871363377092616    
  0.17692389210050774    0.1142124834572039    0.08869011845036971    0.08636978226218943    0.0981099005848732    
  0.11504640203432036    0.1272677756632477    0.12726280298114892    0.11503490594110385    0.09810776352743958    
  0.0863755978931889    0.08868161772327388    0.0640188168772351    0.08636793783470337    0.14073979496948077    
  0.24559928165524367    0.39017377559609556    0.4868292855138136    0.47388853917067353    0.4449068751010519    
  0.4739364336906004    0.4867906878875391    0.39016775991397906    0.24560302058590244    0.1407432151854957    
  0.08636976637064504    0.06402611501706315    0.05883816472996268    0.062049299427055706    0.06727673508035902    
  0.06971922931837657    0.06727567197762327    0.06205417721045929    0.058833893377733405    0.0640188168772351    
  0.042651235236540345    0.058843160138127584    0.09810686305568986    0.1798349526590423    0.31534494902711163    
  0.45328350083059443    0.48790628570918054    0.44493191725202597    0.44490677645036186    0.4879001373362828    
  0.4532816390466619    0.3153545620564506    0.17982771020003493    0.09810992311581648    0.058838176050293345    
  0.04265148113768936    0.03766859282392794    0.037433637781956235    0.03831293863806916    0.038312012736417364    
  0.037433798433697686    0.03766350100667144    0.042651235236540345    0.027516775810599376    0.0376673767526193    
  0.06204510134406954    0.11504777179327594    0.2150737166402772    0.3571935357145457    0.469671725316056    
  0.4879062521672725    0.47388860676585953    0.487918062787267    0.4696647985765286    0.3571847362102532    
  0.21506635736023846    0.1150464215666573    0.06204931803378932    0.037668581458813306    0.027513833112718662    
  0.02387420105101394    0.02291457708871949    0.022814796895805317    0.022914134541876487    0.02387343225144626    
  0.027516775810599376    0.01809071028624435    0.02387042282040093    0.03743636001731211    0.06728026545553914    
  0.12727222605348018    0.22932164667762386    0.3571935143213037    0.45328355020417865    0.48682922289215635    
  0.48684970573613473    0.453262093951964    0.3571529771172662    0.22932663924144586    0.1272677684939338    
  0.0672767385736961    0.03743363086991662    0.023874205660169068    0.01808943022474507    0.01581946022843335    
  0.015098363657143746    0.015099588845931445    0.015818575533527904    0.01809071028624435    0.01269064486565478    
  0.015818887509309893    0.02291789541928765    0.03831331899192941    0.06971859619493144    0.12727221035407896    
  0.21507371206543532    0.3153449004995732    0.39017379808625785    0.41579767595700995    0.39013125964507295    
  0.31534956856455026    0.21508259729439028    0.1272628167903605    0.06971926390152314    0.03831295031671169    
  0.022914587173857467    0.0158194539492216    0.01269034885114859    0.011430055404380749    0.011102852672892936    
  0.011429566271495323    0.01269064486565478    0.009782673631032754    0.01142988598230771    0.015099286038061786    
  0.022812485678939367    0.038313296230685766    0.06728024416913508    0.11504776260020251    0.1798349694658484    
  0.24559932405513377    0.2871294479206865    0.28714068980924834    0.24561742578573    0.17982333953161914    
  0.11503493983184078    0.06727569189795993    0.03831202111335526    0.022814788315851688    0.015098370702933567    
  0.011430058678089836    0.009782239542050838    0.009164435712038588    0.009164293595839926    0.009782673631032754    
  0.008320055731235733    0.009164071323078072    0.011103307650346892    0.015099285685853565    0.02291788421505043    
  0.037436357583318196    0.06204510878395539    0.09810686479940875    0.14073975192448349    0.17691534791372293    
  0.1912885922736277    0.17691018215246462    0.14072095659526512    0.09810778234928069    0.06205417034838827    
  0.03743380117171364    0.022914128708660417    0.015099587038746821    0.0111028529229375    0.009164433253945269    
  0.008319853324635928    0.008086574126404934    0.008320055731235733    0.007667749877860262    0.00808712992680137    
  0.00916406850270069    0.011429889496917634    0.015818879942746968    0.023870420559147967    0.03766736959150173    
  0.05884316172470753    0.08636792842555346    0.11421126247686272    0.13227375458691643    0.13226971782049077    
  0.11421417862459109    0.0863756207388193    0.05883390141138541    0.03766348511196002    0.023873431310141583    
  0.01581857809247184    0.011429570657925912    0.00916429132349815    0.008086576069052897    0.007668406027660755    
  0.007667749877860262    0.007486595217871687    0.007667748483657077    0.008320058619993614    0.009782676309033256    
  0.012690644708758442    0.01809070552521439    0.027516773502698117    0.042651217791352315    0.0640187912571082    
  0.0886816127891117    0.10935898301964964    0.1175581308452264    0.10935898528818153    0.08868163211623901    
  0.06401880741244355    0.04265122499452811    0.02751677814524189    0.0180907103278201    0.012690650137471053    
  0.009782672881689203    0.008320057990775455    0.0076677437263436435    0.007486595217871687    0.007461433301997779    
  0.00763758229946769    0.008273607850468111    0.009697767396269468    0.012522760995251743    0.0177594257266037    
  0.02688259635318529    0.04147753070134054    0.06199580250674244    0.0856125939205097    0.10536053454729584    
  0.11317553238231584    0.10535291419752427    0.08561074587731911    0.06202036018306252    0.04147304397552578    
  0.02687328850979141    0.017761305769226157    0.012523118006023926    0.009698003098305989    0.008273748239693018    
  0.007637673994512176    0.007461433301997779    0.007637676848391077    0.0076379318406245515    0.008102141538253895    
  0.00928698799543827    0.011763081642735753    0.016573540910715154    0.025480041890692806    0.040895875129650115    
  0.06476075236736464    0.09597244232085414    0.12763101923264003    0.14818547137287064    0.14819617974184063    
  0.12763632827051252    0.0959413882976201    0.06476947447439704    0.04091008124275196    0.02547781153628783    
  0.016573783393811898    0.011763122751972135    0.009287038784784834    0.008102090853184158    0.007637676848391077    
  0.008273745667221414    0.007990144859858259    0.008273451194097198    0.009286772473409534    0.011586288318524218    
  0.01633504024189447    0.025756062723085806    0.043553604288633016    0.07422683106657285    0.11971143431945457    
  0.17374466274101355    0.21950377813030347    0.2375759523476331    0.21950395644557982    0.1737966348014307    
  0.11970639925023668    0.07420933772685119    0.043560971350485964    0.025756498703573084    0.016335952734472692    
  0.011586189143114121    0.009287042958814598    0.008273745667221414    0.009698005856108452    0.008908049456624035    
  0.008908490978397228    0.009697797262002037    0.01176341664307141    0.01633468510486892    0.0260628630924505    
  0.04601282304254513    0.08406740308016666    0.1476827995327196    0.23363804290877846    0.31815348553968936    
  0.3688007359731624    0.36878401266338584    0.3180846780920743    0.23366149126474978    0.14772182950059626    
  0.0840601224533384    0.0460151911042807    0.026062924667447175    0.01633595842374456    0.01176312917459881    
  0.009698005856108452    0.012523114301653364    0.010847317554813003    0.01039948472927979    0.010847275732317996    
  0.01252297923119477    0.016573368047314362    0.025757160225580018    0.046011959813566615    0.08826493254436331    
  0.1668438577939834    0.2846655767704609    0.40656602509376716    0.47800315757090694    0.4954105305221805    
  0.47811512652508964    0.40655755969206714    0.2846158087075841    0.16686804785583764    0.08826897755624369    
  0.0460151968957112    0.025756509930907164    0.01657378540362296    0.012523114301653364    0.01776130086862494    
  0.014583108325168579    0.013478114544814734    0.013475741550957026    0.014585520971193528    0.017758563272586236    
  0.025481015099370393    0.043554158472696454    0.08406944274044809    0.1668483502522667    0.30447976944289656    
  0.4506098037391382    0.5025221943868098    0.4729187611175798    0.4728627523672406    0.5025358024965504    
  0.4507311847288894    0.30443989210908157    0.16686805597842824    0.08406010629979156    0.04356096862196614    
  0.025477809537230073    0.01776130086862494    0.026873280163338478    0.021348760677745056    0.019375582768219806    
  0.018950637100973864    0.019375724088256895    0.021349578110070273    0.02687241357879166    0.04091135891172601    
  0.07420593002651318    0.14772357828936045    0.2846023444572133    0.4507061255236954    0.49238657273019815    
  0.38254802714539154    0.31682655429199297    0.3825375317369978    0.49236558217162313    0.45073118202583606    
  0.28461578411286736    0.14772184454186263    0.07420935522117578    0.04091010316107695    0.026873280163338478    
  0.041473063170074105    0.03270517764065955    0.030062469634908738    0.02962697103753034    0.029626119370005453    
  0.03006339532541077    0.03270478943917337    0.04147612779515247    0.0647681373415948    0.11970975509415976    
  0.23364575774672822    0.40657620369535885    0.502552996313331    0.38250472974003324    0.24110236599702886    
  0.24114861986257    0.382537514425862    0.5025358445236534    0.4065575598265748    0.23366150571003605    
  0.11970642094374784    0.0647694909767865    0.041473063170074105    0.062020353876891046    0.049845519892222565    
  0.04771306584970593    0.048959675336856315    0.04990681754119071    0.048961598617010306    0.04771301999656833    
  0.04984828779007044    0.06201839591812157    0.09594890146749806    0.1737960484914028    0.3180996146858989    
  0.4780918724957161    0.47278185322272154    0.3169332224191559    0.24110232245286806    0.3168265862131822    
  0.47286268224885974    0.47811510150005054    0.31808475340816256    0.17379663195218562    0.0959414022057006    
  0.062020353876891046    0.0856107554747969    0.07189144703650337    0.0729606723935507    0.08003807253958152    
  0.08598361011180172    0.08599393930219755    0.08003059726851759    0.07297177430762082    0.07188621309331564    
  0.08562467417421665    0.1276258480093439    0.21952580704312058    0.36878714633882476    0.4954911483935158    
  0.4727818512665619    0.38250470134140435    0.3825479917713379    0.47291872420587366    0.4954105487026969    
  0.36878398910378163    0.21950392995217463    0.12763629481577662    0.0856107554747969    0.10535294363716785    
  0.09394893297621698    0.10238093910227289    0.12163223763333682    0.14071182591277043    0.14874717109880695    
  0.14071344902016558    0.12163328899538998    0.10238826744649233    0.0939492871444797    0.10536150508759722    
  0.1481996757526794    0.2375778695251479    0.3687872603007476    0.4780918877053248    0.5025529703999971    
  0.49238653411008165    0.5025222774095068    0.4780030768102326    0.3688008082768527    0.23757602178061482    
  0.14819622537060356    0.10535294363716785    0.11317556545725774    0.10817446878970147    0.127206541355557    
  0.16422037775192289    0.20598098989359215    0.2337263972301207    0.23373152322017676    0.2059849680027536    
  0.16422302616726867    0.1272122503487954    0.10817967095294691    0.11318154503830737    0.14819960554254177    
  0.21952580058852103    0.3180996305561629    0.4065762210857797    0.4507060932628073    0.45060983331956433    
  0.4065659256299413    0.3181534498312153    0.21950375241223485    0.14818542263638368    0.11317556545725774    
  0.10536057430939064    0.1081753393207503    0.13706649592329614    0.19173737778173003    0.26019113807914707    
  0.31616607055615903    0.3371110346755997    0.31617300743820914    0.2601962321285907    0.19174175189408527    
  0.13707221504755016    0.1081797056047072    0.10536144845047044    0.12762583226660548    0.173795967465987    
  0.23364574590454265    0.2846022806837798    0.3044797823773244    0.28466555463128995    0.23363797427117702    
  0.17374465248324267    0.12763103326080677    0.10536057430939064    0.08561259089687424    0.0939415566699321    
  0.1272089919647609    0.19173640872385403    0.2810853028623074    0.3644705599848478    0.4092179839742814    
  0.4092156731684758    0.364465338542309    0.2810930880371866    0.19174175903770824    0.12721224174533172    
  0.09394922883109871    0.08562467229084005    0.09594889348123414    0.11970972543272212    0.1477235164339712    
  0.1668483124268216    0.16684381629001935    0.14768280708961515    0.11971142269316605    0.09597242838244639    
  0.08561259089687424    0.06199582878850148    0.07189058753091244    0.10238812842273809    0.1642209809670033    
  0.26019862962932283    0.3644722490198634    0.4320975253101493    0.4512818900366537    0.43209797386401405    
  0.36446538281226015    0.26019630384474085    0.16422304260532997    0.10238824520169817    0.07188624640604424    
  0.06201839314412057    0.06476814997293104    0.07420591187834896    0.08406944043632603    0.08826489752592331    
  0.0840673904741605    0.0742268473007698    0.0647607532879642    0.06199582878850148    0.041477538185916187    
  0.04986480087077542    0.07296462088165954    0.12163294278559415    0.20598110829778826    0.3161761321591037    
  0.40921463731164703    0.4512822386826207    0.45128193903306624    0.40921567029513584    0.3161730667985336    
  0.20598499995706965    0.12163329192327349    0.07297177835244047    0.04984832125767767    0.04147612938271011    
  0.04091136759615512    0.043554158321659396    0.0460119616642886    0.04601280882127475    0.04355360357361148    
  0.04089586889172767    0.041477538185916187    0.026882596730323772    0.03270295826701093    0.047696286605250125    
  0.08003674583262578    0.14071905505580418    0.23373512781644054    0.33712043697316657    0.40921460711978197    
  0.4320974857056747    0.4092179446180588    0.3371110570024608    0.2337315374563428    0.14071340629447396    
  0.0800305823333607    0.04771301923095576    0.03270477322285726    0.02687242422829224    0.025481010529163958    
  0.025757155055873435    0.026062852744050645    0.025756056235404834    0.025480045099067216    0.026882596730323772    
  0.017759422625854608    0.02133994803398246    0.030064937918407288    0.04897828153472033    0.08599000784068983    
  0.14874758311477482    0.23373515034726264    0.3161760835052136    0.3644722449666124    0.36447061593084384    
  0.31616603363110257    0.23372639910529677    0.14874718530560244    0.08599395129144553    0.04896161774969269    
  0.030063391829443977    0.021349593616701978    0.017758556466423096    0.016573375508802578    0.016334678203190033    
  0.016335037110740504    0.016573531662927948    0.017759422625854608    0.01252276230180197    0.014584520798410222    
  0.019384656498955176    0.02962591225936191    0.04989350174614348    0.08599001619665803    0.14071903081777648    
  0.2059811002658773    0.2601985795271399    0.28108525927577416    0.26019114889447537    0.2059809544167483    
  0.14071186589987508    0.08598362027191934    0.049906848752000146    0.029626123405886145    0.01937573399391464    
  0.014585526693988776    0.01252298630042818    0.011763425885370786    0.011586292463622349    0.011763082826613744    
  0.01252276230180197    0.009697761432694874    0.010847769311047329    0.013476571157341076    0.01894346891846542    
  0.029625895786883044    0.048978268379323106    0.08003672871611439    0.1216329301355243    0.16422098852543895    
  0.1917363680468925    0.19173741111004813    0.16422039322717066    0.12163219272792103    0.0800380842934044    
  0.04895969892762406    0.02962696294371532    0.018950625836142595    0.013475739297525715    0.01084727394447069    
  0.009697791897238671    0.009286766972986605    0.00928698706633013    0.009697761432694874    0.00827360699974811    
  0.008908075923649656    0.010399643383010854    0.013476571918925567    0.01938465065784168    0.030064940035827662    
  0.04769629555409899    0.07296460945035664    0.10238811606397323    0.1272089994179532    0.13706647482673506    
  0.1272065292158867    0.10238090409212883    0.07296067392789284    0.047713059664600314    0.030062458556672896    
  0.019375574929851057    0.013478110728038279    0.010399488183609806    0.008908490219436788    0.0082734510539699    
  0.008102137721909751    0.00827360699974811    0.007637584068400418    0.007990454478458083    0.008908071977955404    
  0.01084777201908148    0.014584514692862307    0.021339941829985    0.03270295407042378    0.04986479919758258    
  0.07189060172473706    0.09394156456977243    0.10817535947915234    0.10817448740747398    0.09394887794846242    
  0.07189146085202158    0.04984551505336747    0.032705161191082265    0.021348764824177982    0.014583112784847302    
  0.010847320798325824    0.008908050190710485    0.007990144003907872    0.007637935138792881    0.007637584068400418    
  0.007461433301997779    0.00763758229946769    0.008273607850468111    0.009697767396269468    0.012522760995251743    
  0.0177594257266037    0.02688259635318529    0.04147753070134054    0.06199580250674244    0.0856125939205097    
  0.10536053454729584    0.11317553238231584    0.10535291419752427    0.08561074587731911    0.06202036018306252    
  0.04147304397552578    0.02687328850979141    0.017761305769226157    0.012523118006023926    0.009698003098305989    
  0.008273748239693018    0.007637673994512176    0.007461433301997779    0.007387553543071099    0.007550107202717904    
  0.008136278065328323    0.009448843394531146    0.01203454049122699    0.016795368780303955    0.025027577314490894    
  0.03807267007137463    0.05621987648039929    0.07691770836503643    0.09411057698120956    0.10089013462950483    
  0.09409807505296457    0.07691315072607256    0.05625186770995234    0.03806881921159385    0.025013215672747117    
  0.016798725961978712    0.012035286574349937    0.00944931002010822    0.008136436592193874    0.00755015804663985    
  0.007387553543071099    0.007550162513912418    0.007549946442645497    0.00802680264611424    0.009233347514935791    
  0.011740961036107373    0.016597220262594654    0.02558510310765786    0.04115374611624604    0.06526385280556447    
  0.09675794385810775    0.12862190846160088    0.14923689648007585    0.1492558592120882    0.1286332166216756    
  0.09671649926673168    0.06527272945635529    0.0411756829995138    0.025581032892241555    0.01659734423885029    
  0.011740813537801232    0.009233622615920265    0.008026462515607739    0.007550162513912418    0.008136434632223001    
  0.00782734916124516    0.008136338652904009    0.009233064679186546    0.011702525116380489    0.01680143052780854    
  0.026956005900097484    0.04622591327401441    0.07959879102714386    0.1292245344484994    0.18808535932043863    
  0.2376298126260761    0.2570571392665076    0.2376201600478477    0.1881556401846101    0.12922068712933082    
  0.07956905810005684    0.046237193777506354    0.026956923367727245    0.016802801819125114    0.011702116554697285    
  0.009233627463794126    0.008136434632223001    0.00944931211606178    0.00856431397246809    0.008565061139050105    
  0.009448785380293034    0.011741317218661168    0.016801026971650077    0.02762491210971587    0.04998789059247554    
  0.09296747775183378    0.16504245547054264    0.2615621385731524    0.3537729788812066    0.4066695476979661    
  0.4066548167585855    0.35367925440204295    0.2615833362500999    0.1651046109391468    0.09295604220304544    
  0.049989866589452904    0.0276244591167    0.016802809587546878    0.01174082307071808    0.00944931211606178    
  0.012035284439603087    0.010130066959618473    0.009614156551474472    0.010129667709498578    0.012035519846470768    
  0.01659655309017371    0.026957976566331546    0.04998528984328326    0.09848216788304096    0.189006609691354    
  0.32223792119743777    0.44918992031826493    0.5072740799978999    0.5145321407639674    0.5074127823779233    
  0.4491903506198872    0.3221554284919013    0.18903921990828917    0.09848702504620108    0.04998986290224104    
  0.0269569301199308    0.016597348769232897    0.012035284439603087    0.01679871969254707    0.013126757492562759    
  0.011806910475579111    0.011803207265698256    0.013130903581747871    0.016793727745953876    0.02558685728827131    
  0.04622578933798821    0.09297131143267523    0.1890106428127944    0.34514431562846964    0.489316664607646    
  0.49416688509243956    0.4198559899210434    0.4197965387331158    0.4941671784670556    0.4894943050759408    
  0.34507862490464347    0.18903919462691887    0.09295602659159498    0.04623719819728678    0.02558103317905937    
  0.01679871969254707    0.02501321517686489    0.018480329885905387    0.015943511870063088    0.015330493768252124    
  0.01594339235533251    0.01848091778935832    0.02501251189142018    0.04117688836778155    0.07956692098958615    
  0.16510251988153923    0.3221409240409165    0.4894518896004163    0.46398162854962627    0.28618827907522737    
  0.20718493235729493    0.28618809566609277    0.4639327890613077    0.48949427189183803    0.32215541278112414    
  0.16510461969404672    0.07956908013384947    0.04117570188658117    0.02501321517686489    0.03806884274618036    
  0.027243361567006904    0.02323695710163089    0.022021471041076452    0.022021134355096544    0.023237465090378    