#     DFTpy    
  CRYSTAL 
    
  PRIMVEC    
  1.8892358512275993    -3.272252481806838    0.0    
  1.8892358512275993    3.272252481806838    0.0    
  0.0    0.0    6.245275489804988    
  PRIMCOORD    
  4    1    
  Si    1.8892358512275993    1.090750827268946    0.39351168597486613    
  Si    1.8892358512275993    -1.0907508272689466    3.51614943087736    
  Si    1.8892358512275993    1.0907508272689463    2.7291260589276276    
  Si    1.8892358512275995    -1.0907508272689463    5.851763803830122    
  BEGIN_BLOCK_DATAGRID_3D    
  3d_datagrid_density    
  BEGIN_DATAGRID_3D#0    
  17    17    27    
  0.0    0.0    0.0    
  1.8892358512275993    -3.272252481806838    0.0    
  1.8892358512275993    3.272252481806838    0.0    
  0.0    0.0    6.245275489804988    
  0.0728326735533153    0.07693948332751249    0.09119101398463374    0.12099770943158064    0.17459731414956065    
  0.25903223905061556    0.36769890648226194    0.46721840426711236    0.5084904913359235    0.4672183791334687    
  0.3676989414283134    0.2590321818394662    0.1745973170540172    0.12099771789123534    0.09119101063849015    
  0.07693947637132344    0.0728326735533153    0.07693950036861912    0.07693764892489936    0.08614739248676066    
  0.10836738451291981    0.15080628221430475    0.22185417615824302    0.32195029925719787    0.42943344097771746    
  0.5009074187525717    0.5008848958741666    0.429369070886535    0.32199658293646294    0.22188080784339193    
  0.15078075969756616    0.10836822460957118    0.08615042681470281    0.07693950036861912    0.09119101976014365    
  0.08614740462506933    0.09119631170267702    0.10837128342103905    0.14363752207162822    0.20532429623341078    
  0.2956934252296422    0.3943257174298181    0.46331406236997213    0.48545540212280935    0.4633983022453444    
  0.3943262734503161    0.2956218617831927    0.2053336305006766    0.14365942179398175    0.10836824065742505    
  0.09119101976014365    0.12099772757795968    0.10836741303424473    0.10837124734746113    0.12098546239525516    
  0.15080936571109985    0.20532640563306073    0.28670810148897935    0.3692062306251643    0.4017987548098443    
  0.3895128866176476    0.38946932971229675    0.40178897450247747    0.36926256156521287    0.28671711459714333    
  0.20533363104448368    0.15078073961193192    0.12099772757795968    0.17459728876015623    0.15080629719446953    
  0.1436374902161968    0.15080932629366614    0.17457528931966818    0.22188281235193225    0.29564895952273845    
  0.3692445405001778    0.3707525782432102    0.2981478824569602    0.257041660887398    0.2981481872112366    
  0.3707447184859234    0.36926254434692835    0.2956218068232076    0.2218808055103573    0.17459728876015623    
  0.2590322630404348    0.22185416914202843    0.20532427784051566    0.205326399883865    0.22188283476410448    
  0.2590360162374095    0.32194933069973025    0.39434882000471433    0.4018118684666691    0.29812498737104104    
  0.20055147174742066    0.2005798747037189    0.2981481854966537    0.4017890195140498    0.3943262922207195    
  0.3219965876097502    0.2590322630404348    0.36769891840296803    0.321950363420597    0.2956934921087344    
  0.28670814375448345    0.29564894412967446    0.32194938832803766    0.36774288374043584    0.4293652103699587    
  0.46337798039492856    0.38942707835602236    0.2571120729131943    0.20055153089904892    0.25704166047728094    
  0.3894693641638915    0.4633983740833525    0.42936912485398443    0.36769891840296803    0.4672184110338991    
  0.4294332604763785    0.3943256192672458    0.3692061736789515    0.36924453889910663    0.39434874066612574    
  0.4293651667625656    0.4672469127385869    0.5008998222463912    0.48549913650760346    0.3894270618103422    
  0.2981249521851194    0.2981478534826704    0.3895128554062356    0.48545538553705786    0.5008849243825628    
  0.4672184110338991    0.5084905352851515    0.500907267903778    0.4633139688216204    0.40179873969363883    
  0.3707526136961791    0.4018118968211028    0.46337794779042524    0.5008999020498284    0.5084624590179118    
  0.5008997313627269    0.4633779595448194    0.4018118005715948    0.3707527034498533    0.4017987694978509    
  0.4633139377984286    0.5009074025331306    0.5084905352851515    0.46721850243084856    0.5008849181700412    
  0.48545535236500137    0.38951288403797185    0.2981478748101381    0.298124950673309    0.3894270556017233    
  0.4854991845176486    0.5008997426807399    0.46724697544922894    0.42936515526923424    0.3943487194302409    
  0.36924450169064926    0.36920631923273817    0.39432563954876365    0.42943329850072914    0.46721850243084856    
  0.36769889687257223    0.4293691354718268    0.46339834601479984    0.38946940279049463    0.2570416422427874    
  0.200551466626985    0.2571119829377257    0.389427148372356    0.4633779504876722    0.42936523921972675    
  0.3677429906480213    0.32194935294137406    0.2956490103333443    0.2867081399543324    0.29569347319818096    
  0.32195038590078745    0.36769889687257223    0.25903227135000356    0.3219966030577809    0.3943262387231562    
  0.40178900573757886    0.2981482469401785    0.20057990793852645    0.20055149538598296    0.2981249983947405    
  0.40181190835847985    0.3943487704747689    0.3219494029581091    0.25903595703056653    0.22188277277677323    
  0.20532639954248288    0.2053242662386685    0.22185415523654822    0.25903227135000356    0.17459729002582922    
  0.221880780252067    0.29562179697559005    0.3692625020916751    0.3707447688782809    0.29814825542682866    
  0.2570416677351621    0.29814798731419406    0.37075261749943494    0.3692444774073653    0.2956489936008479    
  0.22188277462167524    0.1745752701459832    0.15080934774143503    0.14363752275495031    0.15080628315641734    
  0.17459729002582922    0.12099775105782326    0.1507807236242498    0.20533362053401158    0.2867171339340141    
  0.3692625399427625    0.40178908750400955    0.38946928296918876    0.38951290919000514    0.40179872959916146    
  0.36920618929731064    0.2867081199768216    0.20532640446172493    0.15080934852770939    0.12098543193763965    
  0.10837126988143339    0.1083674086424812    0.12099775105782326    0.09119102696583051    0.10836824802587637    
  0.14365940922073242    0.20533363997040155    0.2956217654933696    0.3943263240460521    0.46339819643350344    
  0.4854554614164247    0.4633139085126703    0.39432568718239214    0.29569344553879484    0.20532427652481144    
  0.14363753977364022    0.10837126560863183    0.09119632870228542    0.08614741517681583    0.09119102696583051    
  0.07693948142712936    0.08615043124806245    0.1083682194370686    0.15078073073795076    0.2218808165549407    
  0.3219966026813866    0.4293691209824045    0.5008848794135855    0.5009073938773594    0.42943341434614796    
  0.32195028058544606    0.22185415284157425    0.15080627846956776    0.10836739047595867    0.08614739763299789    
  0.07693764300339201    0.07693948142712936    0.0728326735533153    0.07693948332751249    0.09119101398463374    
  0.12099770943158064    0.17459731414956065    0.25903223905061556    0.36769890648226194    0.46721840426711236    
  0.5084904913359235    0.4672183791334687    0.3676989414283134    0.2590321818394662    0.1745973170540172    
  0.12099771789123534    0.09119101063849015    0.07693947637132344    0.0728326735533153    0.07180698054336845    
  0.07569686819339341    0.08920470786832468    0.11740258549645137    0.16763011761536178    0.24586719257771972    
  0.3455791004513347    0.4360661260430448    0.47334096053590563    0.43608367435540746    0.34551677631624605    
  0.24586194545511778    0.1676681438403939    0.11739715712774544    0.08920294639280789    0.07569614690964689    
  0.07180698054336845    0.075696165824065    0.07569228768706492    0.08356451238934262    0.10265232766867452    
  0.13905566172291053    0.1994253800568638    0.28437403947603196    0.3774005918871485    0.4410401726253055    
  0.44101576362630174    0.3773673281559435    0.28444105255605384    0.19943172050651511    0.13901795640154066    
  0.10265688147344108    0.0835677639019486    0.075696165824065    0.08920297174857629    0.08528594048310666    
  0.08920995824278491    0.10266153153630937    0.13034495139342406    0.17891179045203606    0.251549069448259    
  0.3376281836638927    0.40909577073589576    0.4366095561937403    0.4091388966701655    0.3376404828968396    
  0.2514868953326014    0.17891451112845086    0.1303795883641037    0.10265688271889142    0.08920297174857629    
  0.11739716147876979    0.10833734785676005    0.10833696038430599    0.1173862422391052    0.13905643240996948    
  0.17891202127595718    0.24100705087965654    0.31695610469716984    0.37912025386437326    0.40743323721359365    
  0.4074206672035525    0.37909906019307243    0.31696162066486794    0.24105247105415847    0.17891450504365028    
  0.13901793140500296    0.11739716147876979    0.1676681463927939    0.15204470476496315    0.14750460206812624    
  0.15204984500668858    0.16762904704533096    0.19943256998291742    0.251536548585741    0.3169512268372905    
  0.36548139584547895    0.3737190141659351    0.36800580627735124    0.37372152209423226    0.36550258169965816    
  0.31696155809229504    0.25148683165998587    0.19943171538716578    0.1676681463927939    0.24586203616934446    
  0.22438032936171717    0.21522433162165802    0.21522768542483228    0.22443029136575715    0.24586881518959053    
  0.2843780262611045    0.3376483628159389    0.3791250043025971    0.3737116503725204    0.34401451383557785    
  0.34401909184234636    0.3737215405766955    0.3790991115584068    0.3376404789385116    0.28444108776815935    
  0.24586203616934446    0.34551674861109216    0.3240210031927634    0.3103749168908637    0.3051389637783394    
  0.31029936242994427    0.3240064691103504    0.3455880874584053    0.3773676636411173    0.4091172698595337    
  0.4074034913928259    0.3680316991645512    0.3440145898000958    0.3680058863165589    0.40742072607580276    
  0.40913898593608494    0.3773674337333855    0.34551674861109216    0.4360836282238719    0.4263805288912929    
  0.40155170746066354    0.3750501393911424    0.3751341835436395    0.40158182136354753    0.42629802405577877    
  0.4360888890424459    0.44104140776004935    0.4366196087103624    0.4074034691687395    0.3737116532611906    
  0.37371899610396686    0.4074331906125779    0.43660953051481777    0.4410158200879896    0.4360836282238719    
  0.4733409366191672    0.4906504826722548    0.44784814483122276    0.3595943357994877    0.3159008974167222    
  0.3596112383898484    0.44792168867947063    0.4906675312688371    0.47330178408058243    0.44104141392653523    
  0.4091172476714473    0.37912495176576616    0.36548148375424355    0.37912028737321946    0.40909570500607373    
  0.441040164224692    0.4733409366191672    0.4360661325140053    0.49064007066257087    0.45638255093480423    
  0.305543863211045    0.18816379455224963    0.1881238360451048    0.30546114926099016    0.4564185876385503    
  0.4906674898599966    0.4360888882163587    0.3773676148372242    0.337648267381561    0.31695119541274697    
  0.3169561547610581    0.33762812907879525    0.3774005076671684    0.4360661325140053    0.3455790953118582    
  0.42629185966157945    0.4479507845800726    0.30550060746606483    0.13635175955166387    0.08328451063264482    
  0.13641610663508433    0.30546118263654587    0.44792174490361036    0.4262980298281149    0.34558815141102417    
  0.2843780679609519    0.25153654532726416    0.2410070772044855    0.2515490791106106    0.284374104194701    
  0.3455790953118582    0.24586719788848715    0.3240268490524402    0.40156068616597257    0.3595770160835842    
  0.18817039131548124    0.08329536970976029    0.08328451472552671    0.1881238965829373    0.3596112116819068    
  0.4015818272308244    0.3240064032273268    0.24586879825017563    0.19943252051681387    0.1789119974892249    
  0.1789117739636889    0.19942536059121405    0.24586719788848715    0.16763009802329443    0.2244343046485458    
  0.3102933854638972    0.37516192723445846    0.3158631841932123    0.18817040102810653    0.1363517765230084    
  0.1881638421752374    0.31590090588773095    0.375134108937702    0.3102994414025923    0.22443024685705873    
  0.1676290719189149    0.13905638594194003    0.13034498872019695    0.13905566783162987    0.16763009802329443    
  0.11740261487009587    0.1520292769513114    0.21524120555671447    0.30510344288839747    0.3751619370474159    
  0.35957703681632497    0.305500492981892    0.30554392895202365    0.3595943061481681    0.37505011577704617    
  0.3051389708121101    0.21522771320693404    0.15204987016149524    0.11738622200553454    0.10266153869121482    
  0.10265235414331508    0.11740261487009587    0.08920472290943209    0.10833734672954706    0.1475114893559348    
  0.21524122910541219    0.3102933267213011    0.40156071267300364    0.4479506915315086    0.4563825897685065    
  0.44784818892417566    0.40155175159511036    0.3103748937131221    0.2152243729630162    0.14750465168598098    
  0.10833698476611786    0.08920996105857099    0.08356453588603299    0.08920472290943209    0.0756968659016737    
  0.08528491390929221    0.10833729413542798    0.15202928819105432    0.22443429748926463    0.3240269083929362    
  0.42629186486583054    0.490640087977847    0.49065057451062083    0.42638068278475566    0.32402093876820787    
  0.22438030388790894    0.1520446876837862    0.10833731269295269    0.08528593642650399    0.07569229273526684    
  0.0756968659016737    0.07180698054336845    0.07569686819339341    0.08920470786832468    0.11740258549645137    
  0.16763011761536178    0.24586719257771972    0.3455791004513347    0.4360661260430448    0.47334096053590563    
  0.43608367435540746    0.34551677631624605    0.24586194545511778    0.1676681438403939    0.11739715712774544    
  0.08920294639280789    0.07569614690964689    0.07180698054336845    0.06868267401860388    0.07211239952338835    
  0.08386107162556733    0.1079183245179911    0.14972699260884764    0.2129510683329755    0.2912456026309936    
  0.36051971224329193    0.3886024001333261    0.3605411169555529    0.2911798763909851    0.21294740591714528    
  0.14976633138619697    0.10791316117449687    0.08385862609410769    0.07211100983260998    0.06868267401860388    
  0.07211103186338952    0.07210940528587409    0.07829094896214975    0.09311501905382988    0.12102068172725626    
  0.16618528435661462    0.22810876725624496    0.29489908690031497    0.34023289522768785    0.3402136752883826    
  0.2948725159231425    0.22817069746773244    0.16618548417478618    0.12098747684202363    0.09311772067236622    
  0.0782964321643677    0.07211103186338952    0.08385863705723792    0.08117456763757173    0.08386454442904219    
  0.09312304038976219    0.11227690453731172    0.14575352918871484    0.1953714404028118    0.25500880769081075    
  0.30684854009086987    0.3276938833977462    0.30687717663593894    0.2550236525250795    0.19531865495291598    
  0.14575468141854825    0.11231011191382967    0.09311772760492437    0.08385863705723792    0.10791314476838292    
  0.10266884412760345    0.1026665199590254    0.1079052537465833    0.1210210003396679    0.14575588955542523    
  0.18515814754873053    0.23689870074825753    0.28798191332967016    0.3195065725133493    0.3194995474155398    
  0.2879602708611767    0.23689269896063272    0.18520557458387693    0.14575465246509575    0.12098743940359098    
  0.10791314476838292    0.1497662945763964    0.1425715673701075    0.14076903978916488    0.14257741486779113    
  0.14972765504559735    0.1661862751218815    0.1953654688839271    0.23688513198490238    0.2815591506230611    
  0.31383161450245545    0.32488706784042654    0.31383647985311924    0.2815782568119707    0.23689270891856445    
  0.19531859744554042    0.1661854711144388    0.1497662945763964    0.21294747537513822    0.2069623382812092    
  0.20561993601759895    0.20562123928481446    0.20701072587184535    0.2129549621807922    0.22811289951009595    
  0.25502749043401235    0.28798260471109616    0.31382879860447377    0.32545545914563667    0.32545322048233494    
  0.313836515996427    0.28796032524750415    0.25502363125280725    0.22817071624564725    0.21294747537513822    
  0.29117991528007175    0.2930539401385106    0.29453844094873766    0.29468320217340127    0.29446751803634846    
  0.2930357652692779    0.29124819796752227    0.2948735133665161    0.3068578119532179    0.31949634280975225    
  0.3248974122016558    0.32545554611982747    0.32488711630746686    0.3194995539514273    0.3068772781354975    
  0.2948725489780762    0.29117991528007175    0.36054105817631044    0.3782189377183877    0.37512781253828625    
  0.36022934078917207    0.36031561161803444    0.37515562654139906    0.37814396248185994    0.3605402949249445    
  0.3402374181860716    0.32769251134804345    0.3194962982515195    0.31382880638847055    0.3138316255733899    
  0.3195065466319864    0.32769384414307035    0.3402137520131979    0.36054105817631044    0.3886023780795239    
  0.42963923784103736    0.4103167664217024    0.336984657202539    0.2979022975160847    0.33699892915637436    
  0.4103867299028111    0.42965788566560154    0.38856649629011447    0.3402373848853621    0.30685784071434513    
  0.2879826268456735    0.2815591988706096    0.2879819686424417    0.30684848514032204    0.3402328883459434    
  0.3886023780795239    0.3605197498328039    0.4296346680031303    0.41427297091839055    0.2787810331972324    
  0.1694881678577342    0.16945283188909951    0.27870239351584236    0.4143065799716085    0.4296578088083263    
  0.3605403146772593    0.2948734227145648    0.2550274321909813    0.23688514569551558    0.23689878747602744    
  0.2550087522500968    0.2948990326286001    0.3605197498328039    0.2912455801667148    0.37813528687226616    
  0.4104157726366104    0.27873807290758623    0.11927269892557087    0.07049702588965641    0.11933081804807572    
  0.2787024356722742    0.4103867252884975    0.3781439446535645    0.2912482900608084    0.22811297601397887    
  0.19536552318730038    0.18515819117386867    0.19537146280536674    0.22810882387531856    0.2912455801667148    
  0.21295106890774532    0.2930537774301645    0.37513566036706786    0.33696966783925236    0.1694939325339439    
  0.07050865805935377    0.07049701009425836    0.16945283465826014    0.33699886602494666    0.3751556390609455    
  0.2930357535680199    0.21295491946667894    0.1661862292957547    0.14575590023290602    0.14575349965417658    
  0.16618528552703796    0.21295106890774532    0.14972699664913813    0.20701547469631162    0.2944618631296604    
  0.36034086799122794    0.2978655847039643    0.1694939429533419    0.11927268331994031    0.16948817959501777    
  0.2979023333640293    0.3603155384697901    0.2944675552604209    0.20701067640110654    0.14972764725817148    
  0.12102099837322448    0.11227694376430362    0.12102071885926294    0.14972699664913813    0.1079183461082889    
  0.14255993879453796    0.20563487655140308    0.2946471064030209    0.3603408898935891    0.3369697076103133    
  0.2787379786379814    0.2787810694205084    0.3369846121119888    0.3602293129797124    0.29468321772413275    
  0.20562124694024603    0.14257743231087214    0.1079052298444997    0.09312301903377224    0.09311503975119007    
  0.1079183461082889    0.08386108769781685    0.10266804930822428    0.14077318451348628    0.2056348849999957    
  0.2944618089758547    0.37513566101007534    0.41041559937322003    0.41427298248403704    0.4103167253615004    
  0.37512787351031873    0.2945384695398939    0.2056199708500526    0.14076909423564507    0.1026665472839248    
  0.08386455458007723    0.07829096656967521    0.08386108769781685    0.07211240645765069    0.0811726334631606    
  0.10266801389980362    0.14255991187736458    0.2070154345549149    0.29305379598091963    0.378135247892972    
  0.42963463247755856    0.42963927745978947    0.3782190339477298    0.29305388211174754    0.20696233964123442    
  0.14257157118236397    0.10266883382001418    0.08117456936610369    0.07210941690897417    0.07211240645765069    
  0.06868267401860388    0.07211239952338835    0.08386107162556733    0.1079183245179911    0.14972699260884764    
  0.2129510683329755    0.2912456026309936    0.36051971224329193    0.3886024001333261    0.3605411169555529    
  0.2911798763909851    0.21294740591714528    0.14976633138619697    0.10791316117449687    0.08385862609410769    
  0.07211100983260998    0.06868267401860388    0.064138107826654    0.06701870469838148    0.07660108360292552    
  0.09551831598827334    0.12726740603159667    0.17345821361904687    0.2284144467500359    0.27551175874134887    
  0.2943135102556819    0.2755210971227761    0.22837045828232672    0.17346169327236194    0.1272896612870561    
  0.09551566671587931    0.07659874624529767    0.0670179160418776    0.064138107826654    0.0670179245335742    
  0.06701745883262694    0.07170507876156958    0.08245323310820699    0.10206419501234168    0.13280545554490042    
  0.17332240917874453    0.21540032976254037    0.24319089124831836    0.24317913586615353    0.21539050121639888    
  0.17336015192828264    0.13280261186332146    0.10204498010609855    0.08245474604369926    0.07170917451324925    
  0.0670179245335742    0.07659876509517469    0.07486130296299959    0.07660237146538178    0.0824580374568221    
  0.0944979528426454    0.11534325754636277    0.1454904329346176    0.1809419769219733    0.21136872098592244    
  0.223510595835616    0.21138166742256204    0.18094729075873248    0.14545962192151574    0.11534496484239258    
  0.09451777554454543    0.08245475098564439    0.07659876509517469    0.09551566649211006    0.09316056182533698    
  0.09315898332927038    0.09551144369264843    0.10206486341164916    0.11534577079028695    0.13700780509474872    
  0.16593154574240743    0.19560654693987667    0.21473906271976734    0.2147336781003989    0.19559897198881782    
  0.16592696057662507    0.13703619117766175    0.11534496310238042    0.10204494680251683    0.09551566649211006    
  0.12728962943775665    0.12620916575176053    0.12635323244393645    0.12621239716171823    0.12726533025861395    
  0.13280524785405293    0.145487228324873    0.1659220931277724    0.19092405553141759    0.2120946889491299    
  0.22033404272162535    0.2120966925048113    0.19093272112134146    0.16592695058843546    0.14545959434925917    
  0.13280263136370887    0.12728962943775665    0.1734617506719761    0.17800690881334083    0.18214007659548384    
  0.1821393152542231    0.17803899836150597    0.17346164626287075    0.17332614283847672    0.1809514632481256    
  0.19560878822417657    0.21209393507948546    0.222986749590434    0.22298679280356512    0.21209670931258479    
  0.19559903220680025    0.18094725156014396    0.17336020816703532    0.1734617506719761    0.22837047488558243    
  0.24564947735362833    0.2594320246669039    0.26451695687889165    0.2593867767400231    0.24564363908708384    
  0.22841496262372285    0.21538266568643566    0.21137709532123272    0.21473037281179225    0.22034154165480982    
  0.22298674961094117    0.2203341156324189    0.21473371695695573    0.2113817218494211    0.21539054933791327    
  0.22837047488558243    0.27552108339005293    0.311967501930606    0.33539081963290807    0.34165030340477903    
  0.34171447640703817    0.33539899774356036    0.31191696853063045    0.2755303543088154    0.24318910877215952    
  0.2235104713602897    0.21473035741753047    0.21209391964409297    0.2120946689073816    0.2147390346996289    
  0.22351057251288575    0.24317919740043217    0.27552108339005293    0.29431350526637284    0.35254994787992033    
  0.37911529919463904    0.35863480390843944    0.34021337721631234    0.35864353559826256    0.3791782711982023    
  0.35254170932492723    0.29430012569814934    0.24318907156411468    0.2113770991983883    0.19560881430878937    
  0.1909240269963653    0.1956065607004525    0.21136866841307494    0.24319092488752908    0.29431350526637284    
  0.2755118289666615    0.352538157109202    0.39011511882772787    0.33340173281439806    0.2581457246231539    
  0.25812243239391663    0.33331470796572205    0.39016157136144963    0.35254165785869773    0.2755303236446303    
  0.21538259573352014    0.1809514087566761    0.1659221018761826    0.16593159307924135    0.18094192651236948    
  0.21540029194912866    0.2755118289666615    0.2284144042778546    0.3119122411311753    0.37919797732128446    
  0.3333558073786196    0.21444228715566416    0.16268579427485644    0.2145147070400613    0.3333148010327763    
  0.37917833654937455    0.3119169821476365    0.2284150301925966    0.17332622505159329    0.1454872436100888    
  0.1370078273923658    0.14549048134009915    0.173322438055965    0.2284144042778546    0.1734581874709405    
  0.24565607432512787    0.33538292738245556    0.3586291506011593    0.2581431202222725    0.1627195603466986    
  0.16268576457959708    0.25812245774815884    0.35864352383834586    0.33539897894895304    0.24564358357958135    
  0.1734616149042242    0.13280519824164946    0.11534575804882582    0.11534323948034572    0.13280545000718083    
  0.1734581874709405    0.1272673819315704    0.17803818976580882    0.25938754628026534    0.3417254948628905    
  0.3401962663503334    0.25814313622183427    0.21444229616245364    0.2581457572959734    0.3402134010977337    
  0.3417144409884177    0.2593868149995582    0.17803895028255684    0.12726531010353406    0.1020648600121435    
  0.09449794969839483    0.10206420014860322    0.1272673819315704    0.09551833768320407    0.12620178294190318    
  0.18214951661222692    0.26449195009793863    0.3417254978421321    0.358629213614533    0.33335574429654236    
  0.3334016894861709    0.3586347748488761    0.3416502192911444    0.2645169370074711    0.18213930645162557    
  0.12621240584509683    0.09551144620559447    0.08245801889138432    0.08245324259204813    0.09551833768320407    
  0.07660111728882635    0.09316011880618426    0.12635491918998043    0.18214954758564222    0.2593875381730756    
  0.33538299039048136    0.3791978110452756    0.39011520529864424    0.3791152914470846    0.33539086865679185    
  0.2594320370920429    0.18214011635226443    0.12635324447664847    0.09315900647589152    0.07660238999666945    
  0.07170512192254296    0.07660111728882635    0.06701870693040352    0.07485966163349195    0.09316009788849626    
  0.12620175263967953    0.17803818334640237    0.24565611270793225    0.31191220650055945    0.35253816144181815    
  0.3525499836336804    0.3119676073879034    0.24564945453404843    0.1780069303737995    0.12620916120146294    
  0.09316055264447462    0.07486129599485199    0.06701746624770104    0.06701870693040352    0.064138107826654    
  0.06701870469838148    0.07660108360292552    0.09551831598827334    0.12726740603159667    0.17345821361904687    
  0.2284144467500359    0.27551175874134887    0.2943135102556819    0.2755210971227761    0.22837045828232672    
  0.17346169327236194    0.1272896612870561    0.09551566671587931    0.07659874624529767    0.0670179160418776    
  0.064138107826654    0.059438127568522875    0.06172018016290947    0.06919072273081879    0.08350689221738766    
  0.1065449588195757    0.1385080453416167    0.17498575934763233    0.20542953874218411    0.21743760614230376    
  0.20543268230018755    0.17497460488025535    0.138510493437002    0.10654787920843826    0.0835061840706346    
  0.06919054819936797    0.061719963988005395    0.059438127568522875    0.06171997092803089    0.061719173209279464    
  0.06516988445734785    0.07280086677077167    0.08614840368976391    0.10619356555817769    0.13146710969300657    
  0.15660744324678041    0.17271904268312793    0.17271598789949574    0.15660518445659    0.13147636916589897    
  0.10619348708010777    0.08614396899128647    0.07280122462341056    0.065171195793008    0.06171997092803089    
  0.06919057156004295    0.06809463315192538    0.06919203450633077    0.07280305444855412    0.08010983891789884    
  0.0925084059312265    0.1099552082127549    0.12982664095597407    0.14635462911796113    0.15281450860728663    
  0.14635709277979078    0.1298279317369076    0.10994657807587964    0.09250983070326899    0.08011528791841882    
  0.0728012388769372    0.06919057156004295    0.08350618523431706    0.08279728496153589    0.082797962337842    
  0.08350335630138016    0.08614825828392282    0.09251143848797545    0.10354925561787645    0.11846775123200921    
  0.1337210909984732    0.14345423975765198    0.14345220553824378    0.13372019753973935    0.11846757417013475    
  0.1035556495056896    0.09250981189000253    0.0861439540427581    0.08350618523431706    0.10654784122501111    
  0.10863813860417085    0.1097123414657951    0.108638657559479    0.10654377018684084    0.10619402159999163    
  0.10995187732618171    0.11846593314515083    0.1301362181007955    0.14045298703871814    0.14449572668044686    
  0.1404535787966588    0.13013725532583223    0.11846758062882347    0.10994655705366985    0.10619348837859291    
  0.10654784122501111    0.13851056749110477    0.1478228079979577    0.1543208863540285    0.15431997281115029    
  0.14783001767434922    0.13850997332676981    0.13146777604006343    0.1298305634433815    0.1337231012977804    
  0.1404513173868631    0.14546726609642793    0.14546677688151136    0.1404536166944464    0.13372022638208597    