#     DFTpy    
  CRYSTAL 
    
  PRIMVEC    
  1.8496015326703772    -3.2036038283423593    0.0    
  1.8496015326703772    3.2036038283423593    0.0    
  0.0    0.0    6.114255724284605    
  PRIMCOORD    
  4    1    
  Si    1.8496015326703774    1.0678679427807862    0.3852561960593095    
  Si    1.8496015326703774    -1.067867942780787    3.4423840582016116    
  Si    1.8496015326703774    1.0678679427807867    2.671871666082992    
  Si    1.8496015326703776    -1.0678679427807867    5.728999528225295    
  BEGIN_BLOCK_DATAGRID_3D    
  3d_datagrid_density    
  BEGIN_DATAGRID_3D#0    
  17    17    27    
  0.0    0.0    0.0    
  1.8496015326703772    -3.2036038283423593    0.0    
  1.8496015326703772    3.2036038283423593    0.0    
  0.0    0.0    6.114255724284605    
  0.0798163259616693    0.0843586416078644    0.10022486202305704    0.13322304207954785    0.1917354420793956    
  0.2830436424563673    0.39953418056048157    0.5054063695793269    0.549299373847665    0.5054064054274966    
  0.39953424546448035    0.2830436075050202    0.1917354826512744    0.13322304192491072    0.10022486421980187    
  0.08435866772737    0.0798163259616693    0.08435865345850485    0.08435707779021467    0.09458466824615251    
  0.11916125708906435    0.16552124821072214    0.24201689367305024    0.3485355401084388    0.46119573939676367    
  0.5353178126189289    0.5352902969768771    0.4611531275718827    0.34855938964241223    0.24204613511236317    
  0.16549958043308904    0.11916546931123143    0.09458269582814728    0.08435865345850485    0.10022485262324841    
  0.09458464326050385    0.10022401180842828    0.11916793315458357    0.15742850147111304    0.22307038470604748    
  0.31682577431642667    0.41602529034657715    0.482592754630889    0.5031518492607445    0.48265451468613096    
  0.4160301087920454    0.3167732823164062    0.22307106461752227    0.1574452417256632    0.1191654544520435    
  0.10022485262324841    0.13322307544982584    0.11916129152548881    0.11916795999996686    0.13321629566275628    
  0.16552179321702803    0.22306291214219065    0.30560790679719746    0.3835831118807527    0.4078085749034409    
  0.39027485100587767    0.3902550144666399    0.4077959679811818    0.3836288611257271    0.30561437654256257    
  0.22307114798824978    0.1654995768515559    0.13322307544982584    0.19173544932987385    0.16552122906995903    
  0.1574284869225937    0.16552176828923712    0.19171694950962131    0.24204639717627924    0.31679271271604553    
  0.38361453319719435    0.37218224273464584    0.2928570291862082    0.2510566995529572    0.2928552385021454    
  0.3721747206821358    0.3836287750761087    0.31677323687731257    0.24204612849308277    0.19173544932987385    
  0.28304364646679064    0.24201687268551114    0.22307039488198818    0.22306291417775637    0.2420465032049591    
  0.2830434910996903    0.34853252230370224    0.41604518123179485    0.4078124810005437    0.29283401361796624    
  0.1945937644515972    0.19460834390640155    0.2928553063488328    0.4077960426344805    0.41603013485683654    
  0.3485593798111376    0.28304364646679064    0.3995342134492433    0.34853550164469604    0.3168257836672326    
  0.3056078573794949    0.3167926912340044    0.34853248820273597    0.3995603330559056    0.46115465027227415    
  0.48263604482593164    0.39022997626367284    0.2511021978142503    0.19459377142533826    0.25105674368492537    
  0.39025496993065906    0.4826543525554368    0.4611531400860296    0.3995342134492433    0.5054062941391304    
  0.46119579354657914    0.41602524028256577    0.38358317549017484    0.3836145198823558    0.4160451583724697    
  0.4611545975801043    0.5054143319375889    0.5353145203874536    0.5031638563228821    0.3902300201415981    
  0.292834008267469    0.29285708206248984    0.3902749410890327    0.5031518253427133    0.5352904708210083    
  0.5054062941391304    0.5492993733671654    0.5353177508711349    0.48259270226822326    0.4078085590843121    
  0.3721822479548088    0.4078124947402729    0.4826361118040004    0.5353147062067486    0.5492855215157486    
  0.5353145901517922    0.48263603784823833    0.4078124820496252    0.37218234893043245    0.40780856186827935    
  0.482592737246785    0.5353178445919563    0.5492993733671654    0.5054063488149552    0.5352903550909207    
  0.5031517983012137    0.39027481213865445    0.292857113041866    0.29283403196155755    0.3902300786542073    
  0.5031639102082531    0.535314705155829    0.5054142102087805    0.4611546099576506    0.4160452733163523    
  0.3836144884452471    0.3835831309066977    0.41602526375316895    0.46119575789528944    0.5054063488149552    
  0.3995342698907926    0.4611531345462858    0.482654435227446    0.3902550613445105    0.25105661299780796    
  0.1945937638824561    0.25110218985271743    0.3902299937319718    0.48263603569612124    0.46115454230840786    
  0.39956020039042006    0.34853244340346295    0.31679277714169823    0.3056077907011544    0.31682576002185875    
  0.34853545994083435    0.3995342698907926    0.2830436645322196    0.34855940616908526    0.4160302146371308    
  0.40779601748253164    0.2928552612806834    0.19460830988571656    0.19459379656374365    0.2928340755427659    
  0.40781247306366114    0.4160451962344274    0.3485325157299567    0.2830434931956598    0.2420464711308886    
  0.22306293070733518    0.2230703983758798    0.2420168823020517    0.2830436645322196    0.1917354736485862    
  0.24204611290231026    0.3167731963671888    0.3836286979768089    0.3721746037304776    0.2928552288410094    
  0.25105674345064855    0.2928570697883355    0.3721822848358426    0.3836144560125869    0.31679271659476776    
  0.24204643703529405    0.19171703677549748    0.16552174823505708    0.15742849702604392    0.1655211861160508    
  0.1917354736485862    0.1332230746229982    0.1654996078529454    0.22307115476284345    0.305614344515738    
  0.3836288791280027    0.4077960710269455    0.39025509094385913    0.3902747716474396    0.40780857817583754    
  0.3835831053464338    0.30560787020790814    0.22306293997705035    0.16552184279799248    0.13321629427970721    
  0.1191679401769308    0.11916129630139279    0.1332230746229982    0.10022488523262271    0.11916546445992114    
  0.157445192365045    0.22307111702147261    0.31677321448786416    0.4160302149693027    0.48265447001436135    
  0.5031519110138716    0.4825927429269532    0.4160252962823523    0.31682576100676924    0.22307036778279563    
  0.15742854415248267    0.11916790107518863    0.1002240072540822    0.09458466243396904    0.10022488523262271    
  0.08435866133543558    0.09458269189352969    0.11916546385882407    0.1654996106701995    0.2420461545229363    
  0.3485593328102492    0.4611531736293744    0.5352904339168808    0.5353177576139856    0.46119574843804473    
  0.34853553986149194    0.24201686750599488    0.16552122274651246    0.11916127777126803    0.09458465937503288    
  0.08435707518513544    0.08435866133543558    0.0798163259616693    0.0843586416078644    0.10022486202305704    
  0.13322304207954785    0.1917354420793956    0.2830436424563673    0.39953418056048157    0.5054063695793269    
  0.549299373847665    0.5054064054274966    0.39953424546448035    0.2830436075050202    0.1917354826512744    
  0.13322304192491072    0.10022486421980187    0.08435866772737    0.0798163259616693    0.07867707282278397    
  0.08299126402236909    0.09802630563825787    0.1291899348943463    0.18407182905673325    0.26882650048332374    
  0.3755859574466232    0.47159857292633955    0.5112317785227993    0.4716208753660561    0.37555337780061154    
  0.26881506504491265    0.18409952491911807    0.12918626214029721    0.09802336798535138    0.0829928447668354    
  0.07867707282278397    0.08299283130460393    0.08298911899548783    0.09179688169051392    0.11307746281701728    
  0.15314290009031478    0.21879213331694694    0.3103221772025223    0.409168751510334    0.47636352653943004    
  0.47633273970549167    0.4091437009856125    0.31035720503679487    0.2188063569590081    0.15311422807655226    
  0.11308509895149245    0.09179430149161649    0.08299283130460393    0.09802337065450151    0.09357316107760263    
  0.09802700532628013    0.11308536224136234    0.14357237612666993    0.19603082500807562    0.27298989383893746    
  0.3624822014934919    0.4352101487932262    0.46285276225049615    0.43524571546059937    0.362492800197334    
  0.2729531446898248    0.19602713945694863    0.14359368799462793    0.11308506556737351    0.09802337065450151    
  0.1291862633595338    0.11881859512631661    0.11881507567010015    0.1291828585470612    0.153140705588801    
  0.19602300166966918    0.260708010343837    0.33663983733467184    0.3956058250246562    0.42055699576182554    
  0.4205523402171227    0.39559221638443315    0.3366416719035971    0.2607370747999963    0.19602720982434926    
  0.15311426671075717    0.1291862633595338    0.18409947937687557    0.166155585670565    0.16072335684363825    
  0.1661607322993713    0.184071825697417    0.21880388744291024    0.27298326644675924    0.33663380300406787    
  0.37797584605269524    0.37842291886818696    0.36977535613638446    0.37841910718826266    0.37799036050388335    
  0.3366415859638754    0.27295309634592096    0.21880634530834858    0.18409947937687557    0.2688151319162793    
  0.24348595169404136    0.23180928347657592    0.23181090487349842    0.24351688916176392    0.26882314033882176    
  0.31032447135520647    0.36249872819478246    0.3956047672464158    0.37841527492458055    0.3420615237058012    
  0.34207233648659446    0.37841923910337544    0.39559227085149484    0.36249282963406193    0.31035723507996077    
  0.2688151319162793    0.37555340785314284    0.34832023711323784    0.32861795164940827    0.3208315759402623    
  0.3285653930140811    0.34831295312893223    0.37558651075307886    0.40914982611196654    0.43522773306858265    
  0.42054397123756765    0.3697914253120102    0.3420615191892695    0.36977543052997114    0.42055226437831245    
  0.4352456169510165    0.4091436638473298    0.37555340785314284    0.4716208710392711    0.45389667303432213    
  0.41719665881034557    0.38249139499704016    0.3825442685078833    0.41722706120698905    0.4538512734769819    
  0.47161117222734833    0.47635867796796616    0.4628507928202345    0.4205440344057228    0.3784152450701059    
  0.378422950359199    0.4205570644572275    0.46285268579029754    0.47633286886800497    0.4716208710392711    
  0.5112318034298909    0.5194749295681623    0.45883741385608773    0.3578634333528268    0.31091484856374785    
  0.3578740564779219    0.4588663447823651    0.5195016923345851    0.5112129636067676    0.4763586635474993    
  0.4352277798209083    0.3956047148860797    0.37797594072387425    0.3956058559468418    0.4352101339959805    
  0.47636357381557004    0.5112318034298909    0.471598654497945    0.5194804523196559    0.4653547459686809    
  0.301036884254846    0.18280012775846388    0.1827711075690192    0.3010039229975229    0.46536035541354454    
  0.5195017124851999    0.4716111071035034    0.4091497561879843    0.3624987788886662    0.33663378068678274    
  0.3366398307855313    0.362482185640846    0.40916878104265086    0.471598654497945    0.37558595030844877    
  0.4538435319640195    0.4588873783359778    0.301024166972172    0.13272417156538607    0.08151607317766621    
  0.1327548056501671    0.30100386917856015    0.4588663013337508    0.4538513164805116    0.37558643730873903    
  0.3103244005305155    0.272983338547311    0.2607079154184793    0.2729898632121491    0.3103220874994307    
  0.37558595030844877    0.26882653502858866    0.3483202994927665    0.41721067840369364    0.35785292186784906    
  0.1828062672978225    0.08151125835687187    0.08151608423098121    0.18277119134843087    0.35787409006560084    
  0.4172270599108881    0.34831299767110996    0.2688231468893451    0.21880392322798745    0.19602302909282526    
  0.19603087684347478    0.2187921256506609    0.26882653502858866    0.18407183211381045    0.24352104433998423    
  0.3285616017760764    0.38256809854757    0.3108844773005566    0.1828062179174416    0.1327241856027011    
  0.18280011742554933    0.3109149249823579    0.3825441460184383    0.3285654320372205    0.24351678591903994    
  0.18407187933063843    0.15314064092589136    0.1435723515928471    0.15314284183684013    0.18407183211381045    
  0.12918995789768897    0.16615019607044768    0.2318179976204779    0.32081003083809484    0.3825682587837847    
  0.3578529087099671    0.30102418299907885    0.3010368541255438    0.35786344443017315    0.38249139560853196    
  0.3208316091879068    0.23181093997625557    0.16616077174682517    0.12918284716500178    0.11308536768353881    
  0.11307747285388312    0.12918995789768897    0.09802631483093656    0.1188159762648369    0.16072674034008344    
  0.2318179572383645    0.32856163005256095    0.41721070541351124    0.4588873888860637    0.46535488629187294    
  0.458837454812879    0.41719663737726037    0.3286179958827425    0.2318092239925202    0.16072339461664495    
  0.1188150387643281    0.09802700358647154    0.09179688762677173    0.09802631483093656    0.08299126885747753    
  0.09357258966921247    0.11881599511066547    0.1661501964040803    0.24352108634804798    0.34832025074952544    
  0.4538434799261317    0.5194805163667656    0.5194748689387205    0.4538966694764706    0.3483202838625088    
  0.2434859316752659    0.1661556106764378    0.11881859742958666    0.09357319239509329    0.08298913234976832    
  0.08299126885747753    0.07867707282278397    0.08299126402236909    0.09802630563825787    0.1291899348943463    
  0.18407182905673325    0.26882650048332374    0.3755859574466232    0.47159857292633955    0.5112317785227993    
  0.4716208753660561    0.37555337780061154    0.26881506504491265    0.18409952491911807    0.12918626214029721    
  0.09802336798535138    0.0829928447668354    0.07867707282278397    0.07531086152509646    0.07911989170203007    
  0.09215382179501809    0.11861847732924198    0.1641947842307463    0.2326980659014266    0.31648940744934656    
  0.38999725711852556    0.4199189113605477    0.3900166502276767    0.31644832791612254    0.2326869992196016    
  0.16422666350211812    0.11861386803046525    0.09215087220422376    0.0791219752676013    0.07531086152509646    
  0.07912196040762506    0.07911813873766774    0.08606805445408684    0.10264922212851421    0.1334732280755136    
  0.1828882689093812    0.25012251493932564    0.32180190330278424    0.370489306502315    0.37046497012677454    
  0.3217926706070899    0.25015404512956596    0.18289648293416103    0.1334453360596787    0.10265646515342568    
  0.0860657417484082    0.07912196040762506    0.0921508732352182    0.08906465005976567    0.09215536540629703    
  0.10265656469557545    0.12400978178712241    0.16060768055890892    0.2140116796155449    0.27748284589703254    
  0.3321603147146213    0.3541427425893467    0.33217650199257265    0.27749360118986893    0.21398295923514032    
  0.1606038963568326    0.12403153279720329    0.10265647456247431    0.0921508732352182    0.11861391293310443    
  0.11242213920707021    0.11241793910756823    0.11861008435290418    0.1334717953673904    0.1606015908481731    
  0.20258080694070274    0.25632600558553775    0.3082322394691309    0.33968178520808806    0.3396875746028928    
  0.30821736003952993    0.2563184926831777    0.2026109080875272    0.16060393659748037    0.133445325210463    
  0.11861391293310443    0.1642266441370986    0.15531664725824607    0.15290013520372903    0.1553219425830409    
  0.1641992583582711    0.1828930181403477    0.21401220337620716    0.2563135377832474    0.29970056161943703    
  0.32932184070004344    0.33900367916573765    0.32932013382540587    0.29971634443380085    0.25631842682450856    
  0.21398295620120486    0.18289648036731918    0.1642266441370986    0.23268703028391882    0.22375002012570097    
  0.22050053293247068    0.2205042758368872    0.22377961158185686    0.2326950766258625    0.2501247566177124    
  0.2774954196622337    0.30822854563429175    0.3293204712950186    0.3369389348919307    0.3369414618290481    
  0.3293202777724965    0.3082174639808992    0.27749365208331594    0.25015404604854635    0.23268703028391882    
  0.31644834515632614    0.31378577180825745    0.3101808953773632    0.3081831834131481    0.31012827512716795    
  0.31377720046168    0.31648159069108245    0.32179584523374705    0.3321624523103685    0.33968794262600754    
  0.3390015998832549    0.3369389673778157    0.33900379619081394    0.33968757809983036    0.3321764025001815    
  0.3217926706609764    0.31644834515632614    0.39001659201332156    0.40097043707171126    0.3873737737325194    
  0.36514260044024627    0.36519880525681114    0.3874022037331532    0.40092769372052334    0.3900063427418452    
  0.3704878099033732    0.35413493540590196    0.3396879779559407    0.3293204335736617    0.3293218968257874    
  0.33968187053174265    0.35414271631972377    0.3704651307172994    0.39001659201332156    0.4199189408225601    
  0.45300840720001156    0.4178100905286236    0.3334288788679378    0.29175355008627324    0.3334399901369882    
  0.41783647151345527    0.45303570406256094    0.41989961742661414    0.37048775789413196    0.33216248128119436    
  0.3082284897221257    0.2997006224866952    0.30823228957881116    0.3321602733190433    0.3704893217626258    
  0.4199189408225601    0.3899972894956374    0.453016035346021    0.41988812595411834    0.2733380830464414    
  0.1643484742426816    0.16431906756605322    0.27330626618132936    0.41989467336060876    0.4530357992700828    
  0.3900063464092137    0.3217958421100949    0.277495462395207    0.25631354181985283    0.2563259952830123    
  0.2774828067745039    0.3218018769338836    0.3899972894956374    0.3164894372305393    0.4009176272765611    
  0.41786132998736064    0.2733235953636556    0.11611562775795492    0.06929465999762062    0.11614506193758177    
  0.27330619774317677    0.41783646798895485    0.40092764223005023    0.31648156576698905    0.2501246940532745    
  0.21401225353024825    0.20258076460358215    0.21401162532125503    0.2501224488163073    0.3164894372305393    
  0.23269808355455576    0.3137772286427147    0.3873875793007488    0.3334171947540227    0.16435546880776275    
  0.06928913581464434    0.06929467465399902    0.16431908119928157    0.33343999515411826    0.3874022952171566    
  0.3137772227279807    0.23269507859779806    0.18289306982307343    0.160601634809731    0.1606077337963369    
  0.18288829022973754    0.23269808355455576    0.16419476125582194    0.22378511265180853    0.3101299696049754    
  0.365222689448251    0.29172120135352664    0.16435542318565846    0.11611566884272677    0.164348463280194    
  0.2917535774615741    0.36519875476854946    0.31012825988152104    0.22377953123183567    0.16419933241967938    
  0.13347173463650772    0.1240097687228743    0.13347316753569372    0.16419476125582194    0.11861850435351783    
  0.1553140133596509    0.22050979115333494    0.30815516508077967    0.3652227393938593    0.33341721363323845    
  0.2733236647543747    0.2733380695651389    0.3334288695666975    0.3651425328965694    0.3081832442866879    
  0.2205042939156693    0.15532200353313563    0.11861010127028146    0.10265655246485994    0.10264925345991638    
  0.11861850435351783    0.09215383469337605    0.11241795464695638    0.15290247059006368    0.22050977795497012    
  0.3101300195105015    0.3873875932044261    0.4178613311069249    0.41988823049334684    0.4178101202076273    
  0.3873737563541632    0.3101809464756881    0.22050051037048352    0.15290019075438563    0.11241790236891966    
  0.09215536276472706    0.08606805730697854    0.09215383469337605    0.07911991099173046    0.08906571727440356    
  0.11241797274110307    0.15531405013079744    0.22378519172325695    0.3137771589068831    0.400917658818467    
  0.45301610147468985    0.45300839123714    0.4009704528632628    0.31378577651105133    0.2237499814800688    
  0.15531666133023    0.1124221277399068    0.08906468503306539    0.07911813167964503    0.07911991099173046    
  0.07531086152509646    0.07911989170203007    0.09215382179501809    0.11861847732924198    0.1641947842307463    
  0.2326980659014266    0.31648940744934656    0.38999725711852556    0.4199189113605477    0.3900166502276767    
  0.31644832791612254    0.2326869992196016    0.16422666350211812    0.11861386803046525    0.09215087220422376    
  0.0791219752676013    0.07531086152509646    0.07054695333879869    0.07371021422297988    0.08425939902837908    
  0.10497869717677191    0.13944690627748457    0.18937402574717907    0.24839777844769012    0.2987502176918123    
  0.3188739185785988    0.2987568934111923    0.24836478513931398    0.18937162128532298    0.13946726586327238    
  0.10497446042796293    0.08425857798407632    0.07371107083304429    0.07054695333879869    0.07371105356364333    
  0.07370944545523574    0.07890810164172808    0.09084320553778281    0.11249637299955043    0.14619720487763313    
  0.190392964384007    0.23605007018061389    0.2663694770806894    0.266355107802136    0.23604851432041715    
  0.19041788020014022    0.1461999363119992    0.1124783515499224    0.09084821066475972    0.07890663229743794    
  0.07371105356364333    0.08425858136778386    0.08229549477030546    0.08425910487723577    0.09085012943162651    
  0.1042744484061295    0.12722882035792749    0.16008065700371002    0.1984757830083933    0.23135434175966568    
  0.24454242431728995    0.23136190413311442    0.19848014348869156    0.16005791010294398    0.12722793736855795    
  0.10428963529685388    0.09084819679535583    0.08425858136778386    0.1049744812918641    0.10217515941113298    
  0.10217726117589304    0.10497072642931166    0.11249659839193116    0.12722573458564765    0.15068907907050322    
  0.18154962480335154    0.21285247423032844    0.23287189441256612    0.23287493821227415    0.2128445386081085    
  0.18154741384531012    0.15070994632979837    0.12722798681409356    0.1124783574191318    0.1049744812918641    
  0.13946722375303083    0.1376204590788508    0.13757581152195852    0.13762235670048695    0.13944690182771557    
  0.14620067152205224    0.16007994361454334    0.18154402277964868    0.20711741758804153    0.22829625908657222    
  0.23646273805427132    0.22829563368220301    0.2071241690463075    0.18154737676411756    0.16005791259967836    
  0.14619994905971917    0.13946722375303083    0.18937166162278196    0.19248179556446754    0.19587779071878492    
  0.19587354179325192    0.19250940464126556    0.18937285255949374    0.19039309700568718    0.1984830753900593    
  0.21284924654424203    0.22829666093290266    0.23831740188498418    0.23832127274506654    0.22829570349678036    
  0.21284462434846727    0.19848015289579418    0.19041787546928898    0.18937166162278196    0.24836476619676048    
  0.26333072895701604    0.27437088114467756    0.278340906484861    0.27433596748772443    0.26332417512239337    
  0.24839696948170825    0.23604435241257835    0.23135839670379524    0.23287333503176819    0.23646421442118948    
  0.2383173957659455    0.23646279383782984    0.23287493712265894    0.2313618457293753    0.23604848704054468    
  0.24836476619676048    0.2987568574142416    0.33169479662647783    0.34861263756506955    0.34985811171117254    
  0.3499089027004768    0.34862128729397374    0.3316585505955777    0.29875733697189466    0.26636566587656296    
  0.2445384671552412    0.23287337672115668    0.22829663677823356    0.22829631053199184    0.23287193249979535    
  0.24454241773893032    0.2663552019725542    0.2987568574142416    0.31887394607281533    0.3728729443940256    
  0.3888030211883969    0.35888175150615614    0.33745436323290046    0.3588861275329991    0.3888492768996962    
  0.37287101232351827    0.31886933373313053    0.2663656102936107    0.23135841196419    0.21284922831346426    
  0.2071174769160961    0.21285248731440903    0.23135431312536023    0.2663694320256559    0.31887394607281533    
  0.2987502447381988    0.37286345098934076    0.39801492103145786    0.32976529765494333    0.2518904575130368    
  0.2518663037358864    0.3297107934397582    0.398035622796806    0.3728711073924142    0.298757322375971    
  0.23604433713481618    0.19848312586465877    0.18154400338769924    0.18154961653912755    0.19847575859682812    
  0.23605006561259714    0.2987502447381988    0.24839779738756515    0.33165418493218823    0.38886419517115556    
  0.32973728998364327    0.2087105113133021    0.15826279434865884    0.20876260499112143    0.3297107068315916    
  0.38884929863657375    0.33165847920320113    0.24839694519900893    0.19039307094006797    0.16007997954279918    
  0.15068903545420348    0.16008060076644193    0.19039292343158265    0.24839779738756515    0.18937403066298866    
  0.26332798810942326    0.34861034627644694    0.35887381468794843    0.2518881448844007    0.15828192699196658    
  0.15826282082904256    0.2518663302798903    0.35888615622972164    0.34862135202572264    0.26332420783602756    
  0.18937283061481552    0.1462006911972891    0.12722577519244846    0.12722884215990266    0.1461972241904829    
  0.18937403066298866    0.13944690328082815    0.19250993973948632    0.27433786130146603    0.34991832390627176    
  0.3374381947155602    0.25188807517659206    0.20871054319461363    0.25189041719410316    0.3374543520449075    
  0.34990877807117454    0.2743360211728239    0.19250930169007968    0.1394469709432059    0.11249655113904877    
  0.10427443840933415    0.11249635103648252    0.13944690328082815    0.10497871946989373    0.13761343220093195    
  0.19588103326638165    0.2783220039850535    0.34991838313789003    0.3588738295917009    0.3297373132817822    
  0.32976531668094594    0.3588817649078293    0.3498580890094058    0.27834092077188155    0.19587354392494097    
  0.13762241256277863    0.1049707257716162    0.09085012539995828    0.09084322074118242    0.10497871946989373    
  0.08425940590052979    0.10217493657864134    0.1375807097551821    0.19588098870530982    0.27433790680773174    
  0.3486103420183422    0.38886423816610766    0.3980149448942627    0.3888030988410397    0.34861261633118334    
  0.27437090535697395    0.1958777529325328    0.13757587591430712    0.10217721960108175    0.08425908386130174    
  0.07890811253758226    0.08425940590052979    0.0737102293187927    0.08229545169657995    0.10217496557968807    
  0.13761342415209504    0.19250998389771368    0.2633279678854131    0.3316542652329648    0.37286341616142044    
  0.37287287412044323    0.33169483496368696    0.2633307106121437    0.19248176764704436    0.1376205090785943    
  0.10217515189541988    0.08229550550638692    0.07370944322798004    0.0737102293187927    0.07054695333879869    
  0.07371021422297988    0.08425939902837908    0.10497869717677191    0.13944690627748457    0.18937402574717907    
  0.24839777844769012    0.2987502176918123    0.3188739185785988    0.2987568934111923    0.24836478513931398    
  0.18937162128532298    0.13946726586327238    0.10497446042796293    0.08425857798407632    0.07371107083304429    
  0.07054695333879869    0.06569903570738041    0.06816176101550896    0.07630919291500105    0.09193471722522438    
  0.1169231308999853    0.15146262715027342    0.1908550214453924    0.2236770622610666    0.2366027601308071    
  0.22367672693154222    0.19084470901769668    0.1514634072361398    0.11692805772752718    0.09193354703719665    
  0.07630949645144197    0.06816133963446852    0.06569903570738041    0.06816131533753833    0.06816159023483546    
  0.07189421374664824    0.08022622808879831    0.09486424293366087    0.11682530882395795    0.14445729544657868    
  0.17198503543989027    0.18974313073785515    0.1897428299115162    0.1719823159835084    0.1444672155647567    
  0.11682312690026814    0.09486220719867113    0.08022564405527026    0.0718952357612447    0.06816131533753833    
  0.07630950926013114    0.07511216424832781    0.07630933038823029    0.08022628281358882    0.08819883904744012    
  0.10182139113139152    0.12098520509643705    0.14279750467761748    0.16097164884604775    0.16811418132695383    
  0.1609731899716365    0.14279860674984834    0.12097870296294246    0.10182159320069688    0.08820239807679082    
  0.08022564967374969    0.07630950926013114    0.09193355655882447    0.0911114900224167    0.09111224655088379    
  0.09193393173993691    0.09486492958278725    0.10182238907083023    0.11385606751266932    0.1300757101521636    
  0.14657686940111142    0.15709229945267597    0.1570902435044274    0.1465769102867811    0.13007388465278158    
  0.11386288566328764    0.1018216509569535    0.0948622084439125    0.09193355655882447    0.11692800858961068    
  0.11894782172638495    0.12005544116201951    0.11894713009847008    0.11692264848891337    0.11682458240636362    
  0.12098438558102985    0.13007289016273915    0.14234183294937242    0.15313765524319195    0.15741465447934214    
  0.15313859560866644    0.14234284398131333    0.13007385068793462    0.12097868221251477    0.11682312422059486    
  0.11692800858961068    0.15146344651128724    0.16069460110667597    0.16726377935302705    0.16726183011242918    
  0.1607030150082001    0.15146399497463056    0.14445794928567593    0.1428008723227416    0.14657679026453313    
  0.1531395338661962    0.15819338966698737    0.1581946129401988    0.15313864078522585    0.14657696734903172    
  0.1427986155435782    0.14446720963241808    0.15146344651128724    0.19084470634096484    0.21372522849724565    