#     DFTpy    
  CRYSTAL 
    
  PRIMVEC    
  6.588448493402891    5.255076456358621e-07    8.67567060137931e-07    
  5.255077704910344e-07    6.588450752726764    8.77055566608276e-07    
  8.675671710979311e-07    8.770555867462069e-07    6.588450296056706    
  PRIMCOORD    
  16    1    
  Si    0.9721932110497583    5.616256494237544    2.3220322658596344    
  Si    5.616255744556981    0.9721953027610268    4.266417085538917    
  Si    0.9721942014442274    0.9721944447389602    0.9721947868884968    
  Si    2.322035676289334    2.322036640581827    2.3220363979783327    
  Si    5.616254146921911    2.3220324278900586    0.9721936970361371    
  Si    0.9721929937838658    4.266420787696101    5.616256442855389    
  Si    2.3220315584648343    0.9721955020830537    5.616256973028005    
  Si    4.266416845815596    5.616258017423341    0.9721937761952864    
  Si    4.266416512938002    2.322037028320748    5.616260041679133    
  Si    2.322033276415221    4.2664150005427155    0.9721905794999208    
  Si    4.266414327842583    4.266418277830238    4.2664169953008315    
  Si    5.616255931164225    5.616259035254476    5.616257805624814    
  Si    2.322035934567328    5.61626201748852    4.2664172280426005    
  Si    4.266413352778619    0.9721902185630078    2.3220341619174407    
  Si    5.616258286596894    4.2664176753889    2.322036554152897    
  Si    0.972190502744439    2.3220349599687973    4.266414945386533    
  BEGIN_BLOCK_DATAGRID_3D    
  3d_datagrid_density    
  BEGIN_DATAGRID_3D#0    
  29    29    29    
  0.0    0.0    0.0    
  6.588448493402891    5.255076456358621e-07    8.67567060137931e-07    
  5.255077704910344e-07    6.588450752726764    8.77055566608276e-07    
  8.675671710979311e-07    8.770555867462069e-07    6.588450296056706    
  0.10816593367184199    0.11107605202479515    0.11930565481922478    0.1309320040095999    0.1433693078663413    
  0.1545260052956129    0.16215060044043503    0.1647442006452466    0.16215080343272786    0.15452611776162584    
  0.14336965504280105    0.13093219894009364    0.11930614631248182    0.11107620748218253    0.10816661491916268    
  0.11107636210179786    0.11930656636671946    0.1309325548439888    0.14337024253366373    0.1545265962343183    
  0.16215135567957642    0.16474467793850364    0.1621511678386054    0.1545264912935476    0.14336964307283998    
  0.13093231141866446    0.1193058847018266    0.1110761502881342    0.10816593367184199    0.11107602600994658    
  0.12671735999078051    0.1490616980595637    0.17574040334065721    0.20354122497198066    0.22874948836920675    
  0.24621800443164063    0.25229388084507276    0.24621809333074993    0.2287498593342011    0.2035414246426327    
  0.17574109346427066    0.1490618640762191    0.12671799847778897    0.11107617365823357    0.10226672960889219    
  0.09926264513675724    0.10033913258158413    0.10325598293995962    0.10642615368484308    0.10880588327241045    
  0.10965496094418202    0.10880587715244108    0.10642595187444198    0.1032558805649805    0.10033873762790523    
  0.09926251146670279    0.10226623152388475    0.11107602600994658    0.11930565345285754    0.14701678754508937    
  0.18386386792878295    0.22745776022190825    0.27459949543137285    0.31940283823891275    0.3521035783147741    
  0.3640776209810707    0.35210385508502295    0.31940311422025297    0.27460023437474684    0.22745803762196917    
  0.18386450716650773    0.14701692378357858    0.11930620316904314    0.10074659890118824    0.08975995340449672    
  0.08433777106162274    0.08220289898935962    0.08168347387919532    0.08178428343742536    0.08187882582599376    
  0.08178423767163137    0.08168357000695728    0.08220271116294985    0.08433783725832884    0.08975958671348566    
  0.10074653360733314    0.11930565345285754    0.13093199609846928    0.1674922237597193    0.21511017286236375    
  0.2712866427404756    0.33427731586593207    0.3981291325851497    0.44786628026965214    0.46684189808118215    
  0.44786638507315085    0.3981298121742777    0.3342775494554297    0.271287474860817    0.21511042837854064    
  0.16749289472604606    0.13093205322450635    0.1057711161938283    0.0900560685221207    0.08132461601365129    
  0.07700643764290314    0.0751289266632453    0.07447963383853651    0.0743389509158327    0.07447971818058222    
  0.07512887220701615    0.07700653392539115    0.08132447652020018    0.09005611489339585    0.1057708046475531    
  0.13093199609846928    0.14336925117115876    0.18259814186533038    0.2333480648777481    0.29257255923946257    
  0.3600676647002138    0.4320161678979527    0.49029274035785664    0.5127142709956632    0.4902929834970939    
  0.4320165514540843    0.36006838946206815    0.2925728827540421    0.23334881233910149    0.1825982416998764    
  0.14336984359863517    0.11641208924024957    0.09974109888376992    0.09072646651480715    0.08651449943684851    
  0.08490154765519861    0.08452814956885657    0.08450817027307596    0.08452812722500896    0.08490180132531704    
  0.08651437889093797    0.09072669398191212    0.099740824300433    0.11641221542568805    0.14336925117115876    
  0.1545260493764901    0.1883279289032117    0.2326284767906275    0.2845543068356398    0.34375922179017593    
  0.4072689461199123    0.4584710722239927    0.47782831225004685    0.4584711068485854    0.40726951252713134    
  0.34375952515660413    0.2845550133130871    0.2326286413775043    0.1883285713001066    0.15452610358134863    
  0.13186733882349072    0.11889841449078362    0.11332293711870813    0.11230254212119888    0.11352334953773342    
  0.11515531416225687    0.11583321980968847    0.11515540343397193    0.11352337732133812    0.11230274789601186    
  0.11332281001619773    0.11889858165538719    0.1318669305835344    0.1545260493764901    0.16215062086439783    
  0.1830301528643655    0.21280280330577137    0.24937617471131737    0.2909925532718955    0.33426820582576877    
  0.3681826198661145    0.3807827411557709    0.3681828397503321    0.3342683513564823    0.2909930705911027    
  0.24937638528643985    0.21280350799298092    0.18303033898678042    0.16215123132141404    0.15043479948771882    
  0.14709329169841548    0.1502951045709169    0.1574096916662246    0.16600027702896933    0.17299915420834752    
  0.17560636741320634    0.17299923929064465    0.16600048317649382    0.15740954382197153    0.15029537179812283    
  0.1470929049696643    0.15043481175237627    0.16215062086439783    0.16474421796516261    0.16887652322984706    
  0.18093270858599575    0.19917414524725485    0.22108488995827558    0.24368927460758427    0.2612257070507713    
  0.2677265101681304    0.2612257040181707    0.2436895814221972    0.2210849341314203    0.1991748136946681    
  0.18093294428552847    0.16887728655813547    0.16474452002264406    0.1688772944765667    0.18093291287664195    
  0.1991747093066058    0.2210846647397139    0.2436892553231463    0.26122512234712675    0.2677261661063268    
  0.2612252397992353    0.24368911881421537    0.22108462323618266    0.1991742049369697    0.1809327249986077    
  0.1688765590714766    0.16474421796516261    0.16215073850076592    0.1504348997117461    0.14709297788225675    
  0.15029538242587928    0.15740969803153548    0.1660008250319825    0.17299952692771803    0.1756069555868361    
  0.17299969507500804    0.16600088955953274    0.15741008730960324    0.1502955517903337    0.14709357971673603    
  0.15043527517105432    0.16215173060342808    0.18303085026610605    0.21280410590409055    0.24937683906281966    
  0.2909935543569217    0.3342684484933776    0.36818290632910683    0.38078274512768834    0.36818259756025856    
  0.3342681331893747    0.29099263922617524    0.24937639290816793    0.21280301861179976    0.1830304332734161    
  0.16215073850076592    0.1545263188083256    0.13186704051116288    0.1188987703480032    0.11332283246281019    
  0.11230291312236045    0.11352350038005683    0.11515575156993123    0.11583354434564794    0.11515573761382468    
  0.11352377201809435    0.11230302585544628    0.11332337622364357    0.11889903424720503    0.13186798666213337    
  0.15452697919004468    0.18832967738961895    0.232629860943884    0.28455627656077775    0.34376070484396204    
  0.4072708530507774    0.45847224743694165    0.4778292919931755    0.45847172992435936    0.40726957401970165    
  0.3437596272234586    0.2845548657987173    0.23262884654957602    0.18832830108661622    0.1545263188083256    
  0.1433695193776223    0.11641237067410524    0.09974091133944525    0.09072682084837314    0.08651446151358204    
  0.084901935381908    0.08452823753785041    0.08450849556666173    0.08452836089683197    0.08490202057525204    
  0.08651482700342536    0.09072707694730152    0.09974169358232804    0.11641300525575425    0.1433709197592121    
  0.18259978826572043    0.23335057251079538    0.2925748583355509    0.36007054042554076    0.4320187492092806    
  0.4902954646043972    0.5127162977280927    0.4902943763627427    0.43201749083131924    0.36006846324548397    
  0.29257330028848855    0.2333486396671814    0.18259873388227496    0.1433695193776223    0.13093236706453476    
  0.10577087172645308    0.09005630005229064    0.08132444075871247    0.07700665654243914    0.07512884393218669    
  0.07447987521065859    0.07433906205360456    0.07447992104322222    0.07512920662398226    0.07700685267960418    
  0.08132514760960358    0.09005681261057048    0.10577201111250575    0.13093340649434623    0.16749458028666062    
  0.21511260497308804    0.2712898390808464    0.33428041071284403    0.39813284614555006    0.44786964073131375    
  0.466844877898498    0.4478686801711131    0.3981309987551187    0.33427851697855476    0.2712875906555424    
  0.21511088347326754    0.16749277491623446    0.13093236706453476    0.11930593940151639    0.10074674227757097    
  0.08975963633337684    0.08433787864347059    0.08220258871291962    0.08168356338001927    0.0817842601460193    
  0.08187905600071108    0.08178450660817145    0.08168395510723503    0.08220336124582855    0.08433850748316923    
  0.08976066695406709    0.1007476545234127    0.11930744570410028    0.1470186630395861    0.18386660787577652    
  0.22746053641899172    0.2746031606438703    0.319406182057499    0.3521069690596885    0.3640804999902482    
  0.35210591526268076    0.31940472855986207    0.27460094270068136    0.22745880168851992    0.18386453991808266    
  0.1470173331208243    0.11930593940151639    0.11107636635469305    0.10226632373286089    0.09926267397060576    
  0.10033860325636061    0.1032559569455531    0.106425793314281    0.10880597168484188    0.10965511346950006    
  0.10880637980604016    0.10642667176505044    0.103256762916893    0.10033995022420596    0.09926366533607281    
  0.1022677525701128    0.11107746288730423    0.12671946456165178    0.1490637159765814    0.17574313119462384    
  0.2035436999861042    0.2287523053680379    0.24622038136751756    0.25229600466851526    0.2462197487872633    
  0.22875099034736934    0.203542262138991    0.17574135726423323    0.14906227996842186    0.12671784859324317    
  0.11107636635469305    0.10816619278444824    0.1110763387308218    0.11930586871715598    0.1309322902008122    
  0.14336958996504875    0.15452646838793993    0.16215113463287797    0.16474512327100452    0.16215190595431042    
  0.15452762844532114    0.1433712113517257    0.13093384808634087    0.119307647793798    0.11107765900175658    
  0.10816781506429092    0.11107753162811274    0.11930759166772334    0.13093367186492205    0.14337125741451773    
  0.15452764376054118    0.1621522954953933    0.16474548078041465    0.1621517980668707    0.15452703334183515    
  0.14336996057634724    0.13093267474638914    0.1193060656666908    0.11107645127804941    0.10816619278444824    
  0.11107639801229821    0.1267176796382064    0.14906219215360902    0.175740750384103    0.20354177938422838    
  0.2287499775125519    0.24621892533079315    0.2522950923537703    0.24621995946375447    0.22875196856898966    
  0.20354384433415876    0.17574329954857337    0.14906400636556155    0.12671961784186303    0.11107759923259047    
  0.10226775408207057    0.09926363172203193    0.1003398446532057    0.1032567359983159    0.10642671912134205    
  0.10880644431041527    0.10965536276978957    0.10880625913152267    0.1064261728593459    0.10325614545972842    
  0.10033887380921605    0.09926279119939897    0.10226642289082818    0.11107639801229821    0.11930593563457267    
  0.14701733380625268    0.18386426251922372    0.22745833919558686    0.27459995588432046    0.31940359197567264    
  0.3521043635997398    0.36407924817330417    0.3521057861189289    0.3194059044094338    0.2746028895913119    
  0.22746088029088007    0.1838667974091687    0.14701899541787303    0.11930756095059163    0.10074775806048253    
  0.08976068776076918    0.08433847125692051    0.08220332957273956    0.08168396121257931    0.08178454752295414    
  0.08187915701228744    0.08178435022857156    0.08168377559331964    0.08220272493186287    0.08433804337151954    
  0.08975971940911541    0.10074687706003684    0.11930593563457267    0.1309325217152703    0.16749261522482936    
  0.21511087067169476    0.2712869654472753    0.33427794715372305    0.39812940813690134    0.44786713458624616    
  0.4668429139689344    0.4478685049505399    0.3981319458549602    0.33428034580354765    0.27128996238778263    
  0.21511301639640326    0.1674948094611729    0.1309337011347293    0.10577211111361444    0.09005690373301627    
  0.08132506037878506    0.07700693504096265    0.07512912104855438    0.07447996804709155    0.07433901548198224    
  0.0744799014915741    0.07512888392641642    0.07700668672224532    0.08132446539520823    0.09005639922698969    
  0.10577099704533705    0.1309325217152703    0.14336958286471    0.18259884074064725    0.23334840344444827    
  0.29257307530728427    0.36006755362089704    0.4320163184938764    0.49029245161803003    0.5127147338379747    
  0.4902937593263177    0.43201834288057    0.3600699897596055    0.2925753314839131    0.23335086820302253    
  0.18260030389854287    0.1433711184303447    0.11641329787900626    0.09974171039823507    0.09072712070967524    
  0.08651480671882783    0.08490198835707961    0.08452822903933867    0.08450843567535495    0.08452808888727853    
  0.08490192869662132    0.08651433229924682    0.09072688278764075    0.09974088961693853    0.1164126246942555    
  0.14336958286471    0.15452657913496312    0.188328209182541    0.2326289778081458    0.28455419689769057    
  0.34375919356432244    0.4072681320883674    0.45847057348817866    0.4778274420152461    0.4584713582308936    
  0.40726986472624543    0.34376081458973523    0.2845564251071792    0.23263052657617814    0.18832993811527243    
  0.15452750816839175    0.13186813220430876    0.11889928522572753    0.11332333030808167    0.11230307543598271    
  0.11352356396829269    0.11515564025552111    0.11583329074131994    0.115155619214811    0.11352329380017293    
  0.11230285554381537    0.11332272624696214    0.11889883315020712    0.131867081750646    0.15452657913496312    
  0.16215076476541668    0.18303067518635893    0.21280293662390365    0.24937633293051276    0.2909919971797967    
  0.33426763569336626    0.3681812012888179    0.3807818347307018    0.3681819716795009    0.3342684555817051    
  0.2909932673926032    0.2493774259008898    0.21280438839759033    0.1830315256757757    0.16215203671020056    
  0.15043568821433626    0.14709374174925344    0.15029577580892348    0.15740997108329333    0.16600082115690307    
  0.172999277526402    0.1756067509023131    0.17299917673364926    0.16600061664294943    0.15740938702753196    
  0.15029546423912957    0.14709284251034185    0.15043519313268583    0.16215076476541668    0.16474457063607595    
  0.16887660806951102    0.18093299621101822    0.1991738993305738    0.2210846699484106    0.24368840006437248    
  0.26122489930186293    0.2677254200913262    0.261225046902586    0.2436889438210864    0.22108500131439857    
  0.19917492414748547    0.1809334851635783    0.1688776209855472    0.16474521627772545    0.16887750982165003    
  0.18093348038397045    0.19917490668049967    0.2210850898735467    0.2436893846216668    0.26122558835223986    
  0.2677260899432666    0.2612253996016515    0.24368887261825511    0.2210846053323698    0.19917394510511607    
  0.18093284429850082    0.1688765442802387    0.16474457063607595    0.16215076073443785    0.15043516394035464    
  0.1470929022364177    0.15029544444914095    0.1574093254325569    0.1660005052859024    0.17299876425167734    
  0.1756063549377747    0.17299888480142742    0.16600047986265526    0.1574096592429975    0.15029560154364005    
  0.14709349923607368    0.15043547868545543    0.1621516189465991    0.18303106431071212    0.2128039692617491    
  0.2493770052934398    0.29099323361057017    0.33426847106111    0.36818250085717613    0.3807826463888436    
  0.36818203133996774    0.33426798757219817    0.2909921006923096    0.24937628485439342    0.21280274294187168    
  0.18303049250935166    0.16215076073443785    0.1545263928361659    0.13186700477112673    0.11889891773677598    
  0.11332271074511674    0.11230286487323492    0.11352317458537195    0.11515544450800125    0.11583300356938561    
  0.11515541901452019    0.11352321522642948    0.11230274392655057    0.1133229804222942    0.11889886282075346    
  0.13186755953116328    0.15452679059731922    0.1883291444176339    0.23262947490633176    0.2845555575942394    
  0.3437602274089436    0.40726976559947153    0.4584714290084606    0.4778281036320525    0.4584711176425465    
  0.40726872745523707    0.34375927701984166    0.2845541850094118    0.2326286994105645    0.18832800284898563    
  0.1545263928361659    0.14336936706322445    0.11641240658286126    0.09974085182508913    0.09072687316595386    
  0.08651432084568267    0.08490183877138904    0.08452796029912049    0.08450825344411657    0.08452795665208354    
  0.08490174040630018    0.0865143691074934    0.09072678933070712    0.09974119068398624    0.11641255684580043    
  0.1433702295217309    0.18259910029886525    0.23334952681386134    0.2925738082198285    0.3600691087055609    
  0.43201730962228274    0.49029361364039814    0.5127147322272144    0.49029284007806945    0.43201653959423053    
  0.36006758991658916    0.2925728382178413    0.23334815203623144    0.18259861027020458    0.14336936706322445    
  0.13093226883371548    0.1057707873662753    0.0900562816761402    0.08132439218783044    0.07700663423032232    
  0.07512869714123252    0.07447974838339781    0.0743388074635002    0.07447964191661559    0.0751287867163062    
  0.0770064686834016    0.08132460569792904    0.09005628788683323    0.10577127072142475    0.13093265889074474    
  0.167493459686178    0.2151114100435554    0.27128826042781473    0.33427880779047064    0.39813080743395973    
  0.4478675923819838    0.46684269389088284    0.44786707799015063    0.39812964248920074    0.33427776633467154    
  0.2712869197702545    0.21511054629301338    0.16749246815291796    0.13093226883371548    0.11930571176111694    
  0.10074661578924754    0.08975953024267151    0.08433781342492684    0.08220251758150195    0.08168347036348247    
  0.08178403327501446    0.0818787376865043    0.08178408817236348    0.08168342242201727    0.08220269127259648    
  0.08433778405040782    0.08975990714730016    0.10074677450543311    0.11930646142309423    0.14701754537341888    
  0.18386526253168328    0.22745896762521267    0.2746013196446212    0.3194042292041693    0.35210490064424377    
  0.3640786329944383    0.3521043598183981    0.3194036517069958    0.27460008152888227    0.22745826238745656    
  0.18386412472922542    0.14701708352641818    0.11930571176111694    0.11107609524568908    0.10226616872476245    
  0.09926250059327645    0.10033847244682616    0.10325578270653829    0.10642560096248276    0.1088056496994319    
  0.10965461099517712    0.10880561810637626    0.1064257936755204    0.10325574398542281    0.10033882745944346    
  0.09926255750556859    0.1022666856791168    0.1110763646623427    0.12671831769952593    0.1490624328879731    
  0.17574178102424495    0.20354222255078647    0.22875076966656452    0.24621892363362616    0.25229470184111374    
  0.24621867367050249    0.22875011759441677    0.20354171909438976    0.1757409120096954    0.14906196430812116    
  0.12671759088746312    0.11107609524568908    0.10816593367184199    0.11107605202479515    0.11930565481922478    
  0.1309320040095999    0.1433693078663413    0.1545260052956129    0.16215060044043503    0.1647442006452466    
  0.16215080343272786    0.15452611776162584    0.14336965504280105    0.13093219894009364    0.11930614631248182    
  0.11107620748218253    0.10816661491916268    0.11107636210179786    0.11930656636671946    0.1309325548439888    
  0.14337024253366373    0.1545265962343183    0.16215135567957642    0.16474467793850364    0.1621511678386054    
  0.1545264912935476    0.14336964307283998    0.13093231141866446    0.1193058847018266    0.1110761502881342    
  0.10816593367184199    0.11107602041677093    0.1267173660581219    0.1470168417352781    0.16749210686228394    
  0.18259818791033977    0.18832787347683239    0.1830301141189207    0.16887657083629282    0.15043481904540368    
  0.13186714931307192    0.11641225848649121    0.10577111942850818    0.10074669651260726    0.10226670976135613    
  0.11107638069899844    0.12671831657774327    0.1470175237264137    0.1674933594778463    0.1825989200298774    
  0.18832881382635033    0.18303061248615143    0.1688769765788568    0.15043505543894245    0.13186724746611608    
  0.11641234920777674    0.10577087064445166    0.10074664747252367    0.10226616872064008    0.11107602041677093    
  0.12671737830865415    0.15786930630581344    0.19593306504187696    0.23384285145460446    0.26392173199908764    
  0.28042946317940537    0.277939974025559    0.2565151316388823    0.22381733736674136    0.1886477944641498    
  0.15714202007338243    0.13243535247776939    0.11521995682206851    0.10524429119419167    0.10226671240320158    
  0.10524439028936079    0.11211571057309228    0.11983640890532517    0.1250577925969845    0.125761881499178    
  0.12145085420984653    0.11340407790993773    0.10401560569184382    0.09562682270647616    0.09011225024505148    
  0.08875718705648789    0.09312666437249681    0.10524416212864385    0.12671737830865415    0.14906167859535763    
  0.19593302952295877    0.2501754347945153    0.3013912548150391    0.34520308330407934    0.3796721296775168    
  0.39093783037470115    0.3667745071577601    0.31649605703454065    0.25902469573097275    0.2064367466000146    
  0.1641213216325314    0.13322020667913617    0.11211548317075451    0.09926252914048123    0.09312709488106394    
  0.09159591983221906    0.09221077410372677    0.092739002423584    0.09194438995751596    0.08931544661695005    
  0.08526529899216743    0.08113493988819145    0.0784053863351969    0.07844380638165903    0.082826621788354    
  0.09403489880874191    0.11521951237749962    0.14906167859535763    0.17574047006993937    0.2338428983755178    
  0.2949167235681977    0.34503915752530884    0.3916474523381541    0.44554453269558314    0.48215515947545995    
  0.46534874612471766    0.40124752251630347    0.32239099061797244    0.24995034242169897    0.19194183695976344    
  0.1494711657463435    0.11983615136314693    0.10033896608709798    0.08875709789793386    0.0828263015715466    
  0.08045356822660626    0.0797249872541803    0.07935642029589467    0.07873241696866218    0.07780932956836982    
  0.07718689795808027    0.07778858299270061    0.08098556873497256    0.08892672282648252    0.10472998263511969    
  0.13243524397387837    0.17574047006993937    0.20354113814458627    0.2639217476252262    0.32208118231020055    
  0.3627555620302857    0.4033132897450927    0.4648214760272033    0.5173995303476232    0.5085521864656298    
  0.44016573206207865    0.3515470386051573    0.26995144996101855    0.2053654920059163    0.15810618353206987    
  0.1250575348839881    0.10325573097342738    0.09011243584685631    0.08336512192640365    0.08117211929122156    
  0.08169765235785863    0.08357404741947877    0.0860914827471528    0.08874983681080197    0.09142162075061519    
  0.09457611952278326    0.0996821887459869    0.10935250060166006    0.12703566456944146    0.1571416069418862    
  0.20354113814458627    0.22874945330193025    0.2804294504262083    0.33008536753904827    0.36499429969005975    
  0.3992924515425064    0.4502211802798564    0.4908722068405199    0.47733113466251903    0.4133226383971836    
  0.33211221333159113    0.2574015602389643    0.19860564237263825    0.15568280007756718    0.12576164753332825    
  0.10642605921622152    0.09562665364297619    0.09155922989069404    0.09261209820464876    0.09732296362514721    
  0.10456866628760608    0.1130893042640137    0.12136230740614243    0.12839223068892344    0.13400509862267404    
  0.13951197413285876    0.14780477499750772    0.16270754245908026    0.1886476565265955    0.22874945330193025    
  0.24621793792826407    0.2779398406958461    0.3119277558555316    0.34008691854909084    0.36581416425505636    
  0.3940483015035237    0.40807495793076387    0.38645690721538295    0.3351096587819017    0.27428030637918166    
  0.21865675771538334    0.1748088272361684    0.14299128891477836    0.12145090540504859    0.10880568353057711    
  0.10401577345716306    0.1061217137331433    0.11406022444154812    0.127140690775444    0.14471147892799832    
  0.16446504360815378    0.18271391373219426    0.19615282104363474    0.2032119551381025    0.2056010244784412    
  0.20704681525613583    0.21170035630256182    0.22381711918399305    0.24621793792826407    0.25229376476940657    
  0.25651520138649136    0.267114124259799    0.2797004831221236    0.2913178722530773    0.29930279888255923    
  0.2962384023829455    0.27581244184585946    0.24206934716752332    0.2042905413398598    0.17012145960362648    
  0.14344061493930108    0.1246571384500615    0.11340406390423748    0.1096551873302282    0.1134041150080021    
  0.12465730977002795    0.14344069784219754    0.1701216311700343    0.2042905064835785    0.24206935666315108    
  0.2758123522546047    0.29623833215177847    0.2993026263726255    0.29131765049438624    0.27970050455096435    
  0.2671141714037023    0.2565152271977171    0.25229376476940657    0.24621823846155372    0.22381721407626973    
  0.2117005364407162    0.20704672333686705    0.2056013146148045    0.20321210641492227    0.1961530407605602    
  0.18271404572145025    0.1644653184639874    0.14471163783978258    0.12714081297015872    0.11406027890048878    
  0.1061218149501903    0.10401590533712288    0.10880598752707238    0.12145128332216633    0.1429917309754328    
  0.17480938172239463    0.21865729561880662    0.2742808269854407    0.33511003701108444    0.3864573759788045    
  0.40807506333579496    0.394048324050227    0.3658140120535595    0.34008715909254966    0.31192787363350555    
  0.27794020081375687    0.24621823846155372    0.22874979067128334    0.1886479255219764    0.16270769901068985    
  0.14780491384879418    0.139512015186547    0.1340052586567624    0.12839240287365375    0.12136259292066556    
  0.11308938415189967    0.10456890762833045    0.09732309350766381    0.09261239036502884    0.09155943274948626    
  0.09562701014749365    0.10642651926497275    0.1257623390201159    0.1556836345322658    0.1986066537381859    
  0.2574028460747109    0.3321135784472848    0.4133240259218733    0.47733222227151273    0.49087289299851494    
  0.45022132316389246    0.39929245501395594    0.364994553498732    0.33008569297271756    0.2804298954170439    
  0.22874979067128334    0.20354158586684304    0.15714174731380562    0.12703591087209273    0.1093525654761059    
  0.09968236628277471    0.09457612619996436    0.09142180901704607    0.08874995922442826    0.08609175305668422    
  0.0835742873810887    0.08169792624477315    0.08117241849593576    0.08336554475046787    0.09011294468121657    
  0.10325641525084378    0.12505844502192226    0.15810738086599652    0.2053670127700882    0.2699532751431081    
  0.3515491237976292    0.44016801059407257    0.5085542911276147    0.5174006640893625    0.4648219047014761    
  0.4033131220557039    0.36275568210891507    0.32208170284013693    0.26392239458774164    0.20354158586684304    
  0.1757408455052827    0.13243547319732327    0.10473013857203192    0.08892682329097898    0.08098562925426823    
  0.07778869648921061    0.07718698519621588    0.07780962170552742    0.07873257241232365    0.0793567958851563    
  0.07972526989857849    0.08045409524707609    0.08282681411959762    0.08875776697906383    0.10033978556165771    
  0.11983727535025243    0.14947254750099292    0.19194353470654293    0.24995247668609283    0.32239347569305793    
  0.40125040648968846    0.46535134053418364    0.482157209255366    0.4455457193632882    0.3916479158073377    
  0.3450396830753162    0.2949173680465018    0.23384367267459402    0.1757408455052827    0.14906212468384894    
  0.11521968193622599    0.09403507495116907    0.08282660032886845    0.07844387813984353    0.07840534177265751    
  0.0811351643452293    0.08526548670891422    0.08931588126580121    0.09194485479759393    0.09273964537295742    
  0.09221144120486617    0.09159669140718278    0.0931278660896839    0.09926349323896456    0.11211661692494339    
  0.13322162650407096    0.16412299079928844    0.20643885753958433    0.25902700605290896    0.3164986266007602    