#     DFTpy    
  CRYSTAL 
    
  PRIMVEC    
  1.8107543770491379    -3.1363185810768384    0.0    
  1.8107543770491379    3.1363185810768384    0.0    
  0.0    0.0    6.122310663379309    
  PRIMCOORD    
  2    1    
  Si    1.8107543770491379    1.0454395270256127    1.5305776658448271    
  Si    1.810754377049138    -1.0454395270256127    4.59173299753448    
  BEGIN_BLOCK_DATAGRID_3D    
  3d_datagrid_density    
  BEGIN_DATAGRID_3D#0    
  17    17    27    
  0.0    0.0    0.0    
  1.8107543770491379    -3.1363185810768384    0.0    
  1.8107543770491379    3.1363185810768384    0.0    
  0.0    0.0    6.122310663379309    
  0.022783668406730115    0.02347163973228194    0.025596413284894363    0.029239357290165472    0.03431006390971565    
  0.04037644683258609    0.04652685973952516    0.05123903329021391    0.05300314203609848    0.051239031605836836    
  0.04652685772564512    0.040376450198294694    0.03431006628106301    0.02923935593385171    0.025596414421537483    
  0.023471636223094706    0.022783668406730115    0.02347163625344655    0.023472184659724876    0.02488019499016907    
  0.027791463936733585    0.03224937636024931    0.0380400475275579    0.044485942981117466    0.050292153279016    
  0.05375846076867483    0.053759179801673954    0.05029067755073402    0.04448718514066549    0.038039414755641925    
  0.03224992400539956    0.027790460175342754    0.024881073734324542    0.02347163625344655    0.025596413351538633    
  0.02488019721045666    0.025596802993686402    0.027790386848809752    0.03158825200023613    0.03700783460048191    
  0.04365688864746633    0.050442400863313856    0.0556360123913245    0.057582061314562956    0.055636576902053744    
  0.050442739587061004    0.04365616584214881    0.03700802937337767    0.031588700774812226    0.027790450771948735    
  0.025596413351538633    0.029239358345442484    0.027791455788826826    0.027790381608984952    0.029239984675251608    
  0.03224939068435603    0.037009253501516605    0.043442950476621264    0.05081101383280278    0.057527579702010154    
  0.06160826818118782    0.06160700811139458    0.05752826500510948    0.05081026860125204    0.043444051701863086    
  0.037008034386960674    0.032249926613190406    0.029239358345442484    0.03431006572029417    0.03224938381596887    
  0.03158826132016364    0.03224938431556813    0.03431018640090045    0.03803908946885427    0.04365640731127525    
  0.0508098608783091    0.058300181476459136    0.0641880625233871    0.06645731957109995    0.06418793587445405    
  0.058300044772674836    0.05081024968162936    0.04365617821975856    0.038039409055146634    0.03431006572029417    
  0.040376439944080765    0.03804004949651937    0.0370078324579803    0.037009266267937144    0.03803909291414891    
  0.04037754721004804    0.044485885323796555    0.050443947263626596    0.05752828516506956    0.0641876052542049    
  0.06833636668449315    0.06833693963921242    0.06418794350634341    0.05752825667172609    0.05044275054252952    
  0.04448718724120504    0.040376439944080765    0.046526861439349226    0.04448594135206136    0.04365687745908057    
  0.04344294849121499    0.04365639622285469    0.04448588634545365    0.04652721008002691    0.050290856694681786    
  0.055635319492686304    0.06160738728885059    0.06645815488068785    0.0683363623459586    0.0664573275275247    
  0.061607012484835966    0.05563658922102682    0.0502906767554852    0.046526861439349226    0.05123903522288423    
  0.050292148563727844    0.050442401527293734    0.05081101469501935    0.050809866972198366    0.0504439484038478    
  0.050290863360984595    0.05123996517943417    0.05375937252057794    0.05758292831582838    0.06160739217200074    
  0.06418759477949032    0.06418805539170208    0.06160827413763631    0.05758207401223899    0.053759181762628484    
  0.05123903522288423    0.05300314507177053    0.05375846968235911    0.05563600376158157    0.05752757650067575    
  0.058300188543706055    0.05752829106770774    0.05563531166434183    0.05375937801851811    0.05300124460183147    
  0.05375938192520565    0.05563531626118853    0.05752829087256734    0.058300188860967994    0.05752757203227723    
  0.05563600948417504    0.05375846761353554    0.05300314507177053    0.05123903489875577    0.053759181419455834    
  0.057582057666677754    0.06160827543598057    0.06418805621743212    0.06418760412632199    0.06160740306920414    
  0.057582925307681436    0.05375937195744534    0.05123997122559821    0.050290859780253404    0.05044394268196121    
  0.050809872258443314    0.05081101734440987    0.05044240984243956    0.050292158273934295    0.05123903489875577    
  0.04652685797290428    0.05029067743692976    0.05563657961395602    0.061607012543419715    0.06645731929251013    
  0.06833635692557932    0.06645817020925694    0.06160739807612734    0.05563531870710765    0.05029086199518639    
  0.046527204201106655    0.04448588614712482    0.04365640004159702    0.043442947647782296    0.04365688007904009    
  0.0444859446708073    0.04652685797290428    0.04037645149538843    0.04448718374433165    0.050442750192019964    
  0.057528269282465336    0.06418794955869905    0.06833694234555929    0.0683363516137995    0.06418760616578623    
  0.05752828446040327    0.05044394135232695    0.044485886098394885    0.0403775436881588    0.038039097324925136    
  0.03700925660706957    0.03700783856904622    0.038040050724208976    0.04037645149538843    0.034310065550760174    
  0.038039412943583865    0.043656168653230035    0.05081025356558931    0.05830003523578406    0.0641879363176528    
  0.06645733605245498    0.06418804677125459    0.058300179354656555    0.050809872177188915    0.04365640367370446    
  0.038039094061752744    0.03431018237426471    0.03224938527780781    0.03158825800875814    0.032249376028837894    
  0.034310065550760174    0.029239357188376433    0.0322499317813348    0.03700802625281632    0.043444052834036434    
  0.05081024922724786    0.05752826395630492    0.06160700409393589    0.06160827217979538    0.05752758229805484    
  0.05081101367524214    0.04344295218893196    0.03700925655598909    0.0322493899806684    0.02923998257458074    
  0.027790391914384475    0.02779145885864687    0.029239357188376433    0.025596413958698338    0.027790455552364892    
  0.03158870431951267    0.03700802829455572    0.043656166437739057    0.050442740088905806    0.055636587975836406    
  0.05758206612011254    0.055635999499201214    0.05044240392395566    0.04365687827656845    0.037007832159061796    
  0.03158825870861462    0.02779037940622845    0.025596797654997408    0.024880195696695626    0.025596413958698338    
  0.023471638852603657    0.024881073732584545    0.02779044883111107    0.03224992883968712    0.03803941223315126    
  0.04448718631524504    0.05029068601695825    0.053759180032120234    0.0537584700407559    0.05029216329261048    
  0.04448593655081681    0.038040041300938576    0.03224938202240582    0.027791462757924455    0.02488020220116727    
  0.0234721783101835    0.023471638852603657    0.022783668406730115    0.02347163973228194    0.025596413284894363    
  0.029239357290165472    0.03431006390971565    0.04037644683258609    0.04652685973952516    0.05123903329021391    
  0.05300314203609848    0.051239031605836836    0.04652685772564512    0.040376450198294694    0.03431006628106301    
  0.02923935593385171    0.025596414421537483    0.023471636223094706    0.022783668406730115    0.023479553419688402    
  0.024278490600313545    0.02673208315811367    0.030963317866428502    0.03697105298585326    0.04429827364976094    
  0.0517818439289713    0.057536001217622035    0.059703744059017856    0.057536093640557825    0.05178147456934927    
  0.04429827409687009    0.03697166453348561    0.030962979018563454    0.026731506903138417    0.024278830673808476    
  0.023479553419688402    0.024278827703278102    0.024278658413879592    0.025491287218214847    0.028009424405217077    
  0.0318808411759257    0.03692687735058587    0.042567674044351335    0.04763956619689556    0.05064942055709965    
  0.05064931146453687    0.04763957991802355    0.04256796697646187    0.036926534580657734    0.03188062530711233    
  0.028010175781683473    0.025490959955735436    0.024278827703278102    0.02673150887746373    0.02633139797090843    
  0.026731726721948457    0.028009820243609648    0.03029051925987177    0.03357073062589351    0.037594479062301615    
  0.041722812686230064    0.04487813301884844    0.04605209707484091    0.04487788321039345    0.041722922494157426    
  0.037594338584412794    0.033570977544444755    0.03028992993278333    0.02801016873122077    0.02673150887746373    
  0.03096298234697462    0.03060016511100982    0.030599625651013238    0.030963344234133963    0.03188075405390389    
  0.033570664306629416    0.03604874950828654    0.03902505672899338    0.04183125094164062    0.04355273092726571    
  0.04355303267790647    0.041831536821510404    0.039024520286341305    0.03604907209578287    0.033570982943173934    
  0.03188062962340932    0.03096298234697462    0.0369716610075359    0.037305737656732334    0.03747296657085231    
  0.037305834994072626    0.03697136197785904    0.036926498820205156    0.03759504212398582    0.03902459342042728    
  0.04088614071723724    0.0424977677551896    0.04313573833131787    0.042497169836576316    0.04088673452022214    
  0.03902450584753717    0.037594347145107884    0.03692652722216424    0.0369716610075359    0.04429826953911058    
  0.04630384845505618    0.047623825833722384    0.04762457488161731    0.04630346896525746    0.0442988471370205    
  0.042567404692889534    0.04172288710897324    0.04183113451388431    0.04249802441756507    0.04305734750932064    
  0.04305816259295998    0.04249717833709527    0.04183153363980678    0.04172292916200363    0.042567977032880955    
  0.04429826953911058    0.051781474189103206    0.05655016756276266    0.06048159773725715    0.06201150479608936    
  0.06048122983349017    0.056550241675081506    0.05178175386189422    0.04763928485190782    0.04487871881733813    
  0.04355290558895429    0.04313550579391759    0.043057342338893384    0.04313574246102365    0.043553039426752226    
  0.044877894425106236    0.04763957435722832    0.051781474189103206    0.05753609557098401    0.06591532679931585    
  0.07392250733482152    0.07895412054889184    0.07895482948957774    0.073922548836921    0.06591527149038302    
  0.05753631291570527    0.05064952836928317    0.04605128952994143    0.04355290220506664    0.04249802028941095    
  0.042497766458318244    0.04355272918336539    0.04605209765231597    0.05064930688526636    0.05753609557098401    
  0.05970375268112204    0.07163329299787462    0.08445667233180336    0.09472539684455519    0.09871927773661998    
  0.0947249446834055    0.08445695891474132    0.07163292456788024    0.059703805883895504    0.050649532922272374    
  0.0448787194106729    0.04183113629973219    0.04088614831029098    0.04183125622399661    0.04487812994185614    
  0.05064942235286645    0.05970375268112204    0.05753601302475398    0.07163365486265921    0.08850413441700143    
  0.10445632969272019    0.11441227275219935    0.1144126566759299    0.10445519204706581    0.08850560071370615    
  0.07163292034271238    0.05753631958722727    0.04763928370901595    0.04172288329972695    0.039024597274312144    
  0.03902505691200702    0.041722825776826636    0.0476395695359143    0.05753601302475398    0.05178184143353331    
  0.06591444624245989    0.08445775258030132    0.10445531264807056    0.12047652108388084    0.126697140922929    
  0.12047767752755754    0.10445519423386898    0.08445695953972647    0.06591527800955292    0.051781743961017604    
  0.04256740530642203    0.037595039472721206    0.0360487507722799    0.037594476101852355    0.04256767093755657    
  0.05178184143353331    0.044298279575216384    0.056550760222053624    0.07392237197260992    0.09472493049888421    
  0.1144127765991247    0.12669839808143524    0.12669715353451902    0.11441265191535335    0.09472494232276622    
  0.07392254095795121    0.05655024259521486    0.04429883814673389    0.03692650277744367    0.033570665512107446    
  0.033570735163186344    0.03692688013903551    0.044298279575216384    0.03697105205685503    0.046303524042406445    
  0.060481557003508844    0.07895468221023176    0.09871921838165836    0.11441276799019735    0.12047654550162053    
  0.11441225934971606    0.09871927556109801    0.07895482731052345    0.06048122887570494    0.04630347204721254    
  0.036971366200018084    0.03188075182651271    0.030290520135100633    0.03188083772227781    0.03697105205685503    
  0.030963316122861025    0.03730641794451765    0.047624008555334295    0.06201142250892133    0.07895466710700305    
  0.0947249205868072    0.10445530846082422    0.1044563077119219    0.094725399890053    0.07895411689992206    
  0.06201151265729323    0.04762456562774382    0.037305844372211946    0.03096333821562237    0.028009824760991148    
  0.02800942145405515    0.030963316122861025    0.02673208532583148    0.03059936238181128    0.03747305207309966    
  0.047624011226224575    0.06048155212079128    0.07392236795512101    0.08445776492161551    0.0885041388055427    
  0.08445667415551832    0.07392250818516943    0.06048159984614369    0.04762382580782199    0.03747296320374708    
  0.0305996254008408    0.026731723426007103    0.025491289328140973    0.02673208532583148    0.02427848794870377    
  0.026331614124766242    0.030599356147245658    0.03730641607018612    0.04630352266847536    0.056550768449446474    
  0.06591445211148902    0.07163365024388346    0.07163328510574217    0.06591534121095376    0.056550171717473736    
  0.04630383572682683    0.037305740182420326    0.03060017243032268    0.02633140907966401    0.024278653342326536    
  0.02427848794870377    0.023479553419688402    0.024278490600313545    0.02673208315811367    0.030963317866428502    
  0.03697105298585326    0.04429827364976094    0.0517818439289713    0.057536001217622035    0.059703744059017856    
  0.057536093640557825    0.05178147456934927    0.04429827409687009    0.03697166453348561    0.030962979018563454    
  0.026731506903138417    0.024278830673808476    0.023479553419688402    0.02549499800369322    0.026610376684130247    
  0.030068643704010422    0.03617661491457091    0.04515826692094392    0.05650043666392088    0.06832183652623834    
  0.0775380233259401    0.08106051531456802    0.07753875358719062    0.06832219277478063    0.05650008280280389    
  0.04515764061032026    0.03617679447593043    0.03006844710602762    0.026610482865302366    0.02549499800369322    
  0.02661048214998103    0.0266101934767263    0.028020855705231607    0.030945848830154474    0.035545272736432196    
  0.0417293994998889    0.04878950305127129    0.05521577177744591    0.05910362949357896    0.05910274225975345    
  0.055216101258438496    0.0487888145872706    0.04173023284255996    0.035544950855148874    0.030946326127006783    
  0.028020554474747168    0.02661048214998103    0.03006844962454996    0.02980549202684612    0.030068572483508107    
  0.030946387246685546    0.03264604049418102    0.0352910748478446    0.038701285553395616    0.042309298489779885    
  0.045138274262721115    0.04621308664213562    0.04513844331660115    0.042309099050111355    0.0387014340063639    
  0.03529074967073723    0.032645947938673696    0.030946320290910094    0.03006844962454996    0.03617679805924545    
  0.03669316117614607    0.03669346206766996    0.036176283149510206    0.035545257936538247    0.03529038255850868    
  0.03566187042731182    0.03660144363504959    0.03774645327706962    0.03851523279463563    0.03851508331738462    
  0.03774661831564188    0.03660147686987262    0.03566173136730222    0.03529075736082346    0.035544954437073    
  0.03617679805924545    0.04515763868496308    0.04796426062880674    0.049057790290852284    0.047964414504267514    
  0.04515792339072921    0.04173026080787229    0.038701551668516375    0.03660141670736566    0.03547712460560781    
  0.035022041391315165    0.03490477000158036    0.03502203529901519    0.035476896045380714    0.036601462477961255    
  0.038701439637797826    0.041730226745311266    0.04515763868496308    0.056500078806248286    0.06374048193184828    
  0.06821398229518272    0.06821380575053791    0.06374021544489503    0.056499750005959734    0.04878917141595443    
  0.042309112336767915    0.03774635477271304    0.035022145212381284    0.033771890641302815    0.03377201612520331    
  0.03502203752902382    0.037746609516032516    0.04230910087273283    0.04878882198718134    0.056500078806248286    
  0.06832219278675165    0.08235564759352483    0.09355225580597486    0.09789517188732667    0.09355250419771835    
  0.08235634004942975    0.06832210038331181    0.05521582595759412    0.045138992554802936    0.038515191327017584    
  0.03490476854615734    0.03377188725617379    0.03490477171972849    0.03851508787951134    0.04513845157097461    
  0.055216095882566055    0.06832219278675165    0.07753875407003889    0.09976369299029987    0.12094345518949148    
  0.13426257660331647    0.13426450380201416    0.12094224986542851    0.09976470997332443    0.07753822867585318    
  0.05910301721358985    0.04621261321381343    0.0385151866336838    0.03502213558763102    0.03502203845987353    
  0.03851522890871001    0.04621309467248788    0.059102736597706575    0.07753875407003889    0.08106050992343164    
  0.11057911713657913    0.14288545063275285    0.16888785329418662    0.1790013069885524    0.16888564460872016    
  0.14288619689806356    0.11057839542287128    0.08106204793852252    0.059103016198394726    0.04513899570174275    
  0.03774635614829589    0.03547713073933558    0.03774645600595781    0.04513826869222039    0.05910363008745904    
  0.08106050992343164    0.07753802410722616    0.11057983027342216    0.15142266327879084    0.19038017261727067    
  0.2144960910348266    0.21449795861968585    0.1903804782767473    0.15142346847496205    0.11057840213317749    
  0.07753823042807452    0.05521583317593649    0.04230911638253992    0.03660142261094689    0.03660144886847589    
  0.042309304165930324    0.05521577857088534    0.07753802410722616    0.0683218323760462    0.0997644442353435    
  0.14288608839336475    0.19038107273313498    0.2280442361999072    0.2424010504712277    0.22804365878674815    
  0.19038048281744796    0.14288619239690298    0.09976471379228569    0.06832208483337955    0.04878917504888365    
  0.038701544544847956    0.03566186833735793    0.03870128088322184    0.048789496206741105    0.0683218323760462    
  0.056500437079098215    0.08235587968819268    0.12094320509132113    0.1688854346588014    0.21449748125419843    
  0.2424023800346271    0.24240107555927673    0.21449795033588234    0.1688856414666419    0.12094224644859364    
  0.08235635252491892    0.05649973733596977    0.04173026365604469    0.035290385101067835    0.03529108192947346    
  0.04172939705729277    0.056500437079098215    0.045158270288223404    0.06373965410769013    0.09355280722840935    
  0.13426425098217096    0.17900222046224262    0.21449746233372266    0.22804429104893081    0.21449607591982628    
  0.17900132679506334    0.13426451666366532    0.09355249804556683    0.06374021625540932    0.04515793067442834    
  0.03554525508881322    0.03264604124015185    0.03554527145891797    0.045158270288223404    0.03617661503370094    
  0.04796421175546303    0.06821443140456661    0.09789457913038718    0.13426423343681398    0.16888544025704166    
  0.19038106012176603    0.19038016525332588    0.16888785349729635    0.13426256753367408    0.09789518536338151    
  0.06821379510611772    0.047964424871294854    0.03617628555020601    0.030946384803731727    0.030945843089702815    
  0.03617661503370094    0.030068638369393587    0.0366933822673564    0.04905758389955901    0.06821443445382389    
  0.09355279878795253    0.12094320280941326    0.1428860939470969    0.15142267505316678    0.1428854588605031    
  0.12094346451511068    0.09355225695708326    0.06821398309289152    0.04905778671093353    0.03669345743330094    
  0.03006857688703018    0.028020856208264104    0.030068638369393587    0.026610372662579526    0.02980533721946051    
  0.03669338098269514    0.047964208283470165    0.06373964355611064    0.08235588384631269    0.09976444909952586    
  0.11057982955029469    0.11057909819229927    0.0997637061558505    0.08235563811418356    0.06374046395749496    
  0.04796426086850203    0.03669317004730123    0.02980550179822187    0.0266101886725944    0.026610372662579526    
  0.02549499800369322    0.026610376684130247    0.030068643704010422    0.03617661491457091    0.04515826692094392    
  0.05650043666392088    0.06832183652623834    0.0775380233259401    0.08106051531456802    0.07753875358719062    
  0.06832219277478063    0.05650008280280389    0.04515764061032026    0.03617679447593043    0.03006844710602762    
  0.026610482865302366    0.02549499800369322    0.02856560842193598    0.030160422409556097    0.0352597815439074    
  0.04461138496788353    0.05884164974967208    0.07740761126605936    0.09726196822550312    0.11301175128484188    
  0.1190968367652201    0.11301258016414671    0.0972619560479437    0.07740771160966599    0.05884098028674229    
  0.044611187811648724    0.03526033871345118    0.030159651169659275    0.02856560842193598    0.030159652557280706    
  0.030160470360541477    0.03205602532429988    0.03608472926556771    0.04260622579266553    0.05161919988660512    
  0.06211327234771808    0.0718415642208703    0.07785417565190776    0.07785502135617212    0.07184038477341659    
  0.062113995031492404    0.05161843878773156    0.04260772468490463    0.03608295585916854    0.03205773214507144    
  0.030159652557280706    0.0352603367092421    0.035017571256138906    0.03526048122255386    0.0360835671205958    
  0.03783841384922613    0.040830277389666186    0.044897766926607935    0.049311178383381046    0.052855543056781    
  0.054229560984441524    0.05285582588635835    0.049310973447063366    0.04489770375954352    0.040829762188140495    
  0.0378391072441024    0.03608295294848378    0.0352603367092421    0.04461118962317231    0.04593255843385649    
  0.04593250121235627    0.044611419579429226    0.042606819818140455    0.04083069382092818    0.039860601915099804    
  0.03977465048851493    0.04023261485406932    0.04065621467055969    0.04065547371262601    0.04023273574185778    
  0.039774903197828455    0.03986090075264705    0.04082977332458777    0.04260772692259567    0.04461118962317231    
  0.0588409736747192    0.06459307010747803    0.0668101808629912    0.06459315566161247    0.05884070230558083    
  0.051619723080636795    0.04489655815613997    0.03977514055966628    0.03647249021998881    0.03470628825069741    
  0.034152218343644285    0.034706824323402115    0.036471796213796655    0.039774892761248716    0.04489770875557565    
  0.051618430608608636    0.0588409736747192    0.0774077150485938    0.09181649352352841    0.1007578413105432    
  0.10075485936740482    0.09181886008854905    0.07740588942253468    0.06211476869877418    0.04931107391899821    
  0.04023325262514731    0.034705728966288554    0.03215869183698442    0.03215775242016834    0.03470681987842755    
  0.04023274665886472    0.04931097597593296    0.06211400067024977    0.0774077150485938    0.09726194788129443    
  0.12509041839171514    0.1474346287175404    0.15609225469377996    0.14743533062227707    0.1250904320415382    
  0.09726207368412149    0.07184099726109713    0.052855312828305155    0.0406556094000066    0.03415287426050715    
  0.03215868754733487    0.03415221619463082    0.040655472205732505    0.05285583613438001    0.0718403737257323    
  0.09726194788129443    0.11301258338676749    0.15676579240923713    0.1987414611383631    0.22474298498382256    
  0.2247443162031283    0.19874144001427635    0.1567668432381739    0.11301218046751176    0.07785408926257313    
  0.05423070021991868    0.04065560941960027    0.0347057117800652    0.034706291633070895    0.040656209372489004    
  0.05422957162920991    0.0778550101375929    0.11301258338676749    0.11909683205168979    0.17647629957167138    
  0.2393193617986963    0.28782024838082193    0.30577758238295305    0.2878174755299919    0.23932094205909876    
  0.17647527968066104    0.11909904516644348    0.0778540975482417    0.0528553326476969    0.04023325582489056    
  0.0364724904092297    0.04023262168626461    0.05285553666592696    0.07785418102291886    0.11909683205168979    
  0.11301176177343296    0.1764755562618797    0.25475941728479046    0.32434414885161056    0.362534781167389    
  0.36253579889548854    0.3243447131202447    0.25475829635183256    0.17647528834359394    0.11301217023874764    
  0.07184101240749882    0.04931107833987708    0.039775149102277245    0.039774650856346634    0.049311186846857966    
  0.07184156953691427    0.11301176177343296    0.09726196443800615    0.15676873717137566    0.23932022199400124    
  0.3243456648634055    0.3815170145138883    0.3997632476249216    0.3815159534450457    0.3243446898249612    
  0.23932093284906644    0.15676683364354563    0.09726205769610542    0.06211476571267021    0.04489654986400769    
  0.03986060531042381    0.04489776184997811    0.062113265045729775    0.09726196443800615    0.07740761202144729    
  0.12508876157104043    0.1987406305151718    0.2878207591396703    0.362534692846802    0.3997655382543938    
  0.3997632434163242    0.36253577182170876    0.28781747104693145    0.19874145139748325    0.12509044823147966    
  0.07740588274612961    0.05161972658915983    0.040830691507742795    0.0408302866551191    0.051619198912982604    
  0.07740761202144729    0.058841654523732856    0.09181804794786994    0.14743638840337833    0.2247446481715987    
  0.3057784998333765    0.3625346622857071    0.3815170495802504    0.3625347777584276    0.3057775892695407    
  0.224744332610114    0.1474353175609644    0.09181886545330606    0.05884070238366331    0.04260681547959996    
  0.037838417038071774    0.042606220372720945    0.058841654523732856    0.044611386791002294    0.06459194751000051    
  0.1007565278531053    0.15609250087307514    0.22474464900560034    0.28782076331931444    0.32434565736722304    
  0.324344118929684    0.28782026009277767    0.22474297053530773    0.15609226034620266    0.10075484094092281    
  0.06459317182535942    0.04461141400047616    0.036083568265347    0.03608472536163035    0.044611386791002294    
  0.035259781973652884    0.04593314346255486    0.06681058262762288    0.10075653031361016    0.14743636897330964    
  0.19874063845700313    0.2393202425629303    0.2547594170821302    0.23931937426830635    0.1987414586512024    
  0.14743462613181957    0.10075784519067599    0.06681018299208769    0.04593249650179477    0.0352604840879282    
  0.03205602463822054    0.035259781973652884    0.030160422554128152    0.03501735120960591    0.0459331325307292    
  0.06459194694595952    0.09181804636269103    0.12508876041524966    0.15676873810457306    0.17647555470573106    
  0.17647627570861663    0.15676581907943354    0.12509041007337288    0.09181648054686684    0.06459306556631805    
  0.045932569623014605    0.03501757396982424    0.030160466006243117    0.030160422554128152    0.02856560842193598    
  0.030160422409556097    0.0352597815439074    0.04461138496788353    0.05884164974967208    0.07740761126605936    
  0.09726196822550312    0.11301175128484188    0.1190968367652201    0.11301258016414671    0.0972619560479437    
  0.07740771160966599    0.05884098028674229    0.044611187811648724    0.03526033871345118    0.030159651169659275    
  0.02856560842193598    0.03207639288794071    0.03427268871882846    0.0414519482607396    0.05503056300215313    
  0.07631132205518786    0.10488176904165479    0.13614363111411287    0.16119670198482966    0.1708946179093782    
  0.16119796779617757    0.13613605403731993    0.10488224037349818    0.07631453678393148    0.05502900856538035    
  0.0414526066998447    0.03427221712855076    0.03207639288794071    0.03427221579817418    0.0342716387039025    
  0.036844184743214506    0.0424521806913897    0.05175720786877952    0.06487889654665856    0.08044854703212341    
  0.09511826665904201    0.10425885427063135    0.10426042939671636    0.09511593717561201    0.0804542646033086    
  0.06487765334565661    0.051755616157285404    0.04245265865527372    0.03684376621475367    0.03427221579817418    
  0.041452603391835416    0.041174219950817686    0.041452599208316565    0.04245245397334889    0.044701601322987915    
  0.048682502065534226    0.05422126056298377    0.060315717062474544    0.06524370309581935    0.06715115245611171    
  0.06524290956571861    0.06031780364906339    0.0542162882600085    0.048683687345723155    0.044702617841676937    
  0.04245265067606919    0.041452603391835416    0.0550290130333238    0.05714670591094889    0.057146864593900226    
  0.055029530043887116    0.051757257452295834    0.048684046652070434    0.046713079180522504    0.046068105528585514    
  0.04630966477975797    0.04667361331749727    0.04667429581109848    0.04630877344069744    0.046067744278402316    
  0.046716252129927055    0.04868369753926321    0.05175562222332156    0.0550290130333238    0.0763145384895852    
  0.08545895318244899    0.08900690280187606    0.08545876925679671    0.07631131939147366    0.06487798031717978    
  0.05421997633257054    0.04606631727556968    0.040792104949624215    0.03796338284272155    0.03707883654580012    