#     DFTpy    
  CRYSTAL 
    
  PRIMVEC    
  1.3695553410168608    -2.372139434418523    0.0    
  1.3695553410168608    2.372139434418523    0.0    
  0.0    0.0    4.630580146413793    
  PRIMCOORD    
  2    1    
  Si    1.3695553410168608    0.7907131448061743    1.157645036603448    
  Si    1.369555341016861    -0.7907131448061743    3.4729351098103436    
  BEGIN_BLOCK_DATAGRID_3D    
  3d_datagrid_density    
  BEGIN_DATAGRID_3D#0    
  13    13    21    
  0.0    0.0    0.0    
  1.3695553410168608    -2.372139434418523    0.0    
  1.3695553410168608    2.372139434418523    0.0    
  0.0    0.0    4.630580146413793    
  0.11792614480168058    0.1246910882194196    0.14462066954903013    0.1753321071201027    0.210554827835743    
  0.23943717485787894    0.25062479932223186    0.23943718643029616    0.21055483995084454    0.1753320978027349    
  0.14462070195955362    0.12469108213605928    0.11792614480168058    0.12469107611411757    0.12469096512061249    
  0.13808495007119287    0.16361278535408633    0.19701592038996693    0.22990486031331556    0.2506599975845838    
  0.25066348293294    0.22990249004004934    0.1970171039745018    0.16361256069976132    0.1380848100617214    
  0.12469107611411757    0.14462068199611722    0.13808494506188454    0.14462146897965047    0.16361062155875175    
  0.1921878788716296    0.22422552168923496    0.2503320667914451    0.26049278946567545    0.2503299743977021    
  0.22422845643407074    0.19218505101239572    0.16361255841230765    0.14462068199611722    0.17533210568867924    
  0.16361277312459052    0.16361061799700202    0.1753340714234963    0.19701606729436794    0.22422799577306177    
  0.24995569808969353    0.2658527467984411    0.26585532119361577    0.24995405138482485    0.22422850669415625    
  0.19701707250874645    0.17533210568867924    0.2105547866362739    0.1970159205010569    0.19218788616174798    
  0.1970160283555864    0.21055444129728398    0.22990302369307633    0.2503300745762132    0.265855225171232    
  0.2715944376264593    0.26585530995992024    0.25032996967776155    0.22990248781099049    0.2105547866362739    
  0.2394371433877915    0.22990486071395994    0.22422552739555013    0.22422797425267313    0.22990300270997466    
  0.23943790415746863    0.2506631722863384    0.2604913424501858    0.2658552152538625    0.2658527027612553    
  0.2604927521712171    0.25066353397376273    0.2394371433877915    0.25062477422181917    0.25066003428544387    
  0.25033210501070957    0.24995567656382447    0.25033008178586946    0.2506632038653346    0.2506219443665915    
  0.25066321250540075    0.25033007910165694    0.24995569704652962    0.25033211869626315    0.2506600446063075    
  0.25062477422181917    0.239437140009017    0.25066347693734403    0.2604927837158067    0.2658527231285319    
  0.2658551993245411    0.26049132417576487    0.2506631311563311    0.23943790325404035    0.22990303065311057    
  0.2242279949248144    0.22422551537695962    0.22990482719498898    0.239437140009017    0.21055477414639942    
  0.22990249501987117    0.250329984306556    0.26585531204340507    0.27159441084258223    0.265855215081955    
  0.25033005268956904    0.2299030091413972    0.21055446691473728    0.19701605848379025    0.1921879034784289    
  0.1970159317990155    0.21055477414639942    0.17533213052335184    0.19701707828462156    0.2242284586587822    
  0.24995405158729864    0.2658553212934897    0.2658527547525981    0.24995567909348063    0.22422798698077268    
  0.197016022886336    0.17533405934875956    0.1636106424498163    0.16361277809605373    0.17533213052335184    
  0.14462066259597642    0.16361255191437782    0.19218505435443986    0.22422849415260807    0.25032997551496117    
  0.26049278824314337    0.25033208903367543    0.22422548475946255    0.19218791071739816    0.16361061752575262    
  0.14462144921619285    0.1380849628758774    0.14462066259597642    0.12469109296121551    0.1380847869800561    
  0.16361255401772176    0.1970171081099639    0.22990247259827593    0.25066349984748193    0.25066000618704326    
  0.22990482698740633    0.197015944441022    0.16361277366786778    0.1380849504197236    0.1246909748899067    
  0.12469109296121551    0.11792614480168058    0.1246910882194196    0.14462066954903013    0.1753321071201027    
  0.210554827835743    0.23943717485787894    0.25062479932223186    0.23943718643029616    0.21055483995084454    
  0.1753320978027349    0.14462070195955362    0.12469108213605928    0.11792614480168058    0.12607015330732171    
  0.13335614620144365    0.15475910732385287    0.18755047823769164    0.22495555413805085    0.2555775873373545    
  0.26743340455874204    0.2555777246793061    0.22495370307658952    0.18754953295720114    0.15475894261954648    
  0.13335561089353828    0.12607015330732171    0.13335560212982472    0.13335694783978627    0.14491216451014624    
  0.166686913498045    0.19463163933598862    0.22172416072064324    0.238856124788871    0.23885303414691736    
  0.22172622225993133    0.19463262558131209    0.1666873157288374    0.14491342623880601    0.13335560212982472    
  0.1547589305308928    0.1506387037158244    0.1547576613869339    0.1666898619765995    0.18428638335588604    
  0.20339178597478177    0.21868046508731315    0.22466094841115258    0.2186818875500692    0.20338949630882816    
  0.18428698605392785    0.16668733053111248    0.1547589305308928    0.18754954290061768    0.18375839923358162    
  0.18376064496329583    0.1875479976656018    0.19463163805801895    0.2033890961018379    0.2115044302632693    
  0.21657944595664255    0.21657919948617047    0.2115045080302591    0.20338952233467092    0.19463262051679403    
  0.18754954290061768    0.22495364083006855    0.2273427104316347    0.22815030773383274    0.227342484356249    
  0.22495493055636925    0.2217271555477852    0.21868091837334738    0.21657963408335976    0.21587353414193092    
  0.2165792149646234    0.21868190051848116    0.22172622177364879    0.22495364083006855    0.25557771385769856    
  0.27000291826757444    0.27775665120230947    0.2777529236659617    0.2700051477159886    0.2555750982062067    
  0.23885448234405354    0.22466070206252348    0.2165796535662542    0.21657948291023132    0.2246609433816172    
  0.23885307407752884    0.25557771385769856    0.26743338245110077    0.29639686919558483    0.3164507373078544    
  0.32310173269186016    0.31645344657815433    0.29639390714475927    0.26743552736407084    0.2388545070566294    
  0.2186809027558351    0.2115044141806942    0.21868055873848583    0.23885614178823886    0.26743338245110077    
  0.2555775682108196    0.2963916572364736    0.3307334989870589    0.3485097600721367    0.34850755413468504    
  0.3307338823916072    0.2963938928110059    0.25557511311246733    0.2217271639213603    0.20338909506331093    
  0.2033917824178956    0.22172413718533407    0.2555775682108196    0.22495552820714076    0.2700049964502651    
  0.3164551147442168    0.3485076739391502    0.359161224190673    0.3485075784593585    0.31645340166060165    
  0.270005121316316    0.22495495616211642    0.19463163900952465    0.18428638952876739    0.19463165827782877    
  0.22495552820714076    0.18755044905085924    0.22733961826623592    0.2777539537494262    0.3230999933356706    
  0.3485077259092597    0.3485098164065342    0.3231017139472606    0.2777529454368184    0.2273425150686015    
  0.18754798466924755    0.16668987964894955    0.16668687617317396    0.18755044905085924    0.154759074678523    
  0.18375892133698118    0.22815398899178588    0.27775396403756836    0.3164551278145293    0.33073348639134154    
  0.3164506837117214    0.27775664312471005    0.22815032923916856    0.18376064600390524    0.15475765896688903    
  0.14491217713102716    0.154759074678523    0.13335614901956286    0.15063825361154012    0.18375892038217248    
  0.22733960069634526    0.2700049714875022    0.2963916364065538    0.29639681576900545    0.2700029071411489    
  0.22734273603872296    0.18375838026513625    0.15063872031365397    0.133356951040097    0.13335614901956286    
  0.12607015330732171    0.13335614620144365    0.15475910732385287    0.18755047823769164    0.22495555413805085    
  0.2555775873373545    0.26743340455874204    0.2555777246793061    0.22495370307658952    0.18754953295720114    
  0.15475894261954648    0.13335561089353828    0.12607015330732171    0.14951772083810488    0.15824656153917965    
  0.1837256436780974    0.22219572156091252    0.2647874709391416    0.29821267154938885    0.310725428496816    
  0.29821161911070204    0.26479238508459324    0.22219486589673093    0.18372505324626356    0.158246083053644    
  0.14951772083810488    0.15824605819565551    0.158246213499637    0.16944145093245502    0.19021616860450088    
  0.21628618218927065    0.2408806868488772    0.25608382473119273    0.2560850774656714    0.24087997277630266    
  0.216283104106112    0.19021638083338527    0.16944230248398315    0.15824605819565551    0.18372505715231244    
  0.18149535186842514    0.1837254205475857    0.19021649185328143    0.1997729895736354    0.20987807361991434    
  0.21767098644109034    0.22066358383650103    0.21767059016436277    0.20987814822292758    0.19977581423285684    
  0.19021639607048257    0.18372505715231244    0.22219488579782046    0.22584328712441956    0.22584189677905675    
  0.2221959867617853    0.2162859217216258    0.2098781402439734    0.20446832534672402    0.2014840227703109    
  0.20148429738707738    0.20446879634988577    0.2098781597016579    0.2162831204484254    0.22219488579782046    
  0.2647923501693632    0.2822030719933105    0.2883558615092703    0.2822036054503112    0.26478749089033043    
  0.24088083550289774    0.21767063266992562    0.20148503892342703    0.19583803955225498    0.20148432109181003    
  0.2176705798189796    0.24087993190434784    0.2647923501693632    0.29821157663630343    0.33253892186208883    
  0.34934973377750983    0.34934886588598707    0.3325441909254392    0.2982109620069118    0.25608588755197326    
  0.220661661471281    0.20148505165072295    0.20148400179820436    0.2206635778838088    0.2560851287371565    
  0.29821157663630343    0.31072540757025047    0.35984653771750735    0.3843273476491338    0.3891337537303011    
  0.3843216380089754    0.3598480356915249    0.31072317908790575    0.25608594722285    0.21767063019454094    
  0.20446833161805292    0.21767103788740227    0.25608379967025124    0.31072540757025047    0.2982126406856058    
  0.35984497428506124    0.39301226521398347    0.3957745790475838    0.39578298495891334    0.3930082622185804    
  0.35984795940634484    0.29821096200450364    0.24088082957730436    0.20987809424810425    0.2098781134431034    
  0.24088070753378382    0.2982126406856058    0.2647874490941757    0.33254403437037056    0.3843222776162521    
  0.3957824800103658    0.39157103581866665    0.3957829849094355    0.38432160878283067    0.3325442109219577    
  0.26478751982053733    0.21628591823472842    0.19977296320532234    0.21628614299191332    0.2647874490941757    
  0.2221956826801768    0.2822029062682711    0.34935048823015896    0.3891305888006897    0.3957825339287219    
  0.39577460995256164    0.3891337036576453    0.34934886980711727    0.28220361592862275    0.2221959588975693    
  0.1902165096408526    0.19021613446129437    0.2221956826801768    0.18372564676190783    0.22584314938371094    
  0.28835482032347975    0.3493505587334164    0.3843223177846069    0.39301227288079926    0.3843273573797082    
  0.34934972916628226    0.2883558846867072    0.22584191769525017    0.1837254354447426    0.16944147188445027    
  0.18372564676190783    0.1582465699507299    0.18149416056005993    0.22584317418136304    0.2822028876506795    
  0.3325440336151876    0.359844930105065    0.35984648329669855    0.3325388903620249    0.2822030785175653    
  0.22584330333777541    0.18149536939831493    0.15824624543213375    0.1582465699507299    0.14951772083810488    
  0.15824656153917965    0.1837256436780974    0.22219572156091252    0.2647874709391416    0.29821267154938885    
  0.310725428496816    0.29821161911070204    0.26479238508459324    0.22219486589673093    0.18372505324626356    
  0.158246083053644    0.14951772083810488    0.18283899446338012    0.1934606586026679    0.22439419487167878    
  0.2699242938536994    0.3164785587746781    0.3481785267500101    0.35847777880877135    0.34817130722595024    
  0.31650931836117374    0.26992137268064686    0.22438508822074302    0.19346215975585918    0.18283899446338012    
  0.1934621540888736    0.19346382769201179    0.2052923218157439    0.22677420629061285    0.252881145055339    
  0.27606311347660784    0.2893315171771511    0.28934719341475695    0.27606602272716585    0.2528540933080463    
  0.22677604864762393    0.20530162886709374    0.1934621540888736    0.2243850701293965    0.22343179012870568    
  0.2243948996882748    0.22677838911255618    0.22994236457661696    0.2331866392874423    0.23535604139895722    
  0.2360496190080569    0.23534444946413033    0.23318392141376654    0.22996853085590963    0.22677605098976075    
  0.2243850701293965    0.26992137451173104    0.2793435548362991    0.2793295878366308    0.2699190903858613    
  0.2528813150744014    0.23318194957460447    0.21658732517761345    0.2073381033240512    0.20733631006861436    
  0.21659843813514038    0.2331839315805435    0.25285411840025734    0.26992137451173104    0.31650925557596543    
  0.3427432765535061    0.3508618129050712    0.34275061717234073    0.31647782826270154    0.27606879792495503    
  0.23535549157671623    0.2073346935379707    0.19771714255583245    0.2073362997747554    0.23534447285015914    
  0.27606600187826075    0.31650925557596543    0.34817126205313453    0.38340674558278015    0.3901724679125545    
  0.39018535633563695    0.38343271123882633    0.3481743260174425    0.2893300089107548    0.2360554578745304    
  0.20733471337843518    0.2073380873541781    0.23604961690630155    0.28934723552325964    0.34817126205313453    
  0.3584777681084846    0.39358204215583564    0.375219882356772    0.3565012925678337    0.37517500178733443    
  0.39358767392285027    0.3584912577782922    0.2893300471207929    0.23535550014809284    0.21658733384262507    
  0.23535608740365635    0.28933149826925897    0.3584777681084846    0.3481784659326826    0.39359772231238166    
  0.35751838532791763    0.297276949955942    0.29731390645160316    0.3575183214000353    0.39358761386643687    
  0.34817433332300235    0.27606881802375494    0.23318191402729643    0.23318666628750567    0.276063114019371    
  0.3481784659326826    0.316478559642211    0.3834329095167945    0.37517229587890066    0.2973138934497529    
  0.255600343816354    0.297313938330966    0.37517494777768307    0.3834327673981432    0.3164778604775793    
  0.2528812929174344    0.22994236754767602    0.25288110505723266    0.316478559642211    0.26992424882389165    
  0.34274549756367173    0.3901782494822284    0.3565036107189421    0.29731393393456496    0.2972769631113244    
  0.3565012401914763    0.39018534242010106    0.34275062005765716    0.26991905857786913    0.22677842128696818    
  0.22677419688993947    0.26992424882389165    0.224394191413985    0.27932854342966046    0.35087319438002756    
  0.3901783120840229    0.3751723239401038    0.3575183880766369    0.3752198732415792    0.39017243963283604    
  0.35086181465831    0.27932958583269835    0.22439489703972923    0.2052923346038842    0.224394191413985    
  0.19346067124036834    0.22343740847303015    0.27932859156056833    0.3427454731113066    0.38343285057485293    
  0.3935976752577232    0.3935819518993264    0.383406669358572    0.34274327859573883    0.279343570115034    
  0.22343180340959642    0.19346384472372885    0.19346067124036834    0.18283899446338012    0.1934606586026679    
  0.22439419487167878    0.2699242938536994    0.3164785587746781    0.3481785267500101    0.35847777880877135    
  0.34817130722595024    0.31650931836117374    0.26992137268064686    0.22438508822074302    0.19346215975585918    
  0.18283899446338012    0.21377864248058434    0.22598156697281657    0.2614713272175632    0.3117510357206867    
  0.357168213556112    0.3807199838650565    0.3858276484415779    0.3806992119180116    0.3572205855038161    
  0.3117525112271569    0.26143856811925315    0.22598755381322186    0.21377864248058434    0.22598752258307936    
  0.22599195548786444    0.2385896191397902    0.26108130600369034    0.2873545896210426    0.3089743142072862    
  0.3200607893373319    0.320098956903023    0.30898631087671247    0.28730253525866    0.2610853371084344    
  0.2386185280046471    0.22598752258307936    0.26143856007860483    0.26128754381272407    0.26146959130340813    
  0.2610912225494617    0.2597719248042622    0.25824638855450516    0.2565672384839301    0.2556480423216331    
  0.2565358292584445    0.2582408720085475    0.2598200722652864    0.2610853305195598    0.26143856007860483    
  0.31175251946825927    0.32453014353974746    0.3244928861614027    0.3117399903472317    0.2873548081125906    
  0.25823694330347263    0.23357567619596917    0.21982445180881696    0.21982031640876606    0.23360452910860252    
  0.2582408826586838    0.28730254230195845    0.31175251946825927    0.35722055628217186    0.38299292681045816    
  0.3889427751552498    0.3830140443507736    0.35716812019392147    0.30898464616249255    0.25656875855739747    
  0.2198141637347075    0.20718357099188447    0.21982031204861235    0.2565358523764347    0.3089862941832835    
  0.35722055628217186    0.3806991588862676    0.3945269874829232    0.37546185747188543    0.37549003205782566    
  0.3945612469748362    0.38071647525674357    0.32005001121989446    0.25566566808139446    0.21981418587125753    
  0.21982446744863307    0.2556480801388459    0.32009904882475265    0.3806991588862676    0.385827608601455    
  0.3743170713149645    0.2932566149881104    0.250589586716123    0.2931962557559596    0.37430946017742445    
  0.3858747026256137    0.3200500756049419    0.2565687598000158    0.23357565344398543    0.25656733251505665    
  0.32006082476878245    0.385827608601455    0.380719998261836    0.3743460281351244    0.2503698631674153    
  0.15101406905649514    0.15103754403822525    0.2503945103003428    0.3743094431532203    0.380716456523679    
  0.308984659410056    0.2582369454270205    0.2582463930631936    0.3089743055506895    0.380719998261836    
  0.3571682484039192    0.39456134286462263    0.29319561168783836    0.15103767778578026    0.10146723333227457    
  0.1510375501247874    0.29319622828007263    0.39456125780823686    0.35716816717552974    0.28735480597933244    
  0.2597718993552401    0.28735461413691665    0.3571682484039192    0.31175099933952966    0.38300964390167047    
  0.37545487850513903    0.2506140240515799    0.15103768347882607    0.15101408856330567    0.25058956745994654    
  0.37549005107912253    0.38301403692980696    0.31174000207719116    0.26109123473880064    0.261081288880957    
  0.31175099933952966    0.26147131011303243    0.3244821590336236    0.388988886567213    0.3754549190885405    
  0.2931956330951543    0.25036981602610836    0.2932566009882107    0.37546180822769704    0.38894281140567244    
  0.32449286520079584    0.26146958661440484    0.23858965721489575    0.26147131011303243    0.22598156156560523    
  0.2613047138985237    0.32448218147280855    0.38300968082322745    0.39456129523890926    0.37434597380661794    
  0.3743170169930052    0.3945269691640814    0.38299294813507867    0.32453012953998917    0.2612875457823943    
  0.22599196519740453    0.22598156156560523    0.21377864248058434    0.22598156697281657    0.2614713272175632    
  0.3117510357206867    0.357168213556112    0.3807199838650565    0.3858276484415779    0.3806992119180116    
  0.3572205855038161    0.3117525112271569    0.26143856811925315    0.22598755381322186    0.21377864248058434    
  0.22675087436830033    0.23956387748087812    0.2767496059763613    0.3282802810911755    0.3715711904037199    
  0.38977210955803987    0.3919058322480526    0.3897454926363562    0.371615404433417    0.32828971863716533    
  0.2767059897408078    0.2395727741770013    0.22675087436830033    0.23957275988070872    0.2395796864539691    
  0.25244266877026716    0.27524054100620227    0.30133727396342214    0.3220397012382788    0.3320283727862385    
  0.3320729097539783    0.3220559525794647    0.30128779257437543    0.275241828955345    0.25248038510375004    
  0.23957275988070872    0.27670596311950846    0.27690542701805854    0.2767448027923748    0.2752482028011107    
  0.27222063134671004    0.2689046656111435    0.2658083662250716    0.26428533889443223    0.2657703777650237    
  0.26889831214623    0.27226693795555373    0.2752418273262857    0.27670596311950846    0.32828972573844756    
  0.3422326833823026    0.34218787212835505    0.3282728109271965    0.30133721346281206    0.26889779148190635    
  0.24126713714487283    0.22581029713269865    0.22580196077939926    0.24130532488195777    0.26889834709759775    
  0.30128775478156467    0.32828972573844756    0.3716153405330889    0.39520357261465333    0.39943370883168006    
  0.3952302944750532    0.37157176372194917    0.322045766930788    0.2658139470119557    0.22579304183698762    
  0.21198681750344417    0.22580196097484356    0.26577037085115196    0.3220559554970909    0.3716153405330889    
  0.3897454086606744    0.38968583872719936    0.3575951309966177    0.3576224290551878    0.38970387042936816    
  0.3897779757438295    0.3320073973884139    0.26431182033708084    0.225793022111164    0.225810253625468    
  0.26428533218540773    0.33207299528299333    0.3897454086606744    0.39190579719884416    0.354735926270336    
  0.24957885569308216    0.20099497975043273    0.24954218575336246    0.3547063333253845    0.39197499913587125    
  0.33200745437639084    0.265813950787285    0.2412671295199648    0.2658084295862773    0.33202841165653224    
  0.39190579719884416    0.38977207241135003    0.354762686921085    0.20044442716002622    0.09992898716233559    
  0.0999241895361151    0.200489525642099    0.3547062598466666    0.3897779372497425    0.3220457893400284    
  0.26889778688968535    0.2689046458027062    0.3220396798709912    0.38977207241135003    0.37157111876434934    
  0.3897048141205792    0.24954126068559207    0.09992446766671931    0.057143001948354914    0.09992419181974586    
  0.24954214599875596    0.3897038650347137    0.3715717506058034    0.30133723751052877    0.27222064598085416    
  0.3013372958250422    0.37157111876434934    0.32828028618618293    0.39523495195075503    0.3575663888436042    
  0.20104005989026302    0.09992447431561301    0.09992899040310214    0.20099498626091614    0.3576224078236013    
  0.39523027560500307    0.32827278782163066    0.2752482412477229    0.27524053254049846    0.32828028618618293    
  0.2767495783914494    0.34216759755546067    0.3995029557673206    0.35756645437310985    0.24954123668633496    
  0.20044442451014263    0.24957881988842204    0.3575950852527865    0.39943368535657464    0.34218787993398947    
  0.27674477717842993    0.25244268229410194    0.2767495783914494    0.23956389917336593    0.27693089716109415    
  0.3421676129406417    0.3952350006313454    0.3897047758568518    0.3547627050922983    0.3547358616146476    
  0.38968579121705454    0.3952035952134106    0.34223268244537547    0.2769054312605742    0.23957972116226423    
  0.23956389917336593    0.22675087436830033    0.23956387748087812    0.2767496059763613    0.3282802810911755    
  0.3715711904037199    0.38977210955803987    0.3919058322480526    0.3897454926363562    0.371615404433417    
  0.32828971863716533    0.2767059897408078    0.2395727741770013    0.22675087436830033    0.213778631029367    
  0.2259815401695474    0.2614713487285411    0.31175103125818165    0.35716820558806356    0.3807200403517162    
  0.38582764830377303    0.38069920242579286    0.3572205700262315    0.3117525115822112    0.26143856761827367    
  0.22598754327659118    0.213778631029367    0.22598752463321004    0.22599196724643625    0.23858963878384434    
  0.261081323070592    0.28735458497686056    0.30897430754147764    0.3200608010787099    0.32009896986591524    
  0.3089863042252963    0.28730254285795837    0.26108530412873776    0.23861853905532168    0.22598752463321004    
  0.26143855610626066    0.26128756077022774    0.2614695903057306    0.2610911975571223    0.259771922914631    
  0.2582463989898231    0.2565672350156658    0.2556480652720458    0.2565358170658125    0.2582408684283595    
  0.2598200632675302    0.26108531915321975    0.26143855610626066    0.31175252496899164    0.32453016443660276    
  0.3244928974947756    0.31173997601597714    0.28735478894407745    0.25823694223877924    0.2335756880054067    
  0.21982445222969363    0.21982030259293692    0.23360451929439743    0.25824089589403404    0.2873025490268251    
  0.31175252496899164    0.35722052989018976    0.382992919377714    0.38894277864191706    0.38301401698522364    
  0.3571681068328894    0.30898463484653504    0.25656878237027975    0.2198141710173987    0.2071835703987119    
  0.2198202943705036    0.2565358527697286    0.30898630031231117    0.35722052989018976    0.38069916447358665    
  0.39452697373405793    0.3754618340459816    0.3754900024591527    0.39456123463170056    0.3807164654038489    
  0.32005001038366615    0.255665677403757    0.21981418933490585    0.21982447268572985    0.25564805186640227    
  0.3200990315822126    0.38069916447358665    0.38582761396435256    0.3743170516222421    0.293256638262075    
  0.25058958150633204    0.29319626158193623    0.3743094332465331    0.38587469856243467    0.3200500723441135    
  0.25656877143748336    0.23357564556885402    0.2565673147902414    0.32006082003397707    0.38582761396435256    
  0.3807199943986858    0.3743460491445584    0.2503698088689409    0.15101406979621526    0.1510375645293619    
  0.25039451857484485    0.3743094192789766    0.38071645929506964    0.3089846490918089    0.2582369529171449    
  0.2582463918088912    0.308974315567911    0.3807199943986858    0.35716819594972943    0.3945613656218406    
  0.2931956184008166    0.15103767390337267    0.10146723729053737    0.15103755824251738    0.29319623031408304    
  0.39456122369827235    0.35716815676594377    0.287354793750257    0.2597719060855584    0.2873546243292639    
  0.35716819594972943    0.3117509783698797    0.3830096312021318    0.3754548732119166    0.2506140342189736    
  0.15103770385219098    0.15101409666429916    0.2505895790608496    0.37549004104324185    0.38301403483081964    
  0.3117399809613619    0.2610912248490487    0.26108129820633846    0.3117509783698797    0.26147129422906645    
  0.3244821672962452    0.388988868168587    0.3754549251526316    0.29319562867545057    0.2503697929770779    
  0.29325658396407156    0.3754618243674338    0.38894281539647135    0.32449286725389903    0.26146960249206685    
  0.23858965047046646    0.26147129422906645    0.22598154222504335    0.2613047258785116    0.32448217484322744    
  0.38300965802091247    0.3945613250500605    0.37434599704736027    0.3743169735769062    0.39452696351292443    
  0.3829929489013601    0.3245301425172754    0.26128755647126467    0.22599197790567863    0.22598154222504335    
  0.213778631029367    0.2259815401695474    0.2614713487285411    0.31175103125818165    0.35716820558806356    
  0.3807200403517162    0.38582764830377303    0.38069920242579286    0.3572205700262315    0.3117525115822112    
  0.26143856761827367    0.22598754327659118    0.213778631029367    0.18283899920964708    0.19346066249276    
  0.2243941939997544    0.26992425917397705    0.31647856230872823    0.3481785120363547    0.35847782740207074    
  0.34817132108952137    0.31650933043602547    0.2699213615679821    0.22438510359980912    0.19346215261338828    
  0.18283899920964708    0.19346214345707696    0.19346382355960892    0.20529234921366296    0.22677421122566524    
  0.25288110936227    0.27606308542522134    0.28933151259872586    0.2893471905185509    0.276066030076329    
  0.25285408528004555    0.22677603348559036    0.20530164019614358    0.19346214345707696    0.22438509169905985    
  0.22343176375419463    0.22439488918594508    0.22677838452602833    0.22994239170013805    0.23318663721886015    
  0.23535603352349044    0.23604962103987417    0.23534447111852927    0.23318389660651936    0.22996853656216037    
  0.2267760488446449    0.22438509169905985    0.2699214064202237    0.2793435498579164    0.2793295753543825    
  0.26991906560281664    0.25288130928856684    0.2331819674764921    0.21658730560917488    0.20733810262391017    
  0.20733629843656323    0.21659843354103603    0.2331839252701335    0.252854121579515    0.2699214064202237    
  0.31650927674417395    0.34274327295126694    0.35086180767555836    0.3427505888064292    0.31647783281707176    
  0.2760687990278678    0.23535550151955487    0.2073347067939717    0.19771711944016326    0.20733630604357467    
  0.23534446390551755    0.2760660048771901    0.31650927674417395    0.34817126895980965    0.38340673084470855    
  0.3901724427576673    0.39018535444464425    0.3834327027941707    0.34817435264413715    0.28933000327285935    
  0.23605546130598085    0.20733470620421873    0.20733808580469273    0.23604961250485124    0.2893472376860082    
  0.34817126895980965    0.3584777739393679    0.3935820159964557    0.3752198799407652    0.3565012720376997    