#     DFTpy    
  CRYSTAL 
    
  PRIMVEC    
  7.601999999999999    0.0    0.0    
  0.0    7.601999999999999    0.0    
  0.0    0.0    7.601999999999999    
  PRIMCOORD    
  8    1    
  Si    0.0    0.0    0.0    
  Si    1.9004999999999999    1.9004999999999999    1.9004999999999999    
  Si    0.0    3.8009999999999997    3.8009999999999997    
  Si    1.9004999999999999    5.7015    5.7015    
  Si    3.8009999999999997    0.0    3.8009999999999997    
  Si    5.7015    1.9004999999999999    5.7015    
  Si    3.8009999999999997    3.8009999999999997    0.0    
  Si    5.7015    5.7015    1.9004999999999999    
  BEGIN_BLOCK_DATAGRID_3D    
  3d_datagrid_density    
  BEGIN_DATAGRID_3D#0    
  33    33    33    
  0.0    0.0    0.0    
  7.601999999999999    0.0    0.0    
  0.0    7.601999999999999    0.0    
  0.0    0.0    7.601999999999999    
  0.1091426313119419    0.18701883454235982    0.4194293491696848    0.5216325642407066    0.35143248267793115    
  0.17093027898699903    0.07481594070818087    0.03349411135107593    0.01687529180207209    0.010203697885184429    
  0.007449273681269242    0.006351614365321733    0.005985198363798981    0.005952803491682974    0.006035965527035951    
  0.006133406630256525    0.006173404897473483    0.006133404756582588    0.006035975932112082    0.0059528039327189294    
  0.005985191270865041    0.006351614350952841    0.00744927785618175    0.010203696009235763    0.016875278260114847    
  0.03349408432730356    0.07481592579544546    0.17093037528249655    0.35143240507553514    0.5216326028478314    
  0.41942940492919345    0.18701881974680729    0.1091426313119419    0.18701882283699375    0.27135466187517787    
  0.47166043242723293    0.5072918148055444    0.3264751071357795    0.15880944592879942    0.07055651139342074    
  0.03226750148279036    0.01664310381704388    0.01025966786608119    0.007570178573281905    0.006465281159285103    
  0.006063275282723279    0.005987457629034534    0.006033040544941709    0.006103748964674817    0.006133405106450006    
  0.006103745924065743    0.006033050341680276    0.005987471342814804    0.006063272418567894    0.006465261792646004    
  0.007570182385099194    0.010259680853608264    0.016643096108807136    0.03226750116303659    0.07055656569027394    
  0.15880942466114767    0.32647506869137527    0.5072918468484181    0.4716606614054817    0.27135465563654493    
  0.18701882283699375    0.4194292021046257    0.47166051268749565    0.5300090425873722    0.4367598985159226    
  0.2597099779067033    0.1281329417124164    0.05977421782513611    0.029160707133557458    0.016100275541122356    
  0.010469590516544502    0.007951396084597608    0.006814755732348248    0.006307487572541313    0.006104572508714351    
  0.00604030384758935    0.006033063082549935    0.006035965802130756    0.0060330543490670395    0.006040317867733712    
  0.006104597082918657    0.006307493826902649    0.0068147394870731945    0.007951406378823866    0.010469593219372337    
  0.01610027240597124    0.029160687067768618    0.0597741806432    0.12813300006803038    0.2597099712878289    
  0.43675969080993443    0.5300091629991741    0.47166058120000953    0.4194292021046257    0.5216324901443241    
  0.5072916076563116    0.436759951684363    0.3057850795507014    0.17693523253756166    0.0918498492326229    
  0.046799042315861204    0.02539613488375463    0.015564711727787377    0.010936775677810692    0.00864066089864281    
  0.007429684589379953    0.00674056966594803    0.006336648487488253    0.006104590889967412    0.005987457419833179    
  0.00595280582476625    0.005987447007157747    0.006104593603148783    0.006336660207296846    0.006740549497411159    
  0.007429687483084577    0.008640662232451832    0.01093678970098824    0.015564700484680843    0.025396120186805544    
  0.046799069220306674    0.09184981251859903    0.1769352510328966    0.3057850546528602    0.4367599370309019    
  0.5072914966587031    0.5216324901443241    0.3514322355278665    0.32647513089801733    0.25970990979461045    
  0.17693526884293012    0.1069468955046734    0.061073191552938395    0.03535696238620426    0.022081761079806566    
  0.01534035866914243    0.01175120479162494    0.00967143136126924    0.008330542615901397    0.007395633709547578    
  0.0067405668418478665    0.006307462760812153    0.0060632968061337545    0.005985164182752122    0.006063298446002343    
  0.006307476722068339    0.006740560198081438    0.0073956382463228896    0.008330528801133025    0.00967143236312469    
  0.011751203203273514    0.015340358711006846    0.022081749825415248    0.035356967317131206    0.0610732197875112    
  0.1069469007964919    0.17693527790156552    0.2597098205315045    0.3264750556569731    0.3514322355278665    
  0.1709305085315249    0.15880917999482794    0.1281330853237834    0.09184971264437748    0.06107327750699664    
  0.03988105152858361    0.027055481735201205    0.01976604202477869    0.015564761018599944    0.012913255853157982    
  0.011019437993813287    0.009524366830028155    0.008330568285633593    0.007429634926198787    0.006814783901537497    
  0.006465227931704218    0.00635166086162607    0.006465231334420472    0.0068147814848697535    0.007429650071841246    
  0.008330561471042535    0.009524370652739714    0.01101943453095007    0.012913290977574174    0.015564751031533085    
  0.019766007774609056    0.027055500297722832    0.03988103896011516    0.06107326873182877    0.091849695416106    
  0.12813313804005177    0.15880913828036433    0.1709305085315249    0.07481577739271075    0.07055666696000733    
  0.059774058470668266    0.04679909488332161    0.03535690403795232    0.027055475746590816    0.021703179559337996    
  0.01836344739605344    0.016100197305183524    0.01427515891028217    0.012590819119289312    0.011019452448117148    
  0.009671386764285424    0.008640696478802843    0.00795134590020369    0.007570233185237413    0.0074492123677660765    
  0.007570233680737445    0.007951342294743478    0.008640695085445486    0.009671402664145116    0.011019428611789854    
  0.01259084463600853    0.014275184662227335    0.016100201857767376    0.018363417682831836    0.021703166552926517    
  0.027055492049378512    0.035356869060441505    0.046799116791014825    0.05977407949202113    0.07055666160087266    
  0.07481577739271075    0.03349422299041588    0.03226737042692941    0.029160823438352593    0.025396027333008317    
  0.022081812823912233    0.019765987348573242    0.01836346056396416    0.017467663235579408    0.016643212390783608    
  0.015586467359203516    0.014275181375998203    0.012913250826066359    0.011751270807042745    0.010936720211237634    
  0.010469672403845243    0.010259602136468078    0.01020376429914362    0.01025959761110471    0.010469675303149108    
  0.010936717932667329    0.011751253001243842    0.012913248225779139    0.014275196275748619    0.015586472642499136    
  0.016643205026712606    0.017467663162950873    0.018363448098914374    0.01976598411880417    0.022081823071383865    
  0.025396042083084824    0.02916081719228518    0.032267369508310634    0.03349422299041588    0.016875183467180165    
  0.016643179761989504    0.01610018974529826    0.015564783716756361    0.01534030347581328    0.015564770380466768    
  0.01610017440043607    0.016643211065492207    0.01687516683337482    0.01664321100166928    0.016100160868782864    
  0.015564807772585664    0.015340289514296423    0.01556478830004352    0.016100165516915736    0.016643207929005182    
  0.016875181116511106    0.01664318907439261    0.016100188727014637    0.015564794204923765    0.015340301579415605    
  0.015564770008093275    0.016100175371604825    0.01664321105797131    0.016875166861896225    0.016643208999494653    
  0.01610016593656656    0.015564798301308778    0.015340289756489652    0.015564785624843556    0.016100174480350574    
  0.016643191816373953    0.016875183467180165    0.010203770913522776    0.010259599487013375    0.010469674064619527    
  0.010936721788327443    0.011751257270515932    0.012913237386234937    0.014275191221918055    0.01558646827399012    
  0.01664321327223769    0.017467660433115286    0.018363470407254227    0.019765994234733155    0.022081825566968114    
  0.02539601857899395    0.029160837306481543    0.032267359443461055    0.033494222475831226    0.03226736307696792    
  0.0291608160636421    0.02539604316566599    0.022081817796098784    0.019765980550266925    0.018363455860445826    
  0.01746766404496839    0.01664320863974784    0.01558646848284032    0.014275203364936847    0.012913253059161356    
  0.011751253723910362    0.010936720860668159    0.010469678328665672    0.01025958866994907    0.010203770913522776    
  0.007449222613482488    0.00757022635066972    0.00795134373194036    0.008640701349821778    0.009671387675573498    
  0.011019449362469532    0.012590836700148163    0.014275177316311118    0.0161001854559024    0.018363443558121896    
  0.021703149536080314    0.027055514446951333    0.0353568708880741    0.046799119738545544    0.059774054360322855    
  0.07055669152016421    0.07481575372721223    0.0705566796888437    0.05977407205696363    0.046799142335187914    
  0.03535688864504332    0.02705550287480564    0.021703174275827592    0.01836344111775718    0.01610019018924465    
  0.014275181781529383    0.012590822868212065    0.011019446027226128    0.009671386726655993    0.00864069108660172    
  0.007951341113600458    0.0075702322911814415    0.007449222613482488    0.006351668804832469    0.0064652285544825085    
  0.006814777335616079    0.0074296401295264195    0.008330568032305688    0.009524362673030626    0.011019441865684201    
  0.01291326429070301    0.015564773332210175    0.019766012054823378    0.02705550541042394    0.039881009191478134    
  0.061073308064323165    0.091849697572939    0.12813309510213586    0.15880917357995109    0.17093060645554753    
  0.15880920239678334    0.12813314651296323    0.09184973126219831    0.061073306042857295    0.03988104567199726    
  0.027055499722493978    0.019766018926102774    0.01556477072106295    0.012913276947619965    0.011019438729326926    
  0.009524357798265605    0.008330565750313627    0.007429640585949212    0.006814767828393374    0.006465219389183121    
  0.006351668804832469    0.005985167777792981    0.006063289898941816    0.00630746832825208    0.0067405603671864605    
  0.00739562785215447    0.008330540758542922    0.009671428122767866    0.0117512263561807    0.015340341346936372    
  0.022081760708949835    0.03535690998916945    0.0610732577262655    0.10694687684905999    0.1769353264519574    
  0.25970981547114724    0.32647519510126    0.35143228105772156    0.3264752157864133    0.259709926141912    
  0.17693532670547626    0.10694688697640937    0.06107322179567137    0.03535695467186014    0.02208179052585655    
  0.01534034592654188    0.011751219497980142    0.009671410869696096    0.008330547563945646    0.0073956277260182075    
  0.00674056694625997    0.00630747157769642    0.006063300935663666    0.005985167777792981    0.005952812902017504    
  0.005987449307892113    0.006104609664069289    0.006336655131553515    0.00674055556281909    0.007429668857844225    
  0.008640666837215353    0.01093678547642301    0.01556471693791365    0.025396103195035078    0.046799064419258914    
  0.09184979837741482    0.17693532172834    0.30578497756147127    0.4367600459222829    0.5072916146483619    
  0.521632562535857    0.5072915902354825    0.4367600753014085    0.3057849289543593    0.17693526645125687    
  0.09184980332671426    0.04679904607602013    0.02539613077927881    0.015564727652768515    0.010936767676069605    
  0.008640665098694222    0.007429672570448263    0.006740559202094391    0.0063366505480601295    0.006104599508694761    
  0.005987455830903028    0.005952812902017504    0.006035971616484952    0.006033051677380683    0.00604029307252485    
  0.006104588368181022    0.006307487990397884    0.006814751995947839    0.007951400009874342    0.010469604651746135    
  0.0161002552344921    0.029160706748003067    0.05977418355731499    0.12813294754932278    0.2597099044224818    
  0.4367599630468994    0.5300091509313358    0.4716606265831806    0.41942914727461494    0.4716604703326386    
  0.5300090910663962    0.436759785156516    0.2597099949206123    0.12813301140623365    0.059774185671422474    
  0.029160723432227212    0.016100265121521875    0.010469603914349557    0.00795139392971968    0.006814746866192046    
  0.006307484945329983    0.006104582099142341    0.006040306501171793    0.006033063265676315    0.006035971616484952    
  0.006133412244316718    0.006103743696120759    0.00603304877017349    0.005987461184300102    0.0060632694810865565    
  0.006465267474229647    0.007570188721683952    0.010259673735543633    0.01664310124925144    0.03226748712572215    
  0.07055654836238368    0.15880936272764662    0.3264750258190294    0.5072918759110643    0.4716607120870144    
  0.27135462052892356    0.18701885130286636    0.2713546528854423    0.4716604362268832    0.5072916744401718    
  0.32647498655962337    0.1588094211585418    0.07055655367812085    0.03226750756743596    0.01664311330440967    
  0.010259658399977728    0.007570174140077556    0.006465264075075962    0.006063284727460765    0.005987460130462053    
  0.0060330462939364605    0.0061037583146321866    0.006133412244316718    0.006173404897473483    0.006133404756582588    
  0.006035975932112082    0.0059528039327189294    0.005985191270865041    0.006351614350952841    0.00744927785618175    
  0.010203696009235763    0.016875278260114847    0.03349408432730356    0.07481592579544546    0.17093037528249655    
  0.35143240507553514    0.5216326028478314    0.41942940492919345    0.18701881974680729    0.1091426313119419    
  0.18701883454235982    0.4194293491696848    0.5216325642407066    0.35143248267793115    0.17093027898699903    
  0.07481594070818087    0.03349411135107593    0.01687529180207209    0.010203697885184429    0.007449273681269242    
  0.006351614365321733    0.005985198363798981    0.005952803491682974    0.006035965527035951    0.006133406630256525    
  0.006173404897473483    0.006133405106450006    0.006103745924065743    0.006033050341680276    0.005987471342814804    
  0.006063272418567894    0.006465261792646004    0.007570182385099194    0.010259680853608264    0.016643096108807136    
  0.03226750116303659    0.07055656569027394    0.15880942466114767    0.32647506869137527    0.5072918468484181    
  0.4716606614054817    0.27135465563654493    0.18701882283699375    0.27135466187517787    0.47166043242723293    
  0.5072918148055444    0.3264751071357795    0.15880944592879942    0.07055651139342074    0.03226750148279036    
  0.01664310381704388    0.01025966786608119    0.007570178573281905    0.006465281159285103    0.006063275282723279    
  0.005987457629034534    0.006033040544941709    0.006103748964674817    0.006133405106450006    0.006035965802130756    
  0.0060330543490670395    0.006040317867733712    0.006104597082918657    0.006307493826902649    0.0068147394870731945    
  0.007951406378823866    0.010469593219372337    0.01610027240597124    0.029160687067768618    0.0597741806432    
  0.12813300006803038    0.2597099712878289    0.43675969080993443    0.5300091629991741    0.47166058120000953    
  0.4194292021046257    0.47166051268749565    0.5300090425873722    0.4367598985159226    0.2597099779067033    
  0.1281329417124164    0.05977421782513611    0.029160707133557458    0.016100275541122356    0.010469590516544502    
  0.007951396084597608    0.006814755732348248    0.006307487572541313    0.006104572508714351    0.00604030384758935    
  0.006033063082549935    0.006035965802130756    0.00595280582476625    0.005987447007157747    0.006104593603148783    
  0.006336660207296846    0.006740549497411159    0.007429687483084577    0.008640662232451832    0.01093678970098824    
  0.015564700484680843    0.025396120186805544    0.046799069220306674    0.09184981251859903    0.1769352510328966    
  0.3057850546528602    0.4367599370309019    0.5072914966587031    0.5216324901443241    0.5072916076563116    
  0.436759951684363    0.3057850795507014    0.17693523253756166    0.0918498492326229    0.046799042315861204    
  0.02539613488375463    0.015564711727787377    0.010936775677810692    0.00864066089864281    0.007429684589379953    
  0.00674056966594803    0.006336648487488253    0.006104590889967412    0.005987457419833179    0.00595280582476625    
  0.005985164182752122    0.006063298446002343    0.006307476722068339    0.006740560198081438    0.0073956382463228896    
  0.008330528801133025    0.00967143236312469    0.011751203203273514    0.015340358711006846    0.022081749825415248    
  0.035356967317131206    0.0610732197875112    0.1069469007964919    0.17693527790156552    0.2597098205315045    
  0.3264750556569731    0.3514322355278665    0.32647513089801733    0.25970990979461045    0.17693526884293012    
  0.1069468955046734    0.061073191552938395    0.03535696238620426    0.022081761079806566    0.01534035866914243    
  0.01175120479162494    0.00967143136126924    0.008330542615901397    0.007395633709547578    0.0067405668418478665    
  0.006307462760812153    0.0060632968061337545    0.005985164182752122    0.00635166086162607    0.006465231334420472    
  0.0068147814848697535    0.007429650071841246    0.008330561471042535    0.009524370652739714    0.01101943453095007    
  0.012913290977574174    0.015564751031533085    0.019766007774609056    0.027055500297722832    0.03988103896011516    
  0.06107326873182877    0.091849695416106    0.12813313804005177    0.15880913828036433    0.1709305085315249    
  0.15880917999482794    0.1281330853237834    0.09184971264437748    0.06107327750699664    0.03988105152858361    
  0.027055481735201205    0.01976604202477869    0.015564761018599944    0.012913255853157982    0.011019437993813287    
  0.009524366830028155    0.008330568285633593    0.007429634926198787    0.006814783901537497    0.006465227931704218    
  0.00635166086162607    0.0074492123677660765    0.007570233680737445    0.007951342294743478    0.008640695085445486    
  0.009671402664145116    0.011019428611789854    0.01259084463600853    0.014275184662227335    0.016100201857767376    
  0.018363417682831836    0.021703166552926517    0.027055492049378512    0.035356869060441505    0.046799116791014825    
  0.05977407949202113    0.07055666160087266    0.07481577739271075    0.07055666696000733    0.059774058470668266    
  0.04679909488332161    0.03535690403795232    0.027055475746590816    0.021703179559337996    0.01836344739605344    
  0.016100197305183524    0.01427515891028217    0.012590819119289312    0.011019452448117148    0.009671386764285424    
  0.008640696478802843    0.00795134590020369    0.007570233185237413    0.0074492123677660765    0.01020376429914362    
  0.01025959761110471    0.010469675303149108    0.010936717932667329    0.011751253001243842    0.012913248225779139    
  0.014275196275748619    0.015586472642499136    0.016643205026712606    0.017467663162950873    0.018363448098914374    
  0.01976598411880417    0.022081823071383865    0.025396042083084824    0.02916081719228518    0.032267369508310634    
  0.03349422299041588    0.03226737042692941    0.029160823438352593    0.025396027333008317    0.022081812823912233    
  0.019765987348573242    0.01836346056396416    0.017467663235579408    0.016643212390783608    0.015586467359203516    
  0.014275181375998203    0.012913250826066359    0.011751270807042745    0.010936720211237634    0.010469672403845243    
  0.010259602136468078    0.01020376429914362    0.016875181116511106    0.01664318907439261    0.016100188727014637    
  0.015564794204923765    0.015340301579415605    0.015564770008093275    0.016100175371604825    0.01664321105797131    
  0.016875166861896225    0.016643208999494653    0.01610016593656656    0.015564798301308778    0.015340289756489652    
  0.015564785624843556    0.016100174480350574    0.016643191816373953    0.016875183467180165    0.016643179761989504    
  0.01610018974529826    0.015564783716756361    0.01534030347581328    0.015564770380466768    0.01610017440043607    
  0.016643211065492207    0.01687516683337482    0.01664321100166928    0.016100160868782864    0.015564807772585664    
  0.015340289514296423    0.01556478830004352    0.016100165516915736    0.016643207929005182    0.016875181116511106    
  0.033494222475831226    0.03226736307696792    0.0291608160636421    0.02539604316566599    0.022081817796098784    
  0.019765980550266925    0.018363455860445826    0.01746766404496839    0.01664320863974784    0.01558646848284032    
  0.014275203364936847    0.012913253059161356    0.011751253723910362    0.010936720860668159    0.010469678328665672    
  0.01025958866994907    0.010203770913522776    0.010259599487013375    0.010469674064619527    0.010936721788327443    
  0.011751257270515932    0.012913237386234937    0.014275191221918055    0.01558646827399012    0.01664321327223769    
  0.017467660433115286    0.018363470407254227    0.019765994234733155    0.022081825566968114    0.02539601857899395    
  0.029160837306481543    0.032267359443461055    0.033494222475831226    0.07481575372721223    0.0705566796888437    
  0.05977407205696363    0.046799142335187914    0.03535688864504332    0.02705550287480564    0.021703174275827592    
  0.01836344111775718    0.01610019018924465    0.014275181781529383    0.012590822868212065    0.011019446027226128    
  0.009671386726655993    0.00864069108660172    0.007951341113600458    0.0075702322911814415    0.007449222613482488    
  0.00757022635066972    0.00795134373194036    0.008640701349821778    0.009671387675573498    0.011019449362469532    
  0.012590836700148163    0.014275177316311118    0.0161001854559024    0.018363443558121896    0.021703149536080314    
  0.027055514446951333    0.0353568708880741    0.046799119738545544    0.059774054360322855    0.07055669152016421    
  0.07481575372721223    0.17093060645554753    0.15880920239678334    0.12813314651296323    0.09184973126219831    
  0.061073306042857295    0.03988104567199726    0.027055499722493978    0.019766018926102774    0.01556477072106295    
  0.012913276947619965    0.011019438729326926    0.009524357798265605    0.008330565750313627    0.007429640585949212    
  0.006814767828393374    0.006465219389183121    0.006351668804832469    0.0064652285544825085    0.006814777335616079    
  0.0074296401295264195    0.008330568032305688    0.009524362673030626    0.011019441865684201    0.01291326429070301    
  0.015564773332210175    0.019766012054823378    0.02705550541042394    0.039881009191478134    0.061073308064323165    
  0.091849697572939    0.12813309510213586    0.15880917357995109    0.17093060645554753    0.35143228105772156    
  0.3264752157864133    0.259709926141912    0.17693532670547626    0.10694688697640937    0.06107322179567137    
  0.03535695467186014    0.02208179052585655    0.01534034592654188    0.011751219497980142    0.009671410869696096    
  0.008330547563945646    0.0073956277260182075    0.00674056694625997    0.00630747157769642    0.006063300935663666    
  0.005985167777792981    0.006063289898941816    0.00630746832825208    0.0067405603671864605    0.00739562785215447    
  0.008330540758542922    0.009671428122767866    0.0117512263561807    0.015340341346936372    0.022081760708949835    
  0.03535690998916945    0.0610732577262655    0.10694687684905999    0.1769353264519574    0.25970981547114724    
  0.32647519510126    0.35143228105772156    0.521632562535857    0.5072915902354825    0.4367600753014085    
  0.3057849289543593    0.17693526645125687    0.09184980332671426    0.04679904607602013    0.02539613077927881    
  0.015564727652768515    0.010936767676069605    0.008640665098694222    0.007429672570448263    0.006740559202094391    
  0.0063366505480601295    0.006104599508694761    0.005987455830903028    0.005952812902017504    0.005987449307892113    
  0.006104609664069289    0.006336655131553515    0.00674055556281909    0.007429668857844225    0.008640666837215353    
  0.01093678547642301    0.01556471693791365    0.025396103195035078    0.046799064419258914    0.09184979837741482    
  0.17693532172834    0.30578497756147127    0.4367600459222829    0.5072916146483619    0.521632562535857    
  0.41942914727461494    0.4716604703326386    0.5300090910663962    0.436759785156516    0.2597099949206123    
  0.12813301140623365    0.059774185671422474    0.029160723432227212    0.016100265121521875    0.010469603914349557    
  0.00795139392971968    0.006814746866192046    0.006307484945329983    0.006104582099142341    0.006040306501171793    
  0.006033063265676315    0.006035971616484952    0.006033051677380683    0.00604029307252485    0.006104588368181022    
  0.006307487990397884    0.006814751995947839    0.007951400009874342    0.010469604651746135    0.0161002552344921    
  0.029160706748003067    0.05977418355731499    0.12813294754932278    0.2597099044224818    0.4367599630468994    
  0.5300091509313358    0.4716606265831806    0.41942914727461494    0.18701885130286636    0.2713546528854423    
  0.4716604362268832    0.5072916744401718    0.32647498655962337    0.1588094211585418    0.07055655367812085    
  0.03226750756743596    0.01664311330440967    0.010259658399977728    0.007570174140077556    0.006465264075075962    
  0.006063284727460765    0.005987460130462053    0.0060330462939364605    0.0061037583146321866    0.006133412244316718    
  0.006103743696120759    0.00603304877017349    0.005987461184300102    0.0060632694810865565    0.006465267474229647    
  0.007570188721683952    0.010259673735543633    0.01664310124925144    0.03226748712572215    0.07055654836238368    
  0.15880936272764662    0.3264750258190294    0.5072918759110643    0.4716607120870144    0.27135462052892356    
  0.18701885130286636    0.1091426313119419    0.18701883454235982    0.4194293491696848    0.5216325642407066    
  0.35143248267793115    0.17093027898699903    0.07481594070818087    0.03349411135107593    0.01687529180207209    
  0.010203697885184429    0.007449273681269242    0.006351614365321733    0.005985198363798981    0.005952803491682974    
  0.006035965527035951    0.006133406630256525    0.006173404897473483    0.006133404756582588    0.006035975932112082    
  0.0059528039327189294    0.005985191270865041    0.006351614350952841    0.00744927785618175    0.010203696009235763    
  0.016875278260114847    0.03349408432730356    0.07481592579544546    0.17093037528249655    0.35143240507553514    
  0.5216326028478314    0.41942940492919345    0.18701881974680729    0.1091426313119419    0.1870188153968112    
  0.27135462822324813    0.4716605812943782    0.5072919373220199    0.32647496828943845    0.15880939659718468    
  0.0705565267162779    0.03226750630978315    0.016643107880771852    0.01025966800938789    0.007570175954232948    
  0.006465273391762234    0.0060632753267395026    0.005987466891214742    0.006033042473279003    0.006103753125206845    
  0.006133416171427091    0.006103749536740321    0.006033040065160828    0.005987482729672985    0.006063256579969364    
  0.006465271404957527    0.007570184856500681    0.010259670325224747    0.016643097317819273    0.03226748199169515    
  0.07055650998912871    0.15880944081426757    0.32647495836606577    0.5072917812009186    0.4716606105961039    
  0.271354632220228    0.1870188153968112    0.2713546459357689    0.35132674515740586    0.5066573749183447    
  0.48801401716053566    0.3043731685391747    0.14944614888171495    0.06826246926424066    0.03245281368288278    
  0.01746776732366979    0.011141526295346465    0.00834729828672123    0.0070934751721608005    0.006534263558589906    
  0.006303240184821482    0.006207886352778357    0.0061613075434673245    0.006103748845087293    0.0060065970398243225    
  0.005879119591216023    0.005780677846951456    0.005807317309529689    0.006147425588101742    0.007152222649967473    
  0.009645547219328603    0.015586565773864365    0.030066712897672977    0.06536768826812321    0.14635094675378502    
  0.30164881180713415    0.48652186911315665    0.5068446744873384    0.3518547142735334    0.2713546459357689    
  0.4716605586099262    0.5066573594376621    0.5247281098431148    0.41225838752052335    0.244197094779495    
  0.12357190701972867    0.06033774773237595    0.03125659482794222    0.018363370264886263    0.012497583214317013    
  0.009641573824818016    0.008147998899219994    0.007294654399790996    0.006774834391073268    0.0064368360515336    
  0.006207878190751602    0.006033053806536219    0.00587911389099099    0.005746101341522472    0.005668339258498451    
  0.0057202415188014975    0.006058990686053927    0.006984229980681018    0.009190533022232245    0.01427511234622603    
  0.026205888270495473    0.054295011158509265    0.11699461253210758    0.23819494412750508    0.40844894360118306    
  0.5237227291743806    0.5068443431854145    0.4716605586099262    0.5072915858333276    0.488014176042298    
  0.41225834280096113    0.28790089406325825    0.17031527116954026    0.0925912995435376    0.05055143968388683    
  0.029828532202369324    0.01976607415837715    0.014598099115161689    0.011652295528602136    0.009763889841494445    
  0.008432260060249963    0.007464191301976496    0.006774836027182011    0.006303266668825734    0.005987441960041195    
  0.005780688836694437    0.005668325041737139    0.005655150183665211    0.005782938104666453    0.006163313584049025    