#     DFTpy    
  CRYSTAL 
    
  PRIMVEC    
  6.927931034482758    0.0    0.0    
  0.0    6.927931034482758    0.0    
  0.0    0.0    6.927931034482758    
  PRIMCOORD    
  8    1    
  Si    0.0    0.0    0.0    
  Si    1.7319827586206895    1.7319827586206895    1.7319827586206895    
  Si    0.0    3.463965517241379    3.463965517241379    
  Si    1.7319827586206895    5.195948275862068    5.195948275862068    
  Si    3.463965517241379    0.0    3.463965517241379    
  Si    5.195948275862068    1.7319827586206895    5.195948275862068    
  Si    3.463965517241379    3.463965517241379    0.0    
  Si    5.195948275862068    5.195948275862068    1.7319827586206895    
  BEGIN_BLOCK_DATAGRID_3D    
  3d_datagrid_density    
  BEGIN_DATAGRID_3D#0    
  31    31    31    
  0.0    0.0    0.0    
  6.927931034482758    0.0    0.0    
  0.0    6.927931034482758    0.0    
  0.0    0.0    6.927931034482758    
  0.09211026110454557    0.15531319421972994    0.3515396694989416    0.46756363697250247    0.347125617575635    
  0.18856575175649526    0.0938283082437771    0.04865797699396772    0.028456955752102685    0.019462662889443823    
  0.015376037536892397    0.013541025360153041    0.012765663389301789    0.012496823046832198    0.01242429913643026    
  0.012407952083463807    0.01242433202214845    0.012496715490692457    0.012765814023615969    0.013540837790111438    
  0.015376254752393858    0.01946236643176158    0.028457327997817142    0.04865756527473433    0.0938288822404536    
  0.18856505032570775    0.34712642766263185    0.4675628712669914    0.3515402495524355    0.15531304448082553    
  0.09211026110454557    0.1553130408715664    0.22471091573212124    0.4002833489872108    0.4623227497843096    
  0.32765452655779764    0.17808815125875707    0.09011216565836305    0.047725597433574164    0.028471123184610925    
  0.019742327781587608    0.015681037388737808    0.013789698875329194    0.012933560198387636    0.012583658962316512    
  0.012457069997810565    0.012424318901816746    0.012457018369721632    0.012583740042453108    0.012933423545368776    
  0.013789873680953916    0.01568081587641341    0.01974259077527749    0.028470779941868994    0.04772605902600293    
  0.09011160369911549    0.17808892291239486    0.3276537965205514    0.46232363000584875    0.4002828865227954    
  0.2247111240574995    0.1553130408715664    0.35154008334966647    0.400283060830178    0.4701556360481932    
  0.41782632024085786    0.27315228965708976    0.15083931372108209    0.08040357975519252    0.045331405768337184    
  0.028635559878467304    0.020628887567178664    0.016614831388250095    0.014545217629522728    0.013445753517043529    
  0.01286607206105036    0.012583693334682814    0.012496732796297498    0.012583733689885255    0.012865976107023228    
  0.013445886807698537    0.014545070721477751    0.016615045502509137    0.020628596277639456    0.028635878867375206    
  0.04533100456459777    0.08040411917525869    0.1508386384242027    0.27315305713172844    0.417825626431387    
  0.47015626718873693    0.40028281786101994    0.35154008334966647    0.4675627436095957    0.462323328880785    
  0.41782597906265284    0.31516879387273977    0.2005754631510347    0.11699561061226374    0.0682506935778699    
  0.04246198610517882    0.029199741381629993    0.022184192480494507    0.018216939822348927    0.015851494354571963    
  0.014370988961190628    0.013445796985616924    0.012933492050936725    0.012765767511470176    0.012933415107550994    
  0.013445885200775463    0.014370846588925469    0.015851704941202638    0.018216695615025435    0.022184474114815996    
  0.029199373686282573    0.04246244044089728    0.0682501856102358    0.11699620548704734    0.2005748820860606    
  0.31516958106621185    0.4178256234637746    0.4623236565022042    0.4675627436095957    0.34712660214606367    
  0.32765389458097877    0.2731527223813811    0.2005752358510538    0.13395647728008983    0.08634792119389305    
  0.057006556779733576    0.04008322622164332    0.030357479760633403    0.02443552707656467    0.02051878468837568    
  0.01778974705143632    0.01585152894349136    0.014545166011678167    0.013789818140994996    0.013540877020943124    
  0.013789861746851668    0.014545066016550662    0.01585169938060371    0.017789590722038486    0.020519031627680023    
  0.0244352316043609    0.03035781432616306    0.040082843125995804    0.05700698730590225    0.08634741255137608    
  0.13395698440666004    0.2005747765340821    0.27315317340495415    0.3276537355760078    0.34712660214606367    
  0.18856489218392525    0.1780888511539073    0.15083875280858608    0.11699591842487243    0.08634780673259045    
  0.06349002796413804    0.04829495742562075    0.03858573350425571    0.03209097850063245    0.02730516179229686    
  0.02353176479884752    0.02051882502481372    0.018216865350848162    0.016614959668320894    0.015680894519278947    
  0.015376230014808605    0.015680831119724892    0.016615049681458608    0.018216728204786363    0.02051904367558337    
  0.02353151858232096    0.02730546419764708    0.03209062706841312    0.038586125524931764    0.04829452251995032    
  0.06349043601667699    0.08634733312108114    0.1169963295141648    0.150838579314493    0.17808911973015748    
  0.18856489218392525    0.09382906188084014    0.09011148706777886    0.08040413475061109    0.0682503097290888    
  0.057006770095343585    0.048294821445845376    0.042161947630823225    0.03774407225935828    0.034048370524160536    
  0.03057357371663518    0.027305176746553778    0.02443543164838516    0.022184322622448512    0.020628715169010953    
  0.01974254314098689    0.019462378389253576    0.01974260664392527    0.020628596728888435    0.022184498877046897    
  0.024435231519140427    0.0273054858607869    0.03057322659987649    0.034048709341565425    0.03774370659197288    
  0.04216233356825046    0.04829444904074215    0.05700708452025934    0.06825003876791842    0.08040435571659968    
  0.09011137241254942    0.09382906188084014    0.04865733595803386    0.04772615394605775    0.04533093391862343    
  0.04246238790413871    0.04008297857080251    0.03858589296569259    0.037743988343983334    0.03697901310331737    
  0.035776722893972684    0.03404839420674819    0.032090894480457315    0.030357573907310104    0.029199534479944826    
  0.02863579092497836    0.02847083259551478    0.028457300277682132    0.02847075426299788    0.028635902135939077    
  0.029199353616473685    0.030357859948455284    0.032090577838094866    0.03404874897585878    0.03577631167683523    
  0.03697942488969577    0.03774362839274282    0.038586231838719905    0.040082672746562305    0.04246263101019544    
  0.045330794591612905    0.047726263663844616    0.04865733595803386    0.02845753259828924    0.028470590195195263    
  0.028635991602914482    0.02919933188405857    0.030357764434735795    0.03209074526737517    0.03404848704508575    
  0.035776613254967005    0.03697906548577634    0.03774402987231563    0.03858583682687538    0.04008306303315976    
  0.042462239899082495    0.045331102014661444    0.04772602054516915    0.04865750904838462    0.04772607738777257    
  0.04533092712233591    0.0424625042621097    0.04008280167399088    0.038586147691541436    0.037743664243451214    
  0.03697942858295788    0.035776265831418776    0.03404885927896772    0.03209043165242546    0.030358021227873087    
  0.029199142369438852    0.02863614994590606    0.028470533941503357    0.02845753259828924    0.01946213182623196    
  0.019742786998084922    0.02062845770587734    0.022184543980127515    0.024435205716002953    0.027305395523830846    
  0.030573386992080755    0.03404849612838809    0.03774396974966785    0.04216203331543953    0.04829479145725315    
  0.057006738903934755    0.06825038655213007    0.080404039119389    0.09011162770909857    0.09382890588100531    
  0.09011149726744125    0.08040421647360259    0.06825007341817776    0.057007154225271306    0.048294411595823275    
  0.04216239418258618    0.03774359519084662    0.03404889071407085    0.03057305092886803    0.027305669752487598    
  0.024434970186459775    0.02218475382540666    0.020628336624306267    0.019742858554811036    0.01946213182623196    
  0.015376512757333241    0.01568060409863921    0.01661524356907358    0.018216606697239922    0.020519116397211594    
  0.023531520929381936    0.027305411343292497    0.03209075632897783    0.03858592663211193    0.04829475932869767    
  0.06349016778083595    0.08634763949054397    0.1169960125727071    0.15083881119516587    0.1780890223281106    
  0.18856486807487446    0.1780891237921289    0.15083839884156924    0.11699642313869449    0.08634728069905126    
  0.0634905717806374    0.048294346953949185    0.038586328426139876    0.03209038583877845    0.027305721716737525    
  0.02353126408034826    0.020519318369415437    0.018216430664187346    0.01661534393572902    0.015680561847924202    
  0.015376512757333241    0.013540567444245286    0.01379012100702341    0.014544867275406178    0.01585185444758173    
  0.017789454463459038    0.02051907625181058    0.024435206422017113    0.030357756787787557    0.040082964508984    
  0.057006843035242644    0.08634761831508474    0.1339567390558585    0.20057502254476678    0.27315311854661284    
  0.327653582970754    0.34712682638468817    0.32765338738737393    0.2731534520057102    0.20057451935259363    
  0.1339573572602585    0.08634714956826    0.05700727839741239    0.040082569828522964    0.030358117239842407    
  0.024434920842922703    0.020519328941830926    0.017789252102844506    0.01585200751322936    0.014544751902471764    
  0.013790173407867898    0.013540567444245286    0.012766121033408497    0.012933123967393797    0.013446136150483682    
  0.014370655242150785    0.015851851909226708    0.018216607106022364    0.02218450541235727    0.02919936769340239    
  0.04246239982200135    0.06825027445312722    0.11699608217158071    0.20057495483109797    0.3151693395609743    
  0.41782554323565113    0.4623239069071423    0.46756220578175456    0.46232415535665333    0.4178250407604566    
  0.31517002626230184    0.20057442773037212    0.11699662884654356    0.06824980795864694    0.042462790000053215    
  0.0291990330158586    0.022184834777023495    0.018216384740063454    0.015852040041934547    0.01437050772249607    
  0.013446225786090022    0.012933088822875931    0.012766121033408497    0.01249637309358818    0.012584050164471377    
  0.012865691103008964    0.013446117193631757    0.014544899383458059    0.016615176025423662    0.02062850378072508    
  0.028635925993728103    0.04533101278161141    0.08040410122535889    0.1508387040694034    0.27315298181317377    
  0.41782558283876137    0.470156372810376    0.4002824354299906    0.351540700101001    0.4002821272656923    
  0.4701568938810768    0.41782495393302393    0.2731538331511155    0.1508380160457722    0.08040465901590302    
  0.04533054662846951    0.02863627433681771    0.020628241883560283    0.01661541858362535    0.014544712081115614    
  0.013446236547091098    0.012865622499614364    0.012584106269277516    0.01249637309358818    0.012424683073972534    
  0.012456661502242906    0.012584027447660994    0.012933178340326831    0.01379005870291795    0.015680666766564506    
  0.019742701248834267    0.028470700703345054    0.04772611106791728    0.09011160987675879    0.17808892253280778    
  0.3276537185213972    0.4623238385976491    0.400282551550634    0.22471153737240374    0.1553125300100658    
  0.2247117374986817    0.40028194868396527    0.46232447779193003    0.32765307334318805    0.17808961145597607    
  0.09011103333684642    0.04772650966219099    0.02847036794435512    0.019742987337803816    0.015680448714094415    
  0.013790246577683995    0.012933041738903812    0.012584116957015038    0.012456646936556974    0.012424683073972534    
  0.012407560889842758    0.012424664917661322    0.012496426553969826    0.012766038034260617    0.01354066027409102    
  0.015376392454031603    0.019462257131311146    0.028457402199061746    0.04865750112175353    0.09382891838800145    
  0.18856501251830984    0.3471265325925085    0.46756257983052346    0.35154050872092524    0.15531269245510296    
  0.09211069387703112    0.15531246968869392    0.3515408348854461    0.4675618887578182    0.3471274112218111    
  0.18856425812834332    0.09382946966181253    0.04865702567761067    0.028457739429212488    0.01946197337134982    
  0.015376608733740442    0.013540484675034286    0.012766162333810085    0.012496332917228754    0.012424736318188741    
  0.012407560889842758    0.012424679005954299    0.012456698705749792    0.012584026890065493    0.01293320413092659    
  0.013790046630389389    0.015680690160119012    0.019742679621424647    0.028470732892730954    0.04772607255955637    
  0.09011165519350184    0.1780888300053535    0.32765377145897095    0.46232375441342827    0.4002826511576455    
  0.22471145871135217    0.15531259237736306    0.22471161185931326    0.400282172596716    0.4623243993911338    
  0.3276532044951319    0.17808954777829183    0.0901110562159323    0.047726494874009    0.028470375992276864    
  0.01974296726344657    0.015680459034725428    0.013790219006033505    0.012933060214670819    0.0125841040126964    
  0.01245667046649707    0.012424679005954299    0.012496410146176714    0.01258401826127679    0.012865766664073908    
  0.013446066965893008    0.014544944003416703    0.01661512740966227    0.020628560783791522    0.02863587685931027    
  0.045331084120769694    0.08040400213009107    0.15083884766674238    0.2731527992776606    0.417825767946051    
  0.4701563003205961    0.4002826950546475    0.3515405746541717    0.4002822758076275    0.47015653172309124    
  0.4178251320883303    0.2731537169544407    0.15083815361702305    0.08040457402882106    0.04533060767574225    
  0.028636213961420683    0.02062828824514546    0.01661536868191784    0.0145447441633958    0.013446210268253886    
  0.012865652572577636    0.012584072796162818    0.012496410146176714    0.012766055594927167    0.012933196010210504    
  0.0134460721915845    0.014370708928850562    0.015851791443777418    0.01821667417065198    0.022184448682148077    
  0.02919945905899011    0.04246228985092411    0.06825042312327138    0.11699589260538777    0.200575195430763    
  0.31516917006567996    0.41782589155612043    0.46232364979511636    0.46756267089895254    0.46232381038555653    
  0.41782528458663354    0.3151696977939669    0.20057461786011743    0.11699641911351762    0.06824993318448239    
  0.04246267716209595    0.029199134707107322    0.02218476212152364    0.01821645880508831    0.015851972898226648    
  0.014370562668016808    0.013446164222176085    0.012933151822803387    0.012766055594927167    0.013540630256116336    
  0.013790043573583778    0.014544929914792904    0.01585177928565607    0.01778954831809451    0.020518979106806844    
  0.024435318831483286    0.030357654274535142    0.04008308925065111    0.05700669883062853    0.0863478387840436    
  0.1339565518211578    0.20057527183324309    0.27315275410685685    0.32765395917001955    0.34712640084956303    
  0.327653700798475    0.2731530682960835    0.20057476871523092    0.1339571610872626    0.08634731442865985    
  0.05700717727629366    0.04008267471458752    0.03035803355566777    0.024435013962117034    0.020519265804698834    
  0.01778933787225863    0.015851927304506328    0.014544829770935823    0.01379010426531951    0.013540630256116336    
  0.015376419148584012    0.015680688779699112    0.016615151225002674    0.01821669940555754    0.020519005529612572    
  0.023531640114189675    0.02730530299874858    0.03209087673432388    0.038585818902031443    0.04829493896956519    
  0.0634899822612924    0.08634787886744266    0.11699576160313113    0.15083903942578877    0.17808866079116784    
  0.18856514035928545    0.17808880336224203    0.15083864881478126    0.11699616114242371    0.08634744804132992    
  0.06349040510511278    0.04829448420579307    0.038586204347816525    0.032090505822278376    0.02730559308768153    
  0.02353135140704815    0.02051920749878338    0.018216516735623207    0.016615263105485514    0.015680654636832398    
  0.015376419148584012    0.019462244213410744    0.019742677519319737    0.020628588141742895    0.02218444241113063    
  0.024435342943446514    0.02730525615315093    0.030573519153432198    0.03404836868612    0.037744132813025306    
  0.04216185336993582    0.04829497723849559    0.057006556713500675    0.06825060064581329    0.08040383467002654    
  0.09011184263452691    0.09382868991675433    0.09011171519581877    0.080404045887427    0.06825026432610042    
  0.0570069655980027    0.0482945908402773    0.04216223771559994    0.03774372734306216    0.03404873862727813    
  0.030573197575070026    0.027305573490858836    0.02443508082471473    0.022184621994516734    0.020628447824745714    
  0.01974273838933844    0.019462244213410744    0.028457385290756837    0.02847072445882712    0.028635845524383866    
  0.029199496403036485    0.030357627305316888    0.032090907330563405    0.0340483317324847    0.03577677493293527    
  0.0369789047538076    0.03774417870997839    0.03858568432902645    0.04008323000734377    0.04246207699460592    
  0.04533128205110238    0.04772582633557889    0.04865768885605979    0.047725893725369624    0.04533108633714488    
  0.04246233513828873    0.04008296512851384    0.038586014038872345    0.03774380333849234    0.03697926394396463    
  0.03577640992970906    0.03404870441022037    0.03209058390891242    0.030357862450757927    0.02919930379107611    
  0.028636008811211113    0.028470659046420627    0.028457385290756837    0.04865749413223261    0.04772599750052074    
  0.04533111816125129    0.04246221461980497    0.040083134094639795    0.03858573785715261    0.03774415797199709    
  0.03697885659081604    0.03577687513249766    0.03404822512764811    0.032091047893309806    0.030357429707540497    
  0.029199691457778655    0.02863564231846651    0.028470976599173727    0.02845716269801437    0.02847087055573966    
  0.02863577965398771    0.02919948237607138    0.030357712471832946    0.03209070878473751    0.03404859150244855    
  0.035776446292262835    0.03697927575206481    0.037743796110630376    0.03858609483062786    0.040082820062581175    
  0.04246245825209788    0.045330957954345226    0.047726094570461175    0.04865749413223261    0.09382883253230266    
  0.09011171062309069    0.08040388145953214    0.06825051355819069    0.057006580909777366    0.04829499105101656    
  0.042161771898251724    0.03774422238043369    0.034048218650557786    0.03057371759029628    0.027305040351147065    
  0.02443555286277619    0.022184183988180735    0.02062882253074759    0.019742436907308064    0.019462490038980245    
  0.019742506717491427    0.020628696970596612    0.022184371103452664    0.024435339390694828    0.02730535244036356    
  0.030573359093044792    0.03404858196215356    0.03774386004189701    0.04216217748834872    0.04829460407874528    
  0.05700690306682339    0.06825024381889931    0.0804041474106039    0.09011166196969946    0.09382883253230266    
  0.18856518369571343    0.17808861581702273    0.15083909737743248    0.11699570761495484    0.08634801307039251    
  0.06348984249924303    0.04829511801644529    0.03858557691494029    0.0320911227308225    0.027305047799183926    
  0.023531895615831133    0.02051872257258576    0.018216984033345623    0.016614878514940024    0.015680985389067797    
  0.01537614053031912    0.015680926486098045    0.016614949798691957    0.018216827438973793    0.02051894547865236    
  0.023531602762150296    0.02730534047112026    0.032090747242902104    0.038585994929660195    0.04829467444056408    
  0.06349028520728182    0.08634756221340525    0.11699609111395128    0.15083883921512106    0.17808887178747915    
  0.18856518369571343    0.34712628917815563    0.32765416743505854    0.2731524582166624    0.20057555424875784    
  0.13395629123042932    0.08634807889381999    0.057006396669760255    0.04008337255835107    0.030357357063609543    
  0.024435636517618226    0.020518688851490333    0.01778984866397991    0.015851464726849875    0.014545254421842168    
  0.013789737241642756    0.013540939489121034    0.013789787010470322    0.014545147022137562    0.01585161779498705    
  0.01778965718544265    0.02051895432725227    0.024435297900729236    0.03035770722971969    0.04008297637082885    
  0.05700685872830338    0.08634760496572993    0.1339567702287062    0.2005750872508006    0.2731529451934161    
  0.32765401955907053    0.34712628917815563    0.4675631116933057    0.4623230209696495    0.4178263849943168    
  0.3151686081017427    0.20057571280263126    0.11699544939706888    0.06825082066747554    0.04246190033983799    
  0.02919983225284178    0.022184123222949364    0.018217021821955524    0.015851437385393175    0.014371048525383682    
  0.013445730604198704    0.012933534139955386    0.012765714097435132    0.012933482361325101    0.013445813016505024    
  0.014370918540603551    0.015851636124345474    0.018216773508643733    0.022184403031825662    0.029199442813992466    
  0.042462345433560686    0.06825035379269345    0.11699604226599328    0.20057503519695172    0.315169249491672    
  0.41782592698027016    0.46232337058374534    0.4675631116933057    0.3515398465934842    0.40028320763663255    
  0.4701553724144486    0.4178264930112598    0.273152135598175    0.15083943013577394    0.0804034653152749    
  0.045331487704077494    0.028635499498306745    0.020628943396507646    0.016614785096364954    0.014545279250238229    
  0.013445700925203362    0.012866109008685315    0.012583658611372762    0.012496778602069544    0.01258368874925988    
  0.01286599703782292    0.013445847350917835    0.014545102427572605    0.01661499764221958    0.020628638885056574    
  0.028635832201320953    0.045331078408017644    0.08040401980312825    0.15083883196098546    0.27315292294003224    
  0.4178258376080558    0.4701560545660202    0.40028307182451317    0.3515398465934842    0.1553131176957019    
  0.2247108253707748    0.400283392264946    0.46232287489258717    0.32765462472007767    0.17808809804197942    
  0.09011219464976418    0.047725543692887715    0.028471145913861982    0.01974231741395114    0.015681057049947513    
  0.013789667929085269    0.012933571385384963    0.012583644489808633    0.012457087518782793    0.012424290117238567    
  0.012457035615261916    0.01258372388225384    0.012933445854202053    0.013789862890580554    0.015680841967370192    
  0.019742586272139685    0.028470798901582238    0.04772604036720047    0.09011164481631044    0.17808886194676335    
  0.32765386015142894    0.46232346068472085    0.4002829021691842    0.22471110496283012    0.1553131176957019    
  0.09211026110454557    0.15531319421972994    0.3515396694989416    0.46756363697250247    0.347125617575635    
  0.18856575175649526    0.0938283082437771    0.04865797699396772    0.028456955752102685    0.019462662889443823    
  0.015376037536892397    0.013541025360153041    0.012765663389301789    0.012496823046832198    0.01242429913643026    
  0.012407952083463807    0.01242433202214845    0.012496715490692457    0.012765814023615969    0.013540837790111438    
  0.015376254752393858    0.01946236643176158    0.028457327997817142    0.04865756527473433    0.0938288822404536    
  0.18856505032570775    0.34712642766263185    0.4675628712669914    0.3515402495524355    0.15531304448082553    
  0.09211026110454557    0.15531313954505113    0.22471082525166236    0.40028338014609205    0.46232290141394883    
  0.32765471761864906    0.17808810903523256    0.09011223903541982    0.047725558727256666    0.0284711444513103    
  0.019742325931771842    0.015681066590200236    0.013789676855851012    0.012933571506110266    0.01258364015533311    
  0.01245709466768586    0.01242428696304692    0.012457033499535046    0.01258371419380669    0.012933451869378181    
  0.013789856742640858    0.01568084316183796    0.0197425729597696    0.028470817272720068    0.04772603725952135    
  0.09011165319456403    0.17808880495765253    0.3276538030202152    0.46232348554344405    0.40028303915292013    
  0.2247110587438882    0.15531313954505113    0.2247110115323637    0.2937582982435162    0.4394557673641196    
  0.4564758904724894    0.3144596010844964    0.17339667270015605    0.09061655197925983    0.049894206962282805    
  0.030820042105860982    0.021819404072248104    0.017367512016898293    0.015063836729740878    0.013815529872600341    
  0.013125915690711863    0.012717095114410128    0.012457051848048217    0.012308435471782403    0.012284908029482426    
  0.012487484767395883    0.0131621199006901    0.014813260439739294    0.01850485058579811    0.026527536266317396    
  0.0442689811178337    0.08324302517323152    0.16402312780974634    0.3038900795603469    0.44706490296922496    
  0.4334896856955954    0.2914667584864985    0.2247110115323637    0.40028304817475874    0.4394558609165916    
  0.47983149645137285    0.4088708024710859    0.268235378753847    0.15333313964614703    0.08606047574536134    
  0.05137102432261071    0.03402618994836854    0.02509527849227836    0.020132438912084164    0.01715095831034006    
  0.015233805427053014    0.013966315087690187    0.013125872591925195    0.012583698079849954    0.012284909464002323    
  0.012197976400526046    0.01238751217630065    0.013040154299004472    0.014579216275969894    0.01789992512450439    
  0.024868571111876434    0.03975312001845134    0.07141174740050527    0.13545021707231159    0.2483009019538467    
  0.3902261284115298    0.4666478881299806    0.4334894491858557    0.40028304817475874    0.46232343964908507    
  0.4564753024762294    0.4088709780456241    0.3108501223517917    0.2048132060626077    0.1267239384390796    
  0.07958414615320711    0.05328160645090595    0.038654507391753926    0.029969395137941838    0.02425444151344894    
  0.020234184820733796    0.01731691270909328    0.015233757827956863    0.013815619011470819    0.01293345801316337    
  0.012487448405963612    0.012387519119673434    0.012640499049384472    0.013365271963839987    0.014861928807904233    
  0.017798320010211435    0.023524741104768584    0.03494124472626307    0.0577931952279377    0.10179221354749225    
  0.17827940317620616    0.2860004951315579    0.39022626679972966    0.44706484977647987    0.46232343964908507    
  0.3276538059469495    0.3144601410693802    0.26823490145410406    0.2048133717978274    0.14551496474554634    
  0.1019954301115346    0.07391648916914392    0.05640477116449313    0.04496411901214669    0.03659102334025774    
  0.029880515472433526    0.0244546789108975    0.020234134148765587    0.01715107827721398    0.01506372300491163    
  0.013789832290284807    0.013162122642468368    0.013040150172423801    0.013365277588126166    0.014175795139669064    
  0.015633502474336945    0.018159315443532813    0.02261178361832112    0.0306645647842075    0.04546504135045195    
  0.07199163320812772    0.11584086414083171    0.17827945202718    0.24830081380354035    0.30389017442786037    
  0.3276538059469495    0.17808898032122372    0.1733959523918721    0.15333364592155171    0.12672361347999797    
  0.101995613981163    0.08318409505542115    0.07010807469468402    0.06061384865029846    0.05250602104305469    
  0.04458875254948391    0.0368431262271443    0.02988044413876078    0.024254556852224718    0.02013231408717215    
  0.017367697560202996    0.01568086554278969    0.014813237519197392    0.014579221041434285    0.014861937665964149    
  0.015633494960611265    0.01694827258642238    0.018988474146426938    0.022197530808543316    0.02737140175061378    
  0.03596562020413769    0.05014204235301815    0.07199164936288642    0.10179210204785591    0.13545045555316024    
  0.16402298014512962    0.17808898032122372    0.0901114800108719    0.09061718614482599    0.08605994895423939    
  0.07958453164587212    0.0739162195561364    0.07010816321797674    0.06758948812232046    0.06468237685337709    
  0.05985642457846673    0.05283592100550426    0.0445886919487778    0.036591113999432476    0.029969261443306684    
  0.025095454214770423    0.021819186346794063    0.01974256216202672    0.018504877270333814    0.01789994781379897    
  0.017798326298301328    0.01815933614711314    0.018988469817301942    0.020302158397954666    0.022243288948408286    
  0.02509322662321216    0.029393300148023466    0.035965638268756324    0.045464920184349764    0.057793359904550694    
  0.07141157542910057    0.08324321977926116    0.0901114800108719    0.04772623422001662    0.04989358809291602    
  0.051371547403576474    0.05328120445730627    0.05640510425016467    0.0606136409779975    0.06468250499072173    
  0.06663929878439623    0.06502874246926729    0.05985636341326682    0.052506149776823226    0.044963923231349005    
  0.0386546812634576    0.03402592871409953    0.030820340924212163    0.028470800389028567    0.02652754545045556    
  0.024868550626455065    0.023524774786816492    0.022611764141840834    0.022197532430760183    0.02224328352753198    
  0.022720660458790162    0.023629606194385082    0.02509328477211608    0.027371308391437595    0.03066472675954104    
  0.03494105774836651    0.0397533343449425    0.044268742012464925    0.04772623422001662    0.028470579919238688    
  0.030820561266494944    0.03402567681346437    0.03865490670935563    0.04496375404613165    0.052506320931612456    
  0.05985620600639337    0.06502880143450564    0.06663931154543973    0.06468247633228533    0.06061368821951724    