#     DFTpy    
  CRYSTAL 
    
  PRIMVEC    
  3.6227586206896545    0.0    0.0    
  0.0    3.6227586206896545    0.0    
  0.0    0.0    3.6227586206896545    
  PRIMCOORD    
  2    1    
  Si    0.0    0.0    0.0    
  Si    1.8113793103448272    1.8113793103448272    1.8113793103448272    
  BEGIN_BLOCK_DATAGRID_3D    
  3d_datagrid_density    
  BEGIN_DATAGRID_3D#0    
  17    17    17    
  0.0    0.0    0.0    
  3.6227586206896545    0.0    0.0    
  0.0    3.6227586206896545    0.0    
  0.0    0.0    3.6227586206896545    
  0.06849314767367641    0.11627099858932091    0.2741595642292145    0.39794806235911845    0.333216093531024    
  0.2103663020938476    0.1277900049569627    0.087691163946269    0.07612311815839229    0.08769117629392477    
  0.12778998534093594    0.21036630504683762    0.3332160760013418    0.39794812706121363    0.274159613736788    
  0.116270962309177    0.06849314767367641    0.11627102272207736    0.17015717535775265    0.3174642842256924    
  0.40014243377437997    0.318947645464593    0.20097321227843995    0.12376536703312206    0.0861704040511158    
  0.07525090347118647    0.08617039524002672    0.12376536784594563    0.2009731410212192    0.31894756377880107    
  0.40014258653048745    0.3174642799001604    0.17015719922264413    0.11627102272207736    0.27415957775720795    
  0.31746423607434454    0.3927102029553522    0.3795353495306948    0.2772995976296105    0.176588206045885    
  0.11350523017140558    0.08233678793863042    0.07313698211281318    0.08233680473699968    0.11350528078009892    
  0.17658823310156996    0.2772996051398451    0.37953524531852084    0.39271019532487567    0.3174641998495972    
  0.27415957775720795    0.39794811842469935    0.40014245370676244    0.3795353610418351    0.30890223405756584    
  0.21815633528673878    0.14568042171997858    0.10080790736304535    0.07798603276899063    0.07111573615084782    
  0.07798605970578175    0.1008078717175072    0.14568039180050738    0.21815632939394008    0.30890234103726694    
  0.37953534568317593    0.4001424365454682    0.39794811842469935    0.3332160442136363    0.3189475827491293    
  0.2772995945649363    0.21815631094423452    0.1603758515439197    0.11674997838880621    0.08917721478772633    
  0.0747391342640625    0.07034299547811786    0.0747391654786709    0.08917719648305593    0.11674996699898424    
  0.16037583620914359    0.21815636770358426    0.27729960066661397    0.3189475330465172    0.3332160442136363    
  0.21036636710299697    0.20097314879862094    0.17658824021026467    0.14568037636217004    0.11675001402470214    
  0.09481539562967316    0.08076387977647023    0.07336801995521182    0.07111574811823247    0.07336799791247724    
  0.08076386452230704    0.09481534419776531    0.11675001000322863    0.14568046736003304    0.17658820872503306    
  0.2009731885586425    0.21036636710299697    0.12778997143869472    0.12376530534141861    0.1135052850019416    
  0.10080788207764632    0.08917724525377563    0.08076385400099713    0.07594846461504458    0.0737539515055463    
  0.07313697770685292    0.07375395221634058    0.07594847081054464    0.08076387707319356    0.08917723698637159    
  0.10080787658036595    0.11350527353068858    0.12376531472775454    0.12778997143869472    0.08769118985826217    
  0.08617040810242253    0.08233681800691135    0.07798605462404043    0.0747391608767492    0.07336802964658105    
  0.0737539835173343    0.07478222274656779    0.07525089770546285    0.07478224550313362    0.07375396612625483    
  0.07336800901435259    0.07473917519339147    0.07798607159983645    0.08233681593740438    0.08617041301228967    
  0.08769118985826217    0.07612311873630677    0.07525087774797254    0.07313697743475839    0.07111570555799579    
  0.07034300005032293    0.07111573538735927    0.07313698082163093    0.07525085561481373    0.07612312266773967    
  0.07525088686322971    0.07313695609530196    0.07111573092072547    0.07034300409091902    0.07111571083625651    
  0.07313697862570265    0.07525086924893273    0.07612311873630677    0.08769119679781076    0.08617040261127132    
  0.08233681974414885    0.0779860382613367    0.0747391577448363    0.07336804713855413    0.07375399312382751    
  0.0747822391297902    0.07525091919921913    0.0747822400720748    0.07375397964770944    0.0733679989703827    
  0.0747391905907464    0.07798608167558153    0.08233681827770792    0.08617041563597659    0.08769119679781076    
  0.12778999530329352    0.12376534501127154    0.11350526973389986    0.10080791275308583    0.08917722783887448    
  0.0807638585504904    0.07594844366357993    0.07375394802399006    0.07313697290257888    0.07375397859225463    
  0.07594845873489792    0.0807638762468334    0.08917722238080471    0.10080788891764476    0.11350524093475006    
  0.12376532814909454    0.12778999530329352    0.2103663193514131    0.20097318698650435    0.1765882050463741    
  0.14568040011302455    0.11674998808143158    0.0948153905875767    0.08076388184039097    0.07336799042596705    
  0.07111575239492768    0.07336801184976334    0.08076387380854576    0.09481532981995898    0.11674998543388257    
  0.14568043571961223    0.176588253232462    0.20097314817995507    0.2103663193514131    0.33321607831905137    
  0.31894760494546587    0.27729955862513017    0.21815630698700167    0.16037584474968974    0.11675000789659716    
  0.08917722518437278    0.07473914027483691    0.0703429845961474    0.07473915445659392    0.08917720629565694    
  0.11674995239064734    0.16037585978947946    0.21815634881911578    0.2772995944442805    0.31894751672316335    
  0.33321607831905137    0.3979480970796389    0.40014245413076394    0.3795353211428308    0.30890224928042953    
  0.21815638693965037    0.14568047038802717    0.10080789839634813    0.07798605679820891    0.07111576131512296    
  0.07798603370034334    0.10080789912172597    0.14568037362317593    0.2181563874477136    0.30890235350779155    
  0.37953533169206594    0.4001424692249495    0.3979480970796389    0.27415959060458633    0.3174642028694768    
  0.39271021371142    0.37953530056331425    0.2772996312377677    0.176588208487225    0.11350526732357309    
  0.0823367781392362    0.07313696753953013    0.08233677974888844    0.11350527206135715    0.17658819890603866    
  0.277299625529499    0.37953527837958256    0.3927102042782191    0.31746421102845723    0.27415959060458633    
  0.11627099920690591    0.17015719160980247    0.31746427203451943    0.4001424421083058    0.31894759641721127    
  0.2009731985617029    0.12376536505992748    0.0861704028244192    0.07525091125766752    0.08617040461223305    
  0.12376536401324685    0.200973162824514    0.318947610545193    0.4001425108531144    0.3174642594449205    
  0.17015716322373875    0.11627099920690591    0.06849314767367641    0.11627099858932091    0.2741595642292145    
  0.39794806235911845    0.333216093531024    0.2103663020938476    0.1277900049569627    0.087691163946269    
  0.07612311815839229    0.08769117629392477    0.12778998534093594    0.21036630504683762    0.3332160760013418    
  0.39794812706121363    0.274159613736788    0.116270962309177    0.06849314767367641    0.11627101563161571    
  0.17015722662895627    0.3174643096698241    0.4001424786139478    0.31894763573383483    0.20097317287203145    
  0.1237653895672563    0.08617040313461806    0.07525089779398676    0.08617041617951743    0.12376536548256245    
  0.20097318137038298    0.318947619083385    0.40014250161218134    0.3174642844077977    0.1701571549964619    
  0.11627101563161571    0.1701572358780784    0.2245873780175367    0.35181133787482316    0.3972553373810105    
  0.3051563898180636    0.19261745215630868    0.1203921735050883    0.08509339806899124    0.07478228111776963    
  0.08509339113289142    0.12039217967238264    0.1926174075412664    0.3051563646147204    0.39725543663202506    
  0.35181136582161054    0.2245873824700526    0.1701572358780784    0.3174642824772113    0.3518112686027541    
  0.4013565320116008    0.3682431187417446    0.26567474108124417    0.17083674922947584    0.11179154829967825    
  0.08245788522033959    0.07375399497522325    0.08245790075035213    0.11179157331270993    0.17083676645362533    
  0.2656746988313289    0.3682430167811667    0.4013565623554822    0.35181127395896816    0.3174642824772113    
  0.4001425286469699    0.3972554135259292    0.3682431153906697    0.2965322738174457    0.210796539142757    
  0.14325329504901405    0.10130795742149985    0.07985150365542408    0.07336803589429171    0.0798515217241825    
  0.10130793346424109    0.1432532636724156    0.210796539116575    0.2965323776657493    0.36824309638613406    
  0.3972553748500716    0.4001425286469699    0.3189476515300234    0.30515635995747314    0.2656746865544652    
  0.21079653635675835    0.15771884141708226    0.11762548977454813    0.09216137494381883    0.07880215446007169    
  0.07473918266484496    0.07880216295380595    0.09216135704232783    0.11762547114027186    0.15771883933425898    
  0.2107965552513899    0.26567468187082827    0.30515629720837273    0.3189476515300234    0.2009732286339945    
  0.19261741606538235    0.1708367370959181    0.14325324845247617    0.11762554169726964    0.09835943158913626    
  0.08614435021223905    0.07985151451498707    0.0779861111682412    0.07985151217170071    0.08614432595297547    
  0.09835937458469841    0.11762552146025324    0.1432533051154757    0.17083675490653094    0.19261742949686816    
  0.2009732286339945    0.1237653567133095    0.12039214078833675    0.11179158016835485    0.10130794570795043    
  0.09216139371265586    0.08614429981665436    0.08330389300121038    0.08245787446951189    0.08233681818383322    
  0.08245788595349335    0.08330387656541544    0.0861443289020914    0.09216138781592105    0.10130792445840832    
  0.11179156691674257    0.12039213839668582    0.1237653567133095    0.08617044109834043    0.08509341210988504    
  0.08245790553500489    0.07985150680133014    0.0788021597494224    0.07985153469689776    0.0824579295271202    
  0.0850934010208744    0.0861704303010618    0.08509340656561017    0.08245789625504213    0.0798515223798575    
  0.0788021669690963    0.07985154767199759    0.08245790999791246    0.08509341910004746    0.08617044109834043    
  0.07525089809035035    0.0747822488710578    0.07375398787636393    0.0733680116102883    0.07473916830708327    
  0.0779860798613354    0.08233681422799825    0.08617038355863856    0.08769120831471856    0.08617044130258499    
  0.08233682389603704    0.07798605315448368    0.07473918829569837    0.07336800049438229    0.07375399359896041    
  0.07478223875624879    0.07525089809035035    0.08617044484501747    0.08509339886673974    0.08245791819670627    
  0.07985150112404049    0.0788021783398583    0.07985153188266389    0.0824579306137337    0.08509339227589026    
  0.08617045931905383    0.0850934155120736    0.08245791797005594    0.07985150803786714    0.07880217502733962    
  0.07985154293375193    0.08245791276317495    0.08509340897007181    0.08617044484501747    0.12376538090444883    
  0.12039215532328927    0.11179157178520727    0.1013079542890781    0.09216137400002239    0.08614428022045152    
  0.08330387983192507    0.0824578939804518    0.08233682724859992    0.08245790160805637    0.08330388998011184    
  0.08614432441238248    0.09216139552315175    0.101307942717962    0.11179155542803577    0.1203921339203194    
  0.12376538090444883    0.20097320009913916    0.19261744771814476    0.1708367524654    0.14325325932026897    
  0.11762550868376669    0.09835941476594269    0.08614433790543488    0.07985150674243327    0.0779860982374013    
  0.07985151586787415    0.08614432595978204    0.09835935312116109    0.11762550489266838    0.14325331101381256    
  0.1708367770630497    0.19261742398987697    0.20097320009913916    0.3189476529459911    0.3051563688685647    
  0.26567469152579776    0.2107965088686801    0.1577188499100662    0.11762551384581961    0.0921613604659831    
  0.0788021449217193    0.07473918846993789    0.0788021711939957    0.09216135409895194    0.11762549568115838    
  0.1577188455245484    0.21079654450301596    0.265674697735759    0.30515629730144783    0.3189476529459911    
  0.4001425723550906    0.39725540897374756    0.3682431292818065    0.2965322979476652    0.21079657816408218    
  0.14325330614477427    0.10130795739031248    0.07985151095215542    0.0733680452752675    0.07985150155489384    
  0.10130793435513064    0.14325324242731988    0.2107966091573757    0.2965324168363702    0.36824316647452915    
  0.3972553926253109    0.4001425723550906    0.3174642754986262    0.35181122749756544    0.40135656289869526    
  0.3682430692183122    0.26567473900605654    0.17083672406311495    0.11179156609870083    0.08245788252284454    
  0.07375397812146879    0.08245789812469856    0.1117915726234093    0.1708367511426364    0.2656747276609954    
  0.3682430633840051    0.4013565732408935    0.3518112409533575    0.3174642754986262    0.1701571977680782    
  0.22458737753787195    0.351811325801036    0.397255386260701    0.3051563550168321    0.19261747554041758    
  0.12039217412048063    0.08509340637168981    0.0747822875457701    0.08509340986979094    0.12039216136370492    
  0.1926174156047102    0.3051563716793149    0.39725540294263795    0.351811328557935    0.22458737322155298    
  0.1701571977680782    0.11627101563161571    0.17015722662895627    0.3174643096698241    0.4001424786139478    
  0.31894763573383483    0.20097317287203145    0.1237653895672563    0.08617040313461806    0.07525089779398676    
  0.08617041617951743    0.12376536548256245    0.20097318137038298    0.318947619083385    0.40014250161218134    
  0.3174642844077977    0.1701571549964619    0.11627101563161571    0.27415960174476905    0.317464261820365    
  0.39271017459576396    0.37953528485452165    0.27729964685393454    0.17658819841755183    0.11350527859757462    
  0.08233679002603014    0.07313697997861228    0.08233681202044145    0.1135052680946405    0.17658820880295042    
  0.2772996167800804    0.37953531942357377    0.3927101847651021    0.3174641837540705    0.27415960174476905    
  0.3174643270626801    0.35181128309653986    0.401356532123193    0.36824302410598286    0.26567474108786926    
  0.17083676869421044    0.11179157943540084    0.08245788639930018    0.07375399531348865    0.08245787613399104    
  0.1117915785931066    0.17083671098337985    0.26567468254248294    0.3682431814513675    0.40135652803664645    
  0.3518112656674786    0.3174643270626801    0.3927101621764956    0.40135649238900584    0.3933792733069107    
  0.32818954684431195    0.233829996828006    0.1559972823397657    0.10774008971846857    0.08330386126998539    
  0.0759484549401994    0.08330386697435285    0.10774013271169505    0.1559973073156689    0.2338299927747667    
  0.3281894777222552    0.3933792624993262    0.40135644240855134    0.3927101621764956    0.37953535000930505    
  0.3682430710635563    0.3281895305896877    0.26155575879469134    0.1915288872401409    0.1376533555318127    
  0.10377979309534856    0.08614428581727607    0.08076390060377124    0.08614430901346155    0.10377975092640787    
  0.13765333227402338    0.19152890765859273    0.2615558429093878    0.3281895628396258    0.36824308075151524    
  0.37953535000930505    0.27729958701008145    0.2656746619958185    0.23383000613411054    0.19152887941027716    
  0.15151853352825256    0.1213630912110213    0.10215161669714752    0.09216135377031585    0.08917724506948178    
  0.09216136924227994    0.10215160386749406    0.12136309522495944    0.1515185136513244    0.19152891005068792    
  0.2338299932918506    0.26567466882235713    0.27729958701008145    0.1765882611183718    0.17083671253894556    
  0.15599733208976096    0.13765333048760106    0.12136313781007944    0.11003403280632096    0.10377979730046549    
  0.10130792564679401    0.10080791544083767    0.10130793089858496    0.10377976453062805    0.11003396480651503    
  0.12136311961037725    0.13765338548468442    0.15599732631931837    0.1708367517672437    0.1765882611183718    
  0.11350525410636142    0.1117915165217936    0.10774013158272468    0.10377977983333206    0.10215163491611712    
  0.1037797474693957    0.10774010659283739    0.11179151999203221    0.11350526980835525    0.11179154047732777    
  0.10774010143439633    0.10377977685284279    0.10215162568910569    0.10377977665979686    0.10774009732443617    
  0.1117915297408301    0.11350525410636142    0.08233682594706261    0.082457886750452    0.08330388422164545    
  0.08614429552296686    0.09216136375752758    0.10130796035849139    0.11179155806549845    0.12039211216635765    
  0.12376536401273697    0.12039217345108118    0.11179155319878996    0.10130793925304428    0.0921613663788154    
  0.0861443236840494    0.08330387388256932    0.0824578954566821    0.08233682594706261    0.07313698145455066    
  0.07375397154300757    0.0759484535108068    0.08076385982141163    0.08917722335629776    0.10080789631331162    
  0.11350525172544118    0.12376530197841265    0.12779001231075163    0.12376535880054952    0.1135052516084041    
  0.10080788445060854    0.0891772411610081    0.08076385677227754    0.0759484469424427    0.07375395735134067    
  0.07313698145455066    0.08233682582760213    0.08245787736317742    0.08330388716402759    0.08614428594162708    
  0.09216135385450994    0.10130796334909213    0.11179157009997079    0.12039211788018594    0.12376540393401676    
  0.12039214541680146    0.11179157129892034    0.10130790735866749    0.09216139928600396    0.08614432977179909    
  0.08330388783271069    0.08245789162779979    0.08233682582760213    0.11350527208000923    0.11179155010434859    
  0.10774012786534387    0.10377978191215996    0.10215161184942137    0.10377976069417177    0.10774010496999942    
  0.11179152136895094    0.11350526928109694    0.11179154527015503    0.10774011439990056    0.10377979962038027    
  0.1021516208439873    0.10377976780757495    0.1077400861639846    0.11179154490944779    0.11350527208000923    
  0.17658823983186372    0.17083674839464277    0.15599727872807373    0.13765333705998134    0.12136312626359749    
  0.11003402529610276    0.10377982271356773    0.10130792215550616    0.1008079187155792    0.10130793365377164    
  0.10377978062016462    0.11003397183259948    0.12136310354549489    0.13765337339889033    0.15599731808832    
  0.17083670612044674    0.17658823983186372    0.2772996434056259    0.26567469308934893    0.23382999061861875    
  0.1915288649753649    0.15151851643273148    0.12136311708144912    0.10215161138028796    0.0921613501144484    
  0.0891772094056374    0.09216135354095698    0.10215159938557458    0.12136309517270487    0.1515185272884466    
  0.19152888185181918    0.23382998821915818    0.26567465673188007    0.2772996434056259    0.3795353649439915    
  0.36824307633351966    0.3281895222251175    0.26155574545648225    0.19152892044054215    0.13765339237475155    
  0.10377981680434323    0.08614430681245758    0.08076389957357949    0.0861442849099885    0.10377980323328943    
  0.1376533292494272    0.1915289404506778    0.26155585675213594    0.32818953688236835    0.3682430573602247    
  0.3795353649439915    0.39271016785556534    0.401356475519877    0.3933792355970007    0.32818946900784224    
  0.23383002230483793    0.15599729958932185    0.10774009721798257    0.08330385082819973    0.07594843792273119    
  0.08330385090997489    0.1077401257829794    0.1559972910490944    0.2338300129860074    0.32818945366667174    
  0.39337922482577437    0.401356475911113    0.39271016785556534    0.3174642771006614    0.35181130844794023    
  0.40135655479826277    0.36824306223377934    0.2656746898472658    0.17083676094444938    0.11179156173272957    
  0.08245788837588289    0.07375399366216771    0.08245788993767528    0.11179156763283747    0.17083672288630788    
  0.2656746947174277    0.3682431135573331    0.4013565341700016    0.35181123198145536    0.3174642771006614    
  0.27415960174476905    0.317464261820365    0.39271017459576396    0.37953528485452165    0.27729964685393454    
  0.17658819841755183    0.11350527859757462    0.08233679002603014    0.07313697997861228    0.08233681202044145    
  0.1135052680946405    0.17658820880295042    0.2772996167800804    0.37953531942357377    0.3927101847651021    
  0.3174641837540705    0.27415960174476905    0.39794813282827574    0.40014249960508486    0.37953536780164376    
  0.30890226025926787    0.21815638323107622    0.14568041665354708    0.10080791211215358    0.07798604210471348    
  0.07111572608236313    0.07798606332391703    0.10080789168983506    0.14568040272834953    0.218156399673596    
  0.3089023123124636    0.3795353511957924    0.4001423669897521    0.39794813282827574    0.40014253791500065    
  0.39725538290894447    0.36824307435095904    0.2965322697161913    0.21079657051678158    0.14325329159732514    
  0.10130795515282122    0.0798514976258403    0.07336804973705865    0.0798515039093848    0.10130796756555131    
  0.14325326444112693    0.2107965548540111    0.2965323391388197    0.3682431076982817    0.397255347815851    
  0.40014253791500065    0.3795353027853001    0.3682430600948995    0.32818953514749305    0.2615558098660651    
  0.1915289257443942    0.13765335114127356    0.10377975583372061    0.0861443082446566    0.0807638810781186    
  0.08614430203685179    0.10377977888449229    0.13765337442582395    0.19152890367107947    0.2615557464852052    
  0.3281894948900727    0.36824302650280155    0.3795353027853001    0.3089022959936605    0.29653231930922924    
  0.26155583756219336    0.21355364038246089    0.1672989523705755    0.13229634860942413    0.11003400854508834    
  0.09835937071066249    0.09481537624599641    0.09835939273600477    0.11003401321489016    0.1322963285876977    
  0.16729894115838553    0.21355373685287113    0.26155583133263766    0.2965322991860351    0.3089022959936605    
  0.21815636707615976    0.21079657704667837    0.19152890501617215    0.16729894418773564    0.145491887666874    
  0.13011023738175095    0.12136313203005007    0.11762548581208737    0.1167500264250121    0.117625503611428    
  0.12136311621672281    0.13011022166687086    0.14549187380787199    0.1672989873917005    0.19152890143180318    
  0.21079654264038605    0.21815636707615976    0.1456804529990023    0.14325325462671679    0.1376533598762049    
  0.1322963636213434    0.1301102866180519    0.13229640495360284    0.137653410470919    0.1432532587856794    
  0.1456804806943949    0.14325326982276004    0.13765336697516717    0.1322963405861232    0.13011027083008844    
  0.13229639216954206    0.13765338096312804    0.14325327267654223    0.1456804529990023    0.10080789246517811    
  0.10130792270398091    0.10377979520642201    0.11003400177150248    0.1213631420753615    0.13765334791815373    
  0.1559973285658237    0.17083671799881897    0.17658822559506152    0.17083672075653097    0.15599731045841572    
  0.13765337415802129    0.12136312940708405    0.11003398292326488    0.10377978533584915    0.10130792287732698    
  0.10080789246517811    0.07798609283601834    0.07985151182027919    0.08614432043938483    0.09835936255682112    
  0.1176255274144859    0.14325329013124471    0.1708368069893051    0.19261738767700126    0.20097322052715486    
  0.19261743023930383    0.17083675202839851    0.1432532691099459    0.11762550718978873    0.0983594137220157    
  0.08614431262001701    0.07985151083377967    0.07798609283601834    0.07111572693301581    0.07336801293558393    
  0.08076387335654249    0.09481534729877096    0.11675002142466187    0.14568043372337783    0.17658825217880378    
  0.20097310927712966    0.21036636663985014    0.20097320808639307    0.17658825426231478    0.14568040886234557    
  0.11675001955911114    0.0948153617008289    0.08076388780816787    0.07336799766295937    0.07111572693301581    
  0.0779860965261149    0.07985150112580225    0.08614434138111739    0.09835937006018383    0.11762550744834614    
  0.1432532753855063    0.1708367694969473    0.19261739156236285    0.2009732348859458    0.19261742162147677    
  0.1708367484398549    0.14325323832982864    0.11762552185430765    0.09835940800431364    0.08614432790934283    
  0.0798515012062823    0.0779860965261149    0.10080789355161747    0.10130792577396515    0.10377978029233403    
  0.11003401619324897    0.12136311535754837    0.137653324740806    0.1559972866292508    0.17083671139458156    
  0.17658821563020408    0.1708367499748329    0.15599731220760424    0.13765335904456724    0.12136314618808365    
  0.1100340041497564    0.10377974856718288    0.10130792500294339    0.10080789355161747    0.1456804153645014    
  0.1432532995470556    0.13765338610448863    0.13229632912694203    0.13011024819121628    0.13229640271640625    
  0.1376534097177672    0.1432532648090621    0.1456804252924353    0.14325327535821156    0.13765338843031047    
  0.13229632534966598    0.1301102559690603    0.13229637147267087    0.13765336826939473    0.14325325270651945    
  0.1456804153645014    0.21815638369251084    0.21079654908664472    0.19152890953721746    0.16729891532860178    
  0.14549187904082597    0.13011028191276    0.1213631082450178    0.11762549103603721    0.11674999623128182    
  0.11762552402991756    0.12136310960224074    0.1301102452986733    0.14549188695217208    0.1672989507717435    
  0.1915289167374507    0.21079651194026625    0.21815638369251084    0.30890235438249114    0.2965323166559379    
  0.26155584125942266    0.21355365459162393    0.1672989919708622    0.13229639171343158    0.11003403057013907    
  0.09835937068447768    0.0948153860057361    0.09835936169015799    0.11003400611081278    0.13229636214311183    
  0.16729900350778368    0.2135537558885611    0.2615558614689049    0.29653230003714703    0.30890235438249114    
  0.37953534413199946    0.3682430059790124    0.3281895589823374    0.2615557988850007    0.19152892996559387    
  0.13765333781761732    0.1037797902395645    0.08614430236415632    0.08076386908537089    0.08614431356297197    
  0.10377979012268344    0.13765335779364263    0.19152894421250752    0.2615557726607822    0.3281895523388755    
  0.3682430635308462    0.37953534413199946    0.40014252844153936    0.3972553964831876    0.36824312156189354    
  0.2965322986259977    0.21079654659489197    0.14325330672821174    0.1013079428364652    0.07985150291522489    
  0.07336804243339719    0.0798515147354118    0.10130794180571552    0.1432532443321565    0.21079657487914114    
  0.2965323445657875    0.36824315030125837    0.39725535306683324    0.40014252844153936    0.39794813282827574    
  0.40014249960508486    0.37953536780164376    0.30890226025926787    0.21815638323107622    0.14568041665354708    
  0.10080791211215358    0.07798604210471348    0.07111572608236313    0.07798606332391703    0.10080789168983506    
  0.14568040272834953    0.218156399673596    0.3089023123124636    0.3795353511957924    0.4001423669897521    
  0.39794813282827574    0.3332160682510089    0.31894759594879324    0.2772995770119122    0.2181563318725231    
  0.16037587695580877    0.11674997950965284    0.08917721791395221    0.0747391398465407    0.07034298882730211    
  0.0747391587053939    0.0891772180848237    0.11674999030787941    0.160375886873569    0.21815636275828082    
  0.27729961994844343    0.31894751677333355    0.3332160682510089    0.31894766456569634    0.30515635060740837    
  0.2656747166203306    0.21079651580534145    0.15771887486722483    0.1176255255551226    0.09216137097589575    
  0.07880214837878875    0.07473918429315662    0.07880214340261218    0.09216137172837163    0.11762548117639994    
  0.15771882548105337    0.2107966041725652    0.2656746806822536    0.3051563226272095    0.31894766456569634    
  0.2772995836339703    0.26567467163030256    0.23383002503671807    0.19152892610306396    0.1515185465437524    
  0.12136310183888528    0.10215158720636344    0.09216133623746428    0.08917722499850313    0.09216135523489612    
  0.10215162677484337    0.12136312857862078    0.1515185095548724    0.19152885515427673    0.23382997854545795    
  0.2656746252467424    0.2772995836339703    0.21815637965031281    0.21079655143681403    0.19152891006379522    
  0.16729890150119284    0.14549186423260596    0.13011026942835913    0.1213631414173639    0.11762547862403784    
  0.11675000575068098    0.11762550665065435    0.12136308496958276    0.1301102402573015    0.14549187012273226    
  0.1672989899606312    0.19152894041609214    0.21079652072000493    0.21815637965031281    0.16037586680051213    
  0.15771881187289963    0.15151853701399737    0.14549186963369923    0.14301082815882188    0.14549187325614857    
  0.1515185304442902    0.15771881275133337    0.16037588795887084    0.15771886713762465    0.15151852373399474    
  0.14549185899082487    0.14301080279576672    0.14549190841672616    0.15151853649245625    0.15771880452700573    
  0.16037586680051213    0.11675003225047863    0.11762547552952582    0.12136312209709355    0.1301102142777995    
  0.1454918990914501    0.1672989961979927    0.1915289170171656    0.21079653471315873    0.21815639007054471    
  0.21079653898979922    0.19152887804321012    0.16729892547676814    0.145491901563999    0.13011029688124193    
  0.12136312011812739    0.11762551265624666    0.11675003225047863    0.08917720902636027    0.09216132783146282    
  0.10215163131180759    0.1213631101892858    0.15151854081441724    0.19152886689510873    0.2338300007547626    