#     DFTpy    
  CRYSTAL 
    
  PRIMVEC    
  4.203413793103448    0.0    0.0    
  0.0    4.203413793103448    0.0    
  0.0    0.0    4.203413793103448    
  PRIMCOORD    
  4    1    
  Si    0.0    0.0    0.0    
  Si    0.0    2.101706896551724    2.101706896551724    
  Si    2.101706896551724    0.0    2.101706896551724    
  Si    2.101706896551724    2.101706896551724    0.0    
  BEGIN_BLOCK_DATAGRID_3D    
  3d_datagrid_density    
  BEGIN_DATAGRID_3D#0    
  19    19    19    
  0.0    0.0    0.0    
  4.203413793103448    0.0    0.0    
  0.0    4.203413793103448    0.0    
  0.0    0.0    4.203413793103448    
  0.062166608920327326    0.10979161829347722    0.26850133572207435    0.3872908067748504    0.3248666525852841    
  0.21520504596123952    0.14252180835559167    0.10500020251736944    0.08823577403098301    0.08360774605483953    
  0.08823577325631818    0.10500023511326828    0.14252182288979043    0.2152049848824805    0.3248665542593595    
  0.38729089295082453    0.2685013293147032    0.10979161691034836    0.062166608920327326    0.10979161352063564    
  0.16398810828561644    0.31109392159672355    0.38906022964456793    0.31310635697865885    0.20925430244110435    
  0.142247261717105    0.10773800814286869    0.09240733962862127    0.08823579318214018    0.0924073307928895    
  0.10773802198501627    0.14224727078067098    0.2092542542524666    0.31310649153074377    0.38906024163374986    
  0.31109392904947847    0.1639881133640713    0.10979161352063564    0.2685013050201961    0.3110939328027274    
  0.38328831326322815    0.37029034305143543    0.28009978268441754    0.19564208833386237    0.14435625927428158    
  0.11859606138668238    0.10773801168257446    0.10500021346269565    0.10773799227920093    0.11859610601398593    
  0.14435626872491739    0.19564206449448104    0.2800998197612553    0.37029022700655667    0.38328836974465896    
  0.31109389433385987    0.2685013050201961    0.38729075903041793    0.38906023613438956    0.37029023106608    
  0.30997331227594155    0.23733133021610542    0.1841149646232306    0.15552937811934664    0.1443561984886012    
  0.14224727886940983    0.14252177598890647    0.14224726298746349    0.14435623379540133    0.1555293711878167    
  0.18411495470882036    0.23733133697474193    0.3099733411004153    0.37029023053611043    0.3890602267496875    
  0.38729075903041793    0.3248665935572708    0.31310635206334503    0.2800998020891715    0.23733137558330805    
  0.20213290503937073    0.18433937645004625    0.18411495622199234    0.19564209678617167    0.20925424682948887    
  0.21520502327179183    0.20925425721144192    0.19564209828407703    0.18411494476432136    0.18433939685052025    
  0.20213296856942572    0.2373313504341097    0.28009983543408684    0.31310642325388555    0.3248665935572708    
  0.21520503172624372    0.20925425442591095    0.19564201901027506    0.1841149697969372    0.1843393824378728    
  0.20213293489035591    0.23733131583891742    0.28009978301429933    0.3131064386512269    0.3248665642864425    
  0.3131063834419081    0.28009987040623946    0.23733135416244344    0.20213291885351428    0.1843394374973628    
  0.1841149151402666    0.19564209562624754    0.20925424689002214    0.21520503172624372    0.14252181237001438    
  0.14224726551110856    0.14435622356644875    0.15552940190138648    0.1841149316723812    0.2373313798423219    
  0.3099733233062638    0.3702902341575097    0.38906016019639256    0.38729072992340846    0.38906025146727863    
  0.37029021191952755    0.30997329085838565    0.2373313793674791    0.18411492514430472    0.15552936274218235    
  0.144356198209847    0.14224729307047934    0.14252181237001438    0.105000258928121    0.10773799110280555    
  0.11859612703846327    0.14435624275217915    0.19564203358063165    0.28009983623214973    0.3702903139923692    
  0.3832883520974551    0.3110939762111482    0.2685013508499464    0.3110938641315779    0.3832884647693785    
  0.3702902461996518    0.2800998221288963    0.19564210809116947    0.14435625437082386    0.11859615364925574    
  0.10773802508221894    0.105000258928121    0.08823575918633521    0.09240729726421518    0.1077379914593716    
  0.14224727426619854    0.20925426077152268    0.3131064598090496    0.38906022851237176    0.311093814242127    
  0.16398813846289445    0.10979163817715384    0.1639880823756283    0.3110938645663519    0.3890601490206556    
  0.3131064145186458    0.209254307614753    0.14224725344646358    0.10773796967411761    0.09240732656082977    
  0.08823575918633521    0.08360774002386769    0.08823578565788336    0.10500024164139589    0.14252181834948402    
  0.2152050946860704    0.3248666013567522    0.38729096053610157    0.2685013010456619    0.10979161990852793    
  0.06216661549283572    0.109791636860214    0.2685012975962228    0.3872908295490555    0.32486663515106146    
  0.21520505968935008    0.14252185929347375    0.1050001860499138    0.08823582115943852    0.08360774002386769    
  0.08823577762984355    0.09240732885469456    0.10773799803046832    0.14224725537609223    0.20925427309849248    
  0.31310643590585263    0.38906020228874916    0.31109395289414693    0.16398817427614018    0.10979163903628189    
  0.16398813937242518    0.3110939313933118    0.38906021029187204    0.31310638696706355    0.20925428167139032    
  0.14224728692653346    0.1077380344851162    0.09240737959025191    0.08823577762984355    0.10500021251092499    
  0.10773799457245856    0.11859603623976298    0.1443562914915614    0.19564209374345032    0.28009983159403684    
  0.37029030849672906    0.3832883466060192    0.3110939408293244    0.26850131551340006    0.3110938768090651    
  0.38328842322229467    0.37029025926226417    0.2800997922329844    0.19564211145057137    0.14435624600459346    
  0.11859610110861721    0.1077379614369602    0.10500021251092499    0.14252180917298296    0.14224724379301174    
  0.14435623168128908    0.15552938270398045    0.18411498289318637    0.23733138300561996    0.3099733080069563    
  0.3702902181845167    0.3890601722842849    0.3872907887683899    0.38906024134158945    0.3702902460030736    
  0.30997327177023687    0.2373313984546857    0.18411493441278518    0.1555294147180544    0.1443562129948856    
  0.1422472949287333    0.14252180917298296    0.21520504664886522    0.2092542907192112    0.195642090032873    
  0.18411496689982523    0.18433937150498142    0.2021328976603933    0.23733140644186    0.2800997788936014    
  0.31310638930160467    0.32486666930698754    0.31310645994281466    0.2800998052691828    0.2373313631485463    
  0.20213294447398544    0.18433941096754858    0.18411494688930427    0.19564205924692996    0.20925426998914118    
  0.21520504664886522    0.3248666111869059    0.31310632975181524    0.280099806362076    0.23733138327946468    
  0.20213291769047612    0.18433939281751785    0.1841149418302061    0.19564202297662503    0.20925423180131597    
  0.21520495770584824    0.20925426588886076    0.19564208388896595    0.18411495230778413    0.18433938169177266    
  0.20213294951914887    0.23733131435087454    0.2800997509535472    0.3131063314603305    0.3248666111869059    
  0.38729079917935233    0.3890601524187952    0.37029027951650134    0.3099733017848343    0.2373313425885927    
  0.18411498305288584    0.15552940687463754    0.14435623779519866    0.14224730783654663    0.142521775081656    
  0.14224726145694921    0.14435621533968576    0.1555293731275455    0.1841149709134787    0.23733135657309865    
  0.30997333183324477    0.3702902387457794    0.38906025176437803    0.38729079917935233    0.26850139364912745    
  0.31109389054685715    0.38328839122828745    0.37029032485106145    0.2800997352305594    0.1956420853735497    
  0.1443562640325485    0.11859607949258277    0.10773803210805086    0.10500023111854727    0.10773803391849456    
  0.11859607856547817    0.14435624551776677    0.19564207665495661    0.2800998366692286    0.37029025415412653    
  0.3832884362392175    0.31109389854987907    0.26850139364912745    0.10979163583311682    0.163988121354247    
  0.31109386704907727    0.38906019597478375    0.313106391574733    0.2092542327332909    0.14224722749472832    
  0.1077379803665301    0.09240735428631947    0.08823576444273101    0.09240732087946953    0.10773800274859308    
  0.14224728124092556    0.20925423588481595    0.3131064340109043    0.38906019656614416    0.31109386036139264    
  0.16398809334808115    0.10979163583311682    0.062166608920327326    0.10979161829347722    0.26850133572207435    
  0.3872908067748504    0.3248666525852841    0.21520504596123952    0.14252180835559167    0.10500020251736944    
  0.08823577403098301    0.08360774605483953    0.08823577325631818    0.10500023511326828    0.14252182288979043    
  0.2152049848824805    0.3248665542593595    0.38729089295082453    0.2685013293147032    0.10979161691034836    
  0.062166608920327326    0.10979160584281558    0.1639881538316655    0.31109393000098795    0.3890601304926279    
  0.31310643192139564    0.20925429051678485    0.14224726125581522    0.10773802187462427    0.09240732087485908    
  0.088235777752189    0.09240733839245452    0.10773801391785462    0.14224726436199867    0.20925429638805562    
  0.3131063958192492    0.38906026819954476    0.3110938004784776    0.1639881489117048    0.10979160584281558    
  0.16398812372499166    0.21861883915352318    0.34420420218088854    0.38567293200327885    0.3011609614695019    
  0.20343708541075425    0.14169480181169206    0.1100277385487411    0.09611916335292828    0.09240734230097043    
  0.09611918487238172    0.11002777876846213    0.14169480085136138    0.20343706906503228    0.30116102121538524    
  0.385673024214094    0.3442041911440888    0.2186189192984904    0.16398812372499166    0.3110938791247642    
  0.34420417595559993    0.39017584477632855    0.35817968865042943    0.26835020715598035    0.1898808840536801    
  0.14284802134044167    0.11952002744295274    0.1100277120721078    0.10773801569637395    0.11002775161572145    
  0.11952000363398756    0.14284800728719832    0.18988084791191634    0.2683501980712863    0.35817972979209367    
  0.39017586678525823    0.3442041450547136    0.3110938791247642    0.38906012547736774    0.38567288569255403    
  0.3581796634104532    0.2958183838499739    0.22699102624863385    0.1780483766291952    0.15229155051955856    
  0.14284799454415117    0.1416948098960456    0.142247239865849    0.14169480122295894    0.142847975124588    
  0.15229156153588252    0.17804837678547483    0.22699102122576764    0.29581828246154374    0.35817969033420854    
  0.38567296718008226    0.38906012547736774    0.3131064356736979    0.3011609924753354    0.26835025251266875    
  0.22699107684988754    0.19373814790371385    0.17746536229395604    0.1780483821657925    0.18988082158768965    
  0.20343708721207193    0.20925425445988355    0.20343708363451163    0.1898808674975093    0.17804836429337006    
  0.1774653916653409    0.19373822346654593    0.22699101665457544    0.2683502471571333    0.30116096310263063    
  0.3131064356736979    0.20925426252546736    0.2034370436620012    0.18988082414312077    0.17804839426978397    
  0.17746534563685146    0.19373816128840962    0.22699102129718166    0.2683501863867444    0.30116110213477787    
  0.3131063759184999    0.30116103682446976    0.2683502225858275    0.2269910473850797    0.19373816651630132    
  0.1774654143190741    0.17804836690136022    0.18988085986603498    0.20343707384821744    0.20925426252546736    
  0.14224722742223114    0.14169476854198085    0.1428480074460634    0.15229156419643564    0.17804837317608987    
  0.2269910638766648    0.29581835589892974    0.358179596674946    0.38567298072242606    0.38906018654552726    
  0.3856730051864279    0.35817964592135737    0.2958182782944458    0.226991031607953    0.1780483498388511    
  0.15229153040727836    0.14284793320902267    0.14169484639302404    0.14224722742223114    0.10773801331209229    
  0.11002774664333614    0.11952005882571279    0.14284794722401167    0.1898808464943433    0.26835021198173886    
  0.3581796631579778    0.39017582926523825    0.34420421506167953    0.31109395782614896    0.3442041643480509    
  0.3901758322026463    0.3581797198764905    0.2683501819023156    0.18988083798131944    0.14284797732081322    
  0.1195200515646915    0.11002773346685855    0.10773801331209229    0.09240729752149529    0.0961191755610837    
  0.1100277284863832    0.14169480658338454    0.2034371184248319    0.3011610024453802    0.3856729054229214    
  0.34420410076841645    0.21861886911890613    0.16398815519011317    0.21861892172093492    0.3442041190276955    
  0.38567285470851    0.301161072570213    0.2034371040754207    0.1416948238416389    0.11002772894480603    
  0.09611916538200294    0.09240729752149529    0.08823576563630443    0.09240729767081757    0.10773803759907435    
  0.1422472662279842    0.20925425905299416    0.31310642340655376    0.3890602466469987    0.3110938658442655    
  0.16398812694538412    0.10979162571449529    0.16398818179245125    0.31109383721292705    0.38906015648188474    
  0.31310640527987454    0.20925426037033998    0.1422473033350484    0.10773799503717421    0.09240732907431327    
  0.08823576563630443    0.09240733009544862    0.09611915696840968    0.11002775645789924    0.14169484130594276    
  0.2034370515891912    0.30116101520870225    0.38567293654113594    0.34420415306496904    0.21861892085635024    
  0.16398812624150017    0.21861891757658847    0.3442041608738587    0.38567289833848195    0.3011609936597712    
  0.2034371390344342    0.14169478437055164    0.1100277640418931    0.09611917267792153    0.09240733009544862    
  0.10773797174772079    0.11002771103241547    0.11952003005436482    0.14284801704015315    0.18988084925587964    
  0.2683502454661305    0.3581797265373316    0.39017576793207553    0.344204231365332    0.31109391362923483    
  0.34420413274872463    0.39017582991099303    0.35817965093882215    0.26835015639797943    0.18988086532811843    
  0.1428480032473118    0.11952001384776646    0.11002771905367621    0.10773797174772079    0.14224725141516295    
  0.1416948119186469    0.14284798433795806    0.15229152153442205    0.17804840379617864    0.22699103765114112    
  0.29581834284368974    0.35817963954699084    0.3856729236589456    0.38906011755505593    0.38567298209213957    
  0.3581796830130192    0.2958182409079012    0.2269910684077518    0.17804835842127228    0.15229155750123038    
  0.1428480101728812    0.14169481800726574    0.14224725141516295    0.2092542809260886    0.20343709797979712    
  0.18988085399404647    0.1780483540445051    0.17746534754895094    0.19373814607468126    0.22699106968430183    
  0.2683501944950242    0.301161002446891    0.3131064397770728    0.30116098863271734    0.26835021945356524    
  0.22699105899049277    0.19373821163239457    0.1774654095734536    0.17804837787145136    0.18988088160199013    
  0.2034370827073609    0.2092542809260886    0.3131063838571379    0.30116100354927144    0.2683502123503849    
  0.22699103671622603    0.1937381792823244    0.17746535541775657    0.1780483626481984    0.18988080698900772    
  0.20343710572762588    0.20925423543553637    0.20343708351507578    0.1898808840568916    0.17804835630983337    
  0.17746536263151846    0.19373824072605836    0.22699098367064893    0.26835017972616604    0.30116099973727817    
  0.3131063838571379    0.3890601475082103    0.38567294267333413    0.3581797336428517    0.2958182860272984    
  0.22699102022802112    0.17804840379712356    0.15229157623600476    0.14284799694469175    0.1416948094020991    
  0.14224720996682472    0.1416948074042031    0.14284793956320235    0.1522915539966916    0.17804838949954316    
  0.2269910446436574    0.29581833841828464    0.3581796784160529    0.38567297870444917    0.3890601475082103    
  0.3110939701278675    0.34420414010847544    0.39017589962703786    0.35817976020758735    0.268350190133185    
  0.18988088400837566    0.14284799449159233    0.11952000064954944    0.11002777571338158    0.10773801198305713    
  0.11002774530267727    0.11952002962292464    0.14284798000215043    0.189880866937633    0.2683502951478787    
  0.35817962601635933    0.3901758410795682    0.3442041594823757    0.3110939701278675    0.16398815952654272    
  0.218618867249917    0.3442041084983745    0.3856729375233789    0.3011609799067605    0.20343707698088415    
  0.1416947829122279    0.11002769821797917    0.09611915204341549    0.09240733190699765    0.09611915833551533    
  0.1100277193899091    0.14169477016519133    0.2034370652131371    0.3011609913978963    0.38567291542926174    
  0.3442041455909358    0.21861887545966585    0.16398815952654272    0.10979160584281558    0.1639881538316655    
  0.31109393000098795    0.3890601304926279    0.31310643192139564    0.20925429051678485    0.14224726125581522    
  0.10773802187462427    0.09240732087485908    0.088235777752189    0.09240733839245452    0.10773801391785462    
  0.14224726436199867    0.20925429638805562    0.3131063958192492    0.38906026819954476    0.3110938004784776    
  0.1639881489117048    0.10979160584281558    0.26850132510416685    0.31109393255366    0.38328839576660356    
  0.3702902970349849    0.2800998556007445    0.1956421038947433    0.14435625946302857    0.1185960564063897    
  0.10773799768662193    0.10500025487925309    0.10773801285494158    0.11859611661981591    0.14435621490593353    
  0.19564209155785858    0.28009979007868757    0.3702903264765411    0.3832883204247634    0.31109394132594914    
  0.26850132510416685    0.31109395270674234    0.3442041175479217    0.3901758515019854    0.35817975163508375    
  0.2683501231324054    0.18988085885329017    0.14284799479934654    0.11952002954631888    0.11002775260428505    
  0.10773804951726554    0.11002774988084042    0.11952004389697324    0.14284800125930147    0.1898808492291831    
  0.2683502319267473    0.35817971177053093    0.39017591809269137    0.34420419091315396    0.31109395270674234    
  0.3832883209267278    0.39017583240730175    0.3796106059161848    0.3185267497306449    0.23769487238893655    
  0.1761299171688865    0.14096961274814596    0.12487628627306305    0.11952001263602445    0.11859608143285928    
  0.11952002661473703    0.12487633549975904    0.14096960743368994    0.1761298695346082    0.23769485265898235    
  0.3185267014735702    0.37961058963055866    0.39017584544008593    0.3832883209267278    0.3702902455439357    
  0.35817972147139915    0.3185267537948509    0.25827645942386046    0.20125356501808492    0.16347614622709106    
  0.1453576191528033    0.14096956941279315    0.1428479988591612    0.144356227391417    0.14284799464211367    
  0.14096954921748145    0.14535759861735828    0.16347616341764737    0.20125356064456784    0.25827640430963783    
  0.3185267016963723    0.3581797298331769    0.3702902455439357    0.2800997824569538    0.2683501638850546    
  0.23769485858529038    0.2012535961000958    0.17337526455853225    0.16091022946243805    0.1634761276050413    
  0.17612986626152233    0.18988090581119285    0.19564207644009612    0.18988084173776967    0.17612987767041258    
  0.16347613710432454    0.16091025187178606    0.1733753304249008    0.20125355136847878    0.23769482822506055    
  0.2683502074321149    0.2800997824569538    0.19564201234321907    0.18988082379177443    0.17612983318927078    
  0.1634761808463593    0.16091021420198107    0.1733752944648073    0.20125358026765885    0.23769477096733968    
  0.2683502626808584    0.2800997311427039    0.26835022275232934    0.23769482255143387    0.20125355292532354    
  0.17337526897552896    0.16091026804002082    0.16347613136058042    0.176129874018158    0.1898808537419587    
  0.19564201234321907    0.14435624055086504    0.14284799449396612    0.14096959323803243    0.1453575824412632    
  0.16347613803343594    0.2012536096438363    0.25827644186140997    0.31852669984804916    0.3581797547734665    
  0.3702902407870903    0.35817975202938773    0.3185267427904084    0.2582764701360879    0.2012535591610207    
  0.1634761179581666    0.14535762064904592    0.14096953320104194    0.1428480259739053    0.14435624055086504    
  0.1185960849034208    0.11952002779111097    0.12487635322937177    0.14096958877472363    0.17612985383426474    
  0.2376948148063056    0.3185267414312669    0.37961057263398096    0.3901758654675384    0.3832884135343207    
  0.39017582853714217    0.37961064448270504    0.3185267299757097    0.23769479063167767    0.17612989138064208    
  0.14096955736083053    0.12487636653828708    0.11952004831315975    0.1185960849034208    0.1077380119835082    
  0.11002773336330035    0.11951998758098287    0.1428480225397874    0.18988089429432956    0.26835023445687184    
  0.3581796787725962    0.3901758105463169    0.344204167488428    0.3110939388147606    0.3442041836241017    
  0.3901758430598747    0.35817968173812526    0.2683502108818802    0.18988088027904299    0.14284799706507892    
  0.11952001882127784    0.11002771904641437    0.1077380119835082    0.10500024012919346    0.10773803433787317    
  0.11859607614874688    0.1443562813888881    0.19564205870742085    0.2800998509724457    0.3702903273357599    
  0.3832883776130763    0.31109396930638694    0.2685012989800809    0.3110939334395526    0.3832883490730993    
  0.3702902808178755    0.28009979104982285    0.19564202488178178    0.14435629483643084    0.11859605336349634    
  0.10773804894684298    0.10500024012919346    0.10773802532052222    0.11002771259266114    0.1195200266879572    
  0.14284800995051042    0.1898808381645054    0.26835019925152964    0.3581796918956738    0.39017590629789567    
  0.34420419813108055    0.3110938959500844    0.344204172614335    0.3901758815683418    0.3581796384135923    
  0.2683502204865618    0.18988090011400988    0.14284800000002965    0.11952003524704792    0.1100277553859054    
  0.10773802532052222    0.11859604595043755    0.11952000873890345    0.12487632476416409    0.14096959312856475    
  0.1761298421335101    0.23769485829499087    0.31852674297071176    0.37961057001576176    0.39017593364970193    
  0.3832884044900251    0.3901758376553741    0.3796106313583094    0.3185266948607115    0.237694811875261    
  0.17612986238093908    0.14096957458121978    0.1248763524770988    0.11951998540662061    0.11859604595043755    
  0.14435629265414665    0.14284800047662338    0.14096961065656433    0.14535758818285546    0.16347616033831633    
  0.20125359691987954    0.25827648700617106    0.31852672500979745    0.35817968258242094    0.3702902431254009    
  0.3581797195053264    0.31852676422377507    0.2582764027702816    0.2012535813369428    0.16347612677430662    
  0.14535756723686158    0.1409695750218762    0.14284800173577436    0.14435629265414665    0.1956420862671601    
  0.18988088497530617    0.1761298573295985    0.1634761351764255    0.16091021316792267    0.17337527429720492    
  0.2012536046743114    0.23769475810934104    0.2683501807960836    0.28009986298095657    0.26835023503469907    
  0.23769481158686162    0.2012535827089648    0.17337530889867458    0.16091028002357127    0.16347613604061204    
  0.1761298458291413    0.18988087173425242    0.1956420862671601    0.28009984561317525    0.2683501790811431    
  0.23769481711640086    0.2012535799905375    0.17337528670474625    0.1609102344428134    0.1634760998792652    
  0.1761298092523205    0.18988089659804688    0.19564205011046842    0.18988083857664514    0.17612984957415162    
  0.1634761168596654    0.1609102295899709    0.17337534176560987    0.20125356271043443    0.23769482063359637    
  0.2683501763599855    0.28009984561317525    0.3702902772482086    0.35817967461960987    0.3185267544882362    
  0.2582764493563119    0.20125355255061295    0.16347615580143907    0.14535760127163308    0.1409695814504956    
  0.14284802198845728    0.14435622044944685    0.1428480262808771    0.14096954287907415    0.14535760744855727    
  0.1634761744854803    0.2012535528079348    0.25827648647935597    0.3185267061210187    0.358179754595874    
  0.3702902772482086    0.38328847771134755    0.39017585908375196    0.37961064001263634    0.3185266950498479    
  0.23769480907056512    0.17612989780275695    0.14096958331025936    0.12487633893402846    0.1195200600999348    
  0.1185961154175813    0.11952001416695132    0.12487633538993713    0.14096960288063778    0.176129898733304    
  0.23769488554304655    0.3185267454070845    0.37961064315871584    0.39017584650501075    0.38328847771134755    
  0.3110939182895231    0.3442041568024043    0.39017590555903725    0.35817969972429153    0.2683501716836082    
  0.1898808475552656    0.1428480009826855    0.11951998435192723    0.11002777964263181    0.10773801695640664    
  0.11002775584084361    0.11952002579954454    0.14284797024311435    0.1898808520352394    0.2683502591255866    
  0.3581796902112628    0.39017578201860226    0.34420407012594445    0.3110939182895231    0.26850132510416685    
  0.31109393255366    0.38328839576660356    0.3702902970349849    0.2800998556007445    0.1956421038947433    
  0.14435625946302857    0.1185960564063897    0.10773799768662193    0.10500025487925309    0.10773801285494158    
  0.11859611661981591    0.14435621490593353    0.19564209155785858    0.28009979007868757    0.3702903264765411    
  0.3832883204247634    0.31109394132594914    0.26850132510416685    0.3872907860053349    0.389060140759811    
  0.3702903035144141    0.30997331730198613    0.23733137980663108    0.18411496487694676    0.15552941245283108    
  0.14435623438174824    0.142247263375536    0.1425217771964044    0.14224728097710435    0.14435623852454169    
  0.15552938511792938    0.18411492441934635    0.23733130063833177    0.3099733190625619    0.37029028502014166    
  0.3890602385028583    0.3872907860053349    0.38906016259198206    0.3856729135448513    0.35817967828068326    
  0.2958183413309616    0.2269909742566895    0.1780483890296076    0.15229155529697233    0.14284800436083891    
  0.1416948067434732    0.14224728711821832    0.14169481738110984    0.14284798818129926    0.15229157105042923    
  0.17804838591474345    0.22699109469135353    0.2958183799763502    0.35817969788398524    0.38567292672876113    
  0.38906016259198206    0.37029023008945683    0.3581797324499476    0.31852669445398246    0.25827649626730353    
  0.20125354257674707    0.16347614870631622    0.14535758190533749    0.14096955108864567    0.14284800570587025    
  0.14435624451595208    0.1428480086120083    0.1409695813519094    0.14535759037916213    0.16347612393563501    
  0.20125358311032085    0.2582763890812616    0.3185267390417462    0.3581796948944592    0.37029023008945683    
  0.3099732251927645    0.29581832815369746    0.2582764113874251    0.21149133350570615    0.1722287507692359    
  0.1492238266437266    0.14188924508788103    0.1453575553616404    0.1522915377109134    0.15552934050921222    
  0.1522915636996286    0.14535758103926744    0.14188923341548149    0.14922379945710532    0.17222871534268638    
  0.21149133890047223    0.2582764029515521    0.29581837962589436    0.3099732251927645    0.23733130740499506    
  0.22699103026062595    0.20125358869429108    0.17222878650532839    0.15119532469523586    0.143622173867828    
  0.14922380086730216    0.1634761377572876    0.17804837783261934    0.1841149588288717    0.17804837563316658    
  0.16347616637142345    0.14922380430758467    0.14362217949893763    0.15119535652462712    0.17222873850876053    
  0.20125359721073907    0.22699100561166624    0.23733130740499506    0.18411493768356338    0.17804835544561498    
  0.16347609459211615    0.1492237942794067    0.1436221447633204    0.1511953188032336    0.17222871854735242    
  0.20125357965201376    0.22699104008583576    0.23733131060594284    0.22699100211805856    0.20125359357188347    
  0.172228761341267    0.15119531036764844    0.14362221752643292    0.14922378172873596    0.16347616521849145    
  0.17804837894111047    0.18411493768356338    0.15552938718346643    0.15229155653376267    0.14535759393083889    
  0.14188924935057193    0.14922380713797295    0.17222876107341523    0.21149140298282046    0.2582764237034157    
  0.2958182546315677    0.309973248054885    0.29581833644349426    0.2582764457527256    0.21149135210334336    
  0.17222873697139002    0.14922380455625953    0.1418892175690028    0.14535757404120828    0.15229155298405228    
  0.15552938718346643    0.1443563103106586    0.14284797904048846    0.14096959372372747    0.14535758767161167    
  0.16347608864805988    0.2012536226279568    0.25827645876829447    0.3185267160211113    0.3581797350341637    
  0.37029029648150075    0.3581796409902067    0.3185267711421797    0.2582764614956326    0.2012536146652506    
  0.16347613504857714    0.14535760742128617    0.1409696414411781    0.14284798924379494    0.1443563103106586    
  0.14224724213074139    0.14169475646511856    0.14284795190715602    0.15229158609355706    0.17804832789684075    
  0.22699106518531584    0.29581830910201273    0.35817965846256594    0.38567292867829556    0.3890602100962286    
  0.3856728731093644    0.35817970144515804    0.2958182364946532    0.22699101108200379    0.17804838284984123    
  0.15229151558694773    0.14284797769660237    0.14169478179434583    0.14224724213074139    0.14252178998898948    
  0.1422472794526862    0.14435623579694307    0.15552938213916168    0.18411500046320678    0.23733138233511827    