#     DFTpy    
  CRYSTAL 
    
  PRIMVEC    
  7.671481122455419    6.118924640965518e-07    1.0101808234482758e-06    
  6.11892609475862e-07    7.671483753174998    1.0212290844068965e-06    
  1.0101809526482756e-06    1.0212291078551724e-06    7.6714832214358895    
  PRIMCOORD    
  16    1    
  Si    1.1320057936880747    6.539476739865633    2.7037361999735467    
  Si    6.539475866949909    1.1320082292422915    4.967745921517916    
  Si    1.132006946887114    1.1320072301755015    1.1320076285687977    
  Si    2.703740171021827    2.703741293828154    2.7037410113446336    
  Si    6.539474006689895    2.703736388639109    1.1320063595626253    
  Si    1.132005540707241    4.967750232248885    6.539476680037096    
  Si    2.70373537629467    1.132008461329583    6.539477297361374    
  Si    4.967745642388023    6.539478513438136    1.1320064517342374    
  Si    4.967745254790825    2.70374174530498    6.539480870448305    
  Si    2.70373737664786    4.9677434937826135    1.1320027295547022    
  Si    4.9677427105016365    4.9677473098023315    4.967745816446174    
  Si    6.539476084232316    6.539479698583979    6.539478266823414    
  Si    2.7037404717564777    6.539483171048276    4.967746087446863    
  Si    4.967741575153186    1.1320023092856941    2.7037384077120885    
  Si    6.539478826859395    4.9677466083295405    2.7037411931917297    
  Si    1.1320026401818808    2.703739336949969    4.96774342955966    
  BEGIN_BLOCK_DATAGRID_3D    
  3d_datagrid_density    
  BEGIN_DATAGRID_3D#0    
  33    33    33    
  0.0    0.0    0.0    
  7.671481122455419    6.118924640965518e-07    1.0101808234482758e-06    
  6.11892609475862e-07    7.671483753174998    1.0212290844068965e-06    
  1.0101809526482756e-06    1.0212291078551724e-06    7.6714832214358895    
  0.046697225935947474    0.04830466008780661    0.052693568074739426    0.058657682180949786    0.06454708637919318    
  0.06879831505554525    0.0708110145400277    0.07126185238395659    0.0712476527789678    0.07126194126412051    
  0.07081102246770382    0.06879860513916125    0.0645470816766958    0.05865803254677778    0.052693478718281485    
  0.048305110161091055    0.046697186979077245    0.04830518046608306    0.05269374601642879    0.05865826112971398    
  0.06454746489930317    0.06879874282672407    0.0708114935308804    0.07126205371020414    0.07124800990973258    
  0.07126191600902342    0.07081142777550527    0.0687983786164135    0.06454743209625255    0.05865776036527176    
  0.05269374055855797    0.04830471296852903    0.046697225935947474    0.04830468304593343    0.056087880840556645    
  0.06743726427995742    0.08058674697622684    0.09272586237939219    0.10130671851965091    0.10557194723913409    
  0.10676734012454603    0.10685236196384633    0.10676743635044844    0.10557227559667273    0.10130674537027631    
  0.09272634676911    0.08058671175754985    0.06743771971554174    0.056087817620490324    0.0483051202689392    
  0.044370006608326996    0.043588766382960886    0.04484632094523891    0.04684695866154126    0.0484788352803622    
  0.04925139993180358    0.04939053463725298    0.04936973912206128    0.04939055493803679    0.049251251558156    
  0.04847885928013247    0.04684664498232488    0.0448463579388892    0.043588403378547386    0.0443700722234361    
  0.04830468304593343    0.05269355942921838    0.06712893293282736    0.08698862490019234    0.10968033815562195    
  0.13058202578517844    0.14545891989711626    0.15317252638174578    0.15573598150082274    0.1561148579337654    
  0.15573622675106855    0.15317262974537132    0.14545946216171743    0.1305821483891435    0.10968093528755771    
  0.08698862495273922    0.06712945796665136    0.052693461708883935    0.04382290905750683    0.03930162292367039    
  0.03762866000936307    0.03740310139604776    0.03762677610280968    0.03778013580676166    0.03777047157798634    
  0.037746147917737005    0.03777041582939392    0.03778015855225935    0.037626644535373455    0.0374031948086267    
  0.037628392450071386    0.039301718509784256    0.04382251028667963    0.05269355942921838    0.05865772374830792    
  0.07933781058960956    0.10775988342670977    0.14037523267460933    0.1707231218185168    0.19285778061537173    
  0.20503778079395005    0.2097182206818627    0.21067409752205865    0.2097183926346546    0.20503824040428958    
  0.19285789167446124    0.17072386096703274    0.14037533415708742    0.10776058130608455    0.07933775340234994    
  0.0586581355653818    0.04572832558786798    0.03863708817840058    0.03528116868463322    0.0339683306668565    
  0.03356138837350214    0.03341642555071107    0.03330844899618253    0.033270453355784275    0.03330847442312345    
  0.03341634890097158    0.033561503076487115    0.03396811706550771    0.03528125097825455    0.03863684990372186    
  0.045728439840966126    0.05865772374830792    0.06454712787974787    0.08913929192667756    0.1232487622217364    
  0.16271040299585057    0.19964221636426036    0.2272354386728362    0.24343223883388895    0.2501900023498911    
  0.2516484691964142    0.25019025055599137    0.24343248469376016    0.22723618994538378    0.19964245608285316    
  0.16271115065858158    0.12324882595092328    0.08913988741019664    0.06454701391323381    0.04925825913239591    
  0.0408955311195753    0.036938725153642354    0.03537226446278251    0.03488052739018754    0.034723216619457896    
  0.03462608346271817    0.03459625543967338    0.03462604996931932    0.034723305841477564    0.03488047431738776    
  0.03537242902901422    0.03693853143508468    0.0408957284214039    0.04925793723267013    0.06454712787974787    
  0.06879830247453345    0.09329342356649319    0.12762007920265547    0.16767756591425012    0.2053816549134886    
  0.23390414861682476    0.25111991772844394    0.2583449837653534    0.2598159514275956    0.2583450899910178    
  0.251120476964095    0.23390438679642672    0.20538251845113628    0.16767774501460053    0.12762084902038395    
  0.09329333934234914    0.0687987437543669    0.053812346321321966    0.045986153945474374    0.04274088782833366    
  0.04187746744787616    0.04191492936098911    0.04204433059811248    0.04204631529774844    0.04203621586649385    
  0.04204635640652489    0.04204432325077085    0.041915130758218296    0.04187733605227703    0.04274105714034641    
  0.04598593708214969    0.0538124576589094    0.06879830247453345    0.07081104473402007    0.09087695130244365    
  0.11957951628411002    0.1534575944936791    0.18573136725599412    0.21008419341150086    0.22433608268871472    
  0.23001917947556816    0.23110164099430858    0.23001935373599147    0.22433623844432124    0.2100848158547484    
  0.18573140242308564    0.15345830466923022    0.11957957557941705    0.09087749994372411    0.07081093754401051    
  0.05930815516864625    0.05442560124747963    0.05376459659746667    0.05506364077310708    0.05660966715327295    
  0.05745804733681034    0.057638785029619236    0.05764081394131869    0.05763875075115445    0.05745825690226518    
  0.05660971600546002    0.0550639574859654    0.05376434452000941    0.05442582809974842    0.05930778417988533    
  0.07081104473402007    0.0712617938170131    0.0835839215117987    0.10285180476777792    0.1264084444225411    
  0.14928752799201248    0.16635028154727227    0.17569370384312438    0.1790715874539915    0.17966787524634031    
  0.17907168055799483    0.17569425364400315    0.16635033834858517    0.149288199062384    0.12640844275225546    
  0.10285244802222314    0.08358385088841395    0.07126224399790453    0.06619879316655175    0.06703656234891367    
  0.07156832161188567    0.07724887468419293    0.08184937380963013    0.08425116874020903    0.08490943841656012    
  0.08497941988894914    0.08490956390809168    0.08425128709285995    0.08184967978033948    0.07724873940270442    
  0.07156853141153123    0.06703625350520323    0.06619893694408116    0.0712617938170131    0.07124778894606283    
  0.0745816525564698    0.08379779622170357    0.09667039281559069    0.10973468139819663    0.11955318070781104    
  0.1247099562744042    0.12637175317475963    0.1266228218148657    0.12637189225621198    0.12471000769620602    
  0.1195535629184149    0.10973465751936788    0.09667092751873059    0.08379772509252423    0.07458217745660448    
  0.07124770287228961    0.07458219716277661    0.08379789007181698    0.09667089148418145    0.10973475668070579    
  0.11955313010876696    0.12470992002448136    0.12637143234379566    0.12662271689524016    0.12637139816750875    
  0.12471018849526103    0.11955309671792747    0.10973496459820758    0.09667047787733728    0.08379799807877375    
  0.0745816682868098    0.07124778894606283    0.07126186139615746    0.06619891326384554    0.067036264488134    
  0.07156843747291931    0.07724881780027847    0.08184950010718715    0.08425150366916102    0.08490960671835769    
  0.084979898815367    0.08490957340480072    0.08425169867193248    0.08184947479327315    0.07724919062552568    
  0.07156837864198447    0.06703676165882867    0.06619892483164173    0.07126252534910774    0.08358430332986169    
  0.10285270272665967    0.1264090242775507    0.14928832966718047    0.1663506799309302    0.17569397155463967    
  0.17907191229635366    0.17966756246156995    0.1790719065051479    0.17569379259426174    0.16635080177817374    
  0.14928775731799174    0.12640886844360907    0.10285195007364854    0.08358408169393014    0.07126186139615746    
  0.07081117070252287    0.05930788542816583    0.05442575752131457    0.053764457001970106    0.055063852702476816    
  0.05660986921889718    0.057458149611245485    0.057639096587534716    0.05764085257842101    0.05763915178535709    
  0.05745809920832388    0.056610062877778755    0.0550637570086387    0.053764807221906595    0.054425803583575454    
  0.059308511686674795    0.07081140653900375    0.09087815970346001    0.11958056745585294    0.15345925104597347    
  0.18573266695739202    0.21008542714414752    0.22433714188450576    0.23001966522081296    0.2311022504740896    
  0.2300192637880637    0.22433702283389784    0.21008462864138014    0.18573213670296132    0.1534580300199124    
  0.1195800983886158    0.09087716225766525    0.07081117070252287    0.06879848495067009    0.05381253290258063    
  0.045986057957002724    0.042741014503697085    0.04187746577093969    0.04191510531152998    0.042044500000383865    
  0.04204634523356045    0.04203651352144814    0.04204634056163134    0.04204459493515744    0.04191504525249549    
  0.04187775758289644    0.04274100996188931    0.045986520457327804    0.053812695522978994    0.06879938435882788    
  0.09329434876048227    0.12762212145784288    0.16767953109290282    0.20538423939771294    0.2339063387187634    
  0.2511216888426803    0.2583466827041741    0.2598167233607963    0.258346258946558    0.25112073241586896    
  0.23390551435366944    0.20538249593006053    0.16767848263200621    0.12762063369592846    0.09329375011524849    
  0.06879848495067009    0.06454733662263794    0.04925807718930588    0.040895752696304646    0.03693861785340314    
  0.03537234220088261    0.03488057720090814    0.034723191228221775    0.03462622629477825    0.03459622943072405    
  0.034626310504206115    0.03472322340613676    0.03488077556241699    0.03537234143217178    0.03693898098089691    
  0.040895845797637276    0.049258743019402466    0.06454773385334553    0.0891409732341601    0.12325048631244578    
  0.16271314873463244    0.19964489615133119    0.22723812717920192    0.2434348965276448    0.25019189268826725    
  0.2516504473027866    0.25019111513867437    0.2434340136694174    0.22723643870202495    0.19964354072067556    
  0.16271113640036053    0.12324948525757047    0.08913964642926153    0.06454733662263794    0.05865790431759325    
  0.04572851778330781    0.03863692523216609    0.035281238557738834    0.03396818422794384    0.03356134987247603    
  0.0334164723810369    0.03330841257592338    0.03327063670575117    0.03330843921182208    0.03341666213803632    
  0.033561448576018095    0.03396853465086381    0.03528129742405957    0.03863743633647707    0.04572874741034855    
  0.058658873248858025    0.0793389460942317    0.10776211134046869    0.14037756843681556    0.17072600615221106    
  0.19286063835262346    0.20504020904373163    0.20972057634264973    0.2106756367146515    0.20972004252754736    
  0.2050388735193456    0.1928592082812989    0.17072395645276933    0.14037624003731622    0.10776045301595709    
  0.07933817055751785    0.05865790431759325    0.0526937062131875    0.043822671211657505    0.03930170065728179    
  0.037628478385247674    0.03740308378430428    0.03762672206719505    0.037780019972878276    0.03777058350547209    
  0.03774610768559851    0.0377707584201291    0.03778017846361376    0.037627120595135816    0.03740328700514559    
  0.03762904894766518    0.039301929677210135    0.04382339814291979    0.052694134821346154    0.06713043082949405    
  0.08699006767324799    0.10968262662534178    0.13058432740917356    0.14546127685809523    0.15317480907291203    
  0.1557376535411923    0.15611659293766228    0.15573703502242675    0.15317396355267546    0.14545979959424346    
  0.1305831735073392    0.10968090085141308    0.08698918161546511    0.0671292132091921    0.0526937062131875    
  0.048304844947577884    0.04437012485670359    0.04358846860984689    0.04484629243272139    0.04684668511540625    
  0.04847870716305768    0.049251306376137303    0.049390418070630326    0.04937005273433729    0.04939062412919582    
  0.04925187629892544    0.04847910712375028    0.046847484020971025    0.044846677479719196    0.04358926539180688    
  0.044370486505263804    0.04830571818067339    0.056088662909426754    0.06743870011810435    0.08058811941648827    
  0.09272764968638364    0.10130837277432667    0.10557343403866636    0.10676877912449777    0.10685315706909583    
  0.10676841035270064    0.1055725686547616    0.10130758895743427    0.09272636454396889    0.0805873224042292    
  0.06743753739575994    0.05608815741394619    0.048304844947577884    0.04669733446234766    0.04830479648721795    
  0.052693718210593085    0.05865780325756821    0.0645472009525081    0.06879840062246516    0.07081112790838048    
  0.07126206344995166    0.07124805679168845    0.0712625701690322    0.07081182621920763    0.06879957074859512    
  0.0645481139111913    0.05865898424936018    0.052694301046749124    0.048305763999995095    0.04669775248394769    
  0.0483057095345809    0.05269430248754439    0.058658811432293824    0.06454807619469782    0.06879932439061019    
  0.07081204047413127    0.07126253736832797    0.07124843340140975    0.07126219733147926    0.07081166488878309    
  0.06879859536879057    0.06454758806881856    0.058657903755693644    0.052693884513146085    0.048304841561444364    
  0.04669733446234766    0.048304789011035514    0.05608812759013172    0.06743739911061147    0.08058702314987232    
  0.09272597909641836    0.10130693311906777    0.10557206745217403    0.10676778549073963    0.1068529768776185    
  0.10676844020499786    0.10557355466490624    0.10130838917941005    0.09272791496280064    0.08058823652976431    
  0.06743886701469765    0.05608876013423103    0.048305716921750085    0.044370590696254895    0.04358914234762739    
  0.044846754515390795    0.0468472507093262    0.04847922817510995    0.04925166150593088    0.04939085808757503    
  0.049369929354125    0.04939077773839564    0.04925131305634346    0.04847903002721278    0.046846675001810105    
  0.04484652261249582    0.043588430252435355    0.04437023028098778    0.048304789011035514    0.05269385855021035    
  0.06712907312679119    0.08698907647736313    0.10968054600221123    0.1305824951149009    0.14545896130489266    
  0.15317296701917252    0.15573629791510388    0.15611585516838075    0.15573735851188575    0.15317471105764158    
  0.14546158813936225    0.13058461863813448    0.10968294011479808    0.08699037496720347    0.06713047944403698    
  0.05269431318703397    0.04382334194046451    0.03930208336224232    0.037628865504086714    0.037403450462915676    
  0.037626896212897415    0.03778041371464065    0.03777053683912598    0.0377463659026738    0.037770393975616025    
  0.03778034172865227    0.03762662393505981    0.037403357215930876    0.03762838380422312    0.03930191127450639    
  0.043822565443115094    0.05269385855021035    0.05865780685596397    0.07933833452740616    0.10776016003449794    
  0.14037586261745394    0.1707231444019509    0.1928582242162533    0.2050376324744917    0.20971887293942365    
  0.21067468985126783    0.20972015385875137    0.2050402169907451    0.1928609083765122    0.17072641124619695    
  0.1403780986863237    0.10776234419009165    0.07933928063677133    0.058658817013473426    0.045729007319457435    
  0.03863731766290634    0.0352815242020902    0.033968362707308505    0.03356165848321611    0.03341645140261712    
  0.0333086764462971    0.033270400708012064    0.03330862600928225    0.03341626223761945    0.033561655584940064    
  0.03396802462087775    0.035281458920853666    0.038636808493236    0.045728748934973515    0.05865780685596397    
  0.06454763990593687    0.08913945104479609    0.12324952054051574    0.16271050614992205    0.1996428015127196    
  0.22723517293707798    0.24343258715376745    0.2501896704496697    0.25164950284609733    0.2501910957375956    
  0.24343498895662788    0.22723844343094443    0.19964563005888494    0.16271342445463072    0.1232511984768686    
  0.08914103973321372    0.06454809277391681    0.04925864169648958    0.04089609510436091    0.036938792185298774    
  0.035372588577358505    0.034880503196290734    0.03472347710011534    0.03462603925124668    0.03459651816541187    
  0.03462591115289626    0.03472347199535902    0.03488031394262586    0.035372600100276826    0.03693840839646246    
  0.040895976092132635    0.049257927011430384    0.06454763990593687    0.06879832265753771    0.09329409153776357    
  0.12762030199179072    0.16767841532013383    0.20538145242908312    0.23390455123617132    0.2511191513757672    
  0.25834508703169595    0.25981563048134065    0.25834616320067494    0.2511215134477885    0.23390682619769126    
  0.2053844312133492    0.16768026600799646    0.12762230587315998    0.09329487517746718    0.06879932436166146    
  0.05381307400855879    0.04598628967095492    0.04274131407379798    0.0418774337882029    0.041915312397131727    
  0.04204428805442879    0.0420466264644229    0.04203613436494624    0.04204658438608931    0.04204407561207787    
  0.041915332143317316    0.041877155756257126    0.04274131025906353    0.04598577657977951    0.05381285263030517    
  0.06879832265753771    0.07081159876331926    0.09087700816165205    0.11958034979142025    0.15345753753773467    
  0.18573175246522566    0.2100835382206933    0.22433606774246478    0.23001818236057214    0.23110168959091287    
  0.23001895802632255    0.22433735925889525    0.21008558701107347    0.18573327023045402    0.15345940809085482    
  0.11958122497230599    0.09087814761956142    0.07081185244322262    0.0593083845206375    0.054426184549101156    
  0.05376456758779131    0.055064123515914665    0.05660967720359352    0.05745848355374032    0.05763867234142781    
  0.05764112344759924    0.05763851975101931    0.05745847200949255    0.0566094074683766    0.05506413592788319    
  0.05376412466737481    0.05442611933459792    0.05930767047029099    0.07081159876331926    0.07126167877448801    
  0.08358451570860892    0.10285174095730151    0.12640909716341664    0.1492871450227489    0.16635043927390544    
  0.17569279956611358    0.1790714187646703    0.17966688247440482    0.17907176368829716    0.17569378521658757    
  0.1663512195248187    0.14928852879355928    0.12640960879334154    0.10285283841221349    0.08358479800994278    
  0.07126240424512999    0.0661994278444626    0.06703656601907258    0.07156887652018569    0.07724878806773697    
  0.08184992307750405    0.08425115084530042    0.0849099140826501    0.08497921874675667    0.08490987305278447    
  0.0842508611642442    0.08184985277389742    0.07724829649178859    0.0715687683286956    0.06703593419882932    
  0.06619930721156153    0.07126167877448801    0.0712481906724087    0.07458150794574944    0.08379828986768079    
  0.0966702396421124    0.10973501325396025    0.1195525971047992    0.12470995782418702    0.1263708138691563    
  0.12662268187856687    0.1263710671699759    0.12471017774614303    0.11955315719462187    0.10973525835209338    
  0.09667087155368473    0.08379839447945528    0.0745821252423287    0.07124822380024236    0.07458208297412866    
  0.08379834449724217    0.09667072263637126    0.10973530645965197    0.11955301928484717    0.12471060612138166    
  0.1263711590676797    0.12662318440396114    0.12637094775190436    0.1247104063770211    0.11955245022257815    
  0.10973504059399429    0.09666993802554356    0.08379819870666581    0.07458136738136507    0.0712481906724087    
  0.07126157842116877    0.06619927027227199    0.06703607565359274    0.07156874131875753    0.0772484907178007    
  0.0818496853781187    0.084250892348591    0.08490952636705337    0.08497916228011763    0.08490951638473726    
  0.08425108633943888    0.0818496034106829    0.0772488224459551    0.07156864393455617    0.06703655890797197    
  0.06619928461312245    0.07126219869664016    0.08358455466428703    0.1028523071871281    0.1264093448006555    
  0.14928789730206382    0.16635117490338716    0.17569358489192594    0.17907235417550463    0.17966697978987953    
  0.17907208807160307    0.17569290140778998    0.16635070617537795    0.14928684810970508    0.12640889170599584    
  0.1028514003731269    0.08358432810434543    0.07126157842116877    0.07081144679850582    0.05930767392662041    
  0.054426041456544734    0.0537642739283463    0.05506403736504748    0.05660953757377639    0.05745827418496672    
  0.057638610802376325    0.05764086191090269    0.05763865796594173    0.05745817304303559    0.05660969222814761    
  0.05506391478860609    0.05376450758478492    0.05442596410118552    0.05930818098090109    0.07081150920493795    
  0.09087758280187319    0.11958051180655431    0.15345839378057835    0.18573264144698087    0.21008461555677568    
  0.22433721110591934    0.23001883514828017    0.23110239951712902    0.23001825590383648    0.22433680894030478    
  0.2100834629090456    0.18573195444069776    0.15345714329291427    0.11958012114884152    0.09087672192151014    
  0.07081144679850582    0.06879817266015938    0.05381275667063892    0.0459858412603219    0.04274121613339802    
  0.04187728356460388    0.041915244504251506    0.042044208955908324    0.04204641606440635    0.04203616992137441    
  0.04204636198214075    0.04204421285914316    0.04191508056497632    0.041877414466196375    0.042741052974838704    
  0.04598613445134235    0.05381269902614754    0.06879882670235629    0.09329419149110707    0.12762108330692692    
  0.16767903269919104    0.20538284450209593    0.23390587577935737    0.251120407026172    0.25834616876671396    
  0.25981532271165186    0.2583457821110748    0.251119367502702    0.23390511586834173    0.20538139259042867    
  0.16767830325457506    0.12761986587942598    0.0932938278836985    0.06879817266015938    0.06454745548984638    
  0.049257843514461094    0.040895886380208475    0.03693845963568983    0.03537247279695551    0.034880414946508266    
  0.034723298927050096    0.03462598522820168    0.03459627495081274    0.034626024624240144    0.03472322252491587    
  0.034880522770583414    0.03537236468108281    0.03693865151598133    0.04089579215375504    0.04925828263754995    
  0.06454753104221472    0.0891400834623657    0.12324984397827671    0.162711720244953    0.19964389391493093    
  0.22723646266997624    0.2434338864518224    0.25019023293340076    0.25164958641611307    0.25018966922955865    
  0.24343343842295118    0.22723519986740282    0.19964316018616596    0.1627102785124547    0.12324942236529018    
  0.08913919206277458    0.06454745548984638    0.05865765570773523    0.04572861063284968    0.03863677500069951    
  0.03528131340545646    0.033968032821788056    0.033561444725899    0.03341630980951675    0.033308475948467024    
  0.03327041307625211    0.033308424037303136    0.03341637740041442    0.033561357995993434    0.03396821134008202    
  0.03528119078520819    0.038637058808449344    0.045728576362073683    0.05865824618757539    0.07933845477626425    
  0.10776097335112521    0.1403765852778057    0.17072433080213933    0.1928593650225188    0.20503856813595508    
  0.20971952614200418    0.21067414130596074    0.20971930096130598    0.2050378263687283    0.19285866126560391    
  0.17072307871522438    0.1403759760775927    0.10775992067139169    0.07933816476363906    0.05865765570773523    
  0.05269372631973633    0.043822521857130044    0.03930174936208371    0.03762835633227044    0.037403125069289986    
  0.03762658743046971    0.037780087444396857    0.037770387966451886    0.03774606244443798    0.037770418520319045    
  0.03778000297205899    0.03762672925888081    0.037403037380584266    0.03762859967971528    0.039301655708318124    
  0.04382290768033262    0.05269375741870508    0.06712964152139961    0.08698931034514008    0.1096814036440377    
  0.13058319230818352    0.1454598661762291    0.15317370513816533    0.15573635757860693    0.15611582213113523    
  0.15573605686454248    0.15317351376131202    0.14545907720477988    0.13058287323926604    0.10968044683250246    
  0.086989078030503    0.06712895048653011    0.05269372631973633    0.04830470315159629    0.04437008546737381    
  0.04358835600279755    0.0448462385827508    0.04684656229170651    0.048478673612125406    0.049251171364827956    
  0.049390340315316465    0.04936976315197204    0.04939031374540689    0.04925133465865083    0.048478597872482626    
  0.04684684125111795    0.044846150855777894    0.04358869365304846    0.04437004384000441    0.04830513617729607    
  0.056088116170599916    0.06743794019237159    0.0805873376371656    0.09272667218690733    0.1013075402403963    
  0.10557246905916397    0.10676801848304983    0.10685242563474587    0.10676793131867543    0.10557211156937933    
  0.10130727561559032    0.09272601521031158    0.08058715700939995    0.0674373259259245    0.056088062020804845    
  0.04830470315159629    0.046697225935947474    0.04830466008780661    0.052693568074739426    0.058657682180949786    
  0.06454708637919318    0.06879831505554525    0.0708110145400277    0.07126185238395659    0.0712476527789678    
  0.07126194126412051    0.07081102246770382    0.06879860513916125    0.0645470816766958    0.05865803254677778    
  0.052693478718281485    0.048305110161091055    0.046697186979077245    0.04830518046608306    0.05269374601642879    
  0.05865826112971398    0.06454746489930317    0.06879874282672407    0.0708114935308804    0.07126205371020414    
  0.07124800990973258    0.07126191600902342    0.07081142777550527    0.0687983786164135    0.06454743209625255    
  0.05865776036527176    0.05269374055855797    0.04830471296852903    0.046697225935947474    0.04830466055496326    
  0.05608790370335386    0.06712895805864887    0.07933779748720346    0.08913921790921946    0.0932933709177833    
  0.09087695442776571    0.08358390124522341    0.0745816814689856    0.06619884615424565    0.05930802576577272    
  0.05381239778386783    0.04925821239695029    0.04572833188246772    0.04382290165283531    0.04437001803161692    
  0.04830517241565901    0.05608809496977195    0.06712966322357501    0.0793383515324792    0.08913998737600926    
  0.09329396656877995    0.0908774529133729    0.08358437897055439    0.07458167338206337    0.06619917321380177    
  0.05930784012978225    0.0538126900031104    0.04925790895552793    0.0457285759071223    0.04382256196385093    
  0.04437010196367802    0.04830466055496326    0.05608789830945248    0.07266393185376244    0.0951249067147442    
  0.1196602893788173    0.13933372021982865    0.14796946817766218    0.1437597384347407    0.13001127235931623    
  0.11287755229584405    0.09700746183104249    0.08399561788227419    0.07353876871290409    0.06458459900110568    
  0.05663260067792983    0.05013380858594158    0.04583977887389484    0.04437000030347129    0.04583981820193097    
  0.04965099511250635    0.05456134952861294    0.05868128724613584    0.06032146770833196    0.059008440570745196    
  0.055486750466241755    0.05115084007954796    0.0470813608209977    0.04375458221379624    0.041208248379340603    
  0.03948600680582395    0.03903423468083655    0.04070300756113101    0.04583936071217737    0.05608789830945248    
  0.06743724601063626    0.09512485722015722    0.13297569517424368    0.17448054061626012    0.2078910064246411    
  0.22317062496488074    0.21726164232179754    0.1949867960561154    0.16617559451071964    0.13917353410691763    
  0.11713631657743323    0.09951160660026646    0.08449587902668096    0.0708680993036116    0.05894215103868517    
  0.0496507479162722    0.04358872668439977    0.04070285895906747    0.040261792726928036    0.04122931360883209    
  0.042453165992690715    0.04292203971068282    0.04224821244777162    0.04068582769513757    0.03878515630875309    
  0.03701426812292358    0.03563121865392682    0.03475409482120404    0.03474088104457687    0.03629899484605221    
  0.04069657278342861    0.050133888766142616    0.06743724601063626    0.08058679894418919    0.11966037449289067    
  0.1735005132445183    0.23174356216942096    0.2777940043370629    0.30027364803480056    0.29549089077835256    