#     DFTpy    
  CRYSTAL 
    
  PRIMVEC    
  1.6728796782890512    -2.897512597746115    0.0    
  1.6728796782890512    2.897512597746115    0.0    
  0.0    0.0    5.656144876827586    
  PRIMCOORD    
  2    1    
  Si    1.6728796782890512    0.9658375325820383    1.4140362192068965    
  Si    1.6728796782890516    -0.9658375325820383    4.242108657620689    
  BEGIN_BLOCK_DATAGRID_3D    
  3d_datagrid_density    
  BEGIN_DATAGRID_3D#0    
  15    15    25    
  0.0    0.0    0.0    
  1.6728796782890512    -2.897512597746115    0.0    
  1.6728796782890512    2.897512597746115    0.0    
  0.0    0.0    5.656144876827586    
  0.03817327619287539    0.03984265662748589    0.04479323417918224    0.05297654118796435    0.06394102569656925    
  0.07577066264822206    0.08524413458589353    0.08896089789706299    0.08524412578395359    0.07577066264046077    
  0.06394101951363909    0.05297654221736649    0.04479323930000257    0.0398426523297489    0.03817327619287539    
  0.03984265574383544    0.03984241237446032    0.043163841184643566    0.04981078931203801    0.05964852309960513    
  0.07154699700889201    0.08281653073164984    0.08991649249604672    0.08991734149241527    0.08281671312976904    
  0.07154667213057896    0.059648354590072714    0.04981077602721491    0.043164181802861946    0.03984265574383544    
  0.044793247001010464    0.043163838089620564    0.04479371095616176    0.04981097461559762    0.058316736399965735    
  0.06974258048743408    0.08212432681611619    0.09209773442773436    0.09600114830169554    0.09209734028509965    
  0.08212476106409854    0.0697430340255318    0.058317149633316655    0.049810771178106644    0.044793247001010464    
  0.052976541243556864    0.04981078014415475    0.04981097840050352    0.05297566715468702    0.05964840336234378    
  0.06974237423254002    0.0820949582082227    0.09390397296122893    0.10127100725653244    0.10126990867331757    
  0.09390453622644884    0.08209436961345355    0.0697430234312218    0.05964835412665568    0.052976541243556864    
  0.06394102440929535    0.059648524449058035    0.058316728370734455    0.059648413829176086    0.06394103816261068    
  0.0715474227571411    0.08212447404431682    0.09390432255100696    0.10336165126041044    0.10697333706734204    
  0.10336256042583665    0.09390452465606462    0.08212474563884888    0.07154664744942263    0.06394102440929535    
  0.07577067342648447    0.07154700829135188    0.069742576953134    0.06974237226788008    0.07154742271124519    
  0.07576940064070291    0.08281633276351763    0.0920969274571796    0.10127069614750824    0.10697332833418138    
  0.10697335875185625    0.10126992339413689    0.09209734038088176    0.08281670739354714    0.07577067342648447    
  0.08524412822519872    0.08281655080430675    0.08212433239997023    0.0820949484485101    0.08212449600859136    
  0.08281633785254192    0.08524468118752276    0.0899169740993753    0.0960012301924287    0.1012706987590213    
  0.10336165867237838    0.10127102053764843    0.09600113320059053    0.08991734879123581    0.08524412822519872    
  0.08896090475408734    0.08991648874533756    0.0920977341385919    0.09390397262720263    0.09390434229010704    
  0.09209693532932645    0.08991695578147305    0.0889601594269422    0.08991696282284914    0.09209691796106123    
  0.0939043293585226    0.09390397993767513    0.09209773783613451    0.08991648112654484    0.08896090475408734    
  0.08524414250903986    0.08991734323935219    0.0960011322587203    0.10127101190832916    0.10336165675869077    
  0.1012707026288785    0.09600122247820081    0.08991696352263691    0.08524466668218986    0.08281633616074222    
  0.08212449509088947    0.08209495298073027    0.08212432919144948    0.0828165461769471    0.08524414250903986    
  0.07577066866786057    0.08281671492551433    0.09209733666342053    0.10126991859692845    0.10697336091166806    
  0.10697332936092617    0.10127068888929532    0.09209691752968324    0.08281633905987226    0.0757693863448281    
  0.07154741683394392    0.06974237251882376    0.06974257660569858    0.07154700280095805    0.07577066866786057    
  0.06394102123517495    0.07154664586830947    0.08212475557929977    0.09390454392178364    0.10336254140431383    
  0.10697335087821792    0.10336165201058804    0.09390432714637753    0.08212448133595712    0.07154741273909264    
  0.0639410498581681    0.0596484075303054    0.05831672891155555    0.05964852484766523    0.06394102123517495    
  0.052976534852428    0.05964836010471702    0.06974302096437467    0.08209436029389262    0.093904525484709    
  0.10126993501791781    0.10127100858299692    0.0939039615529932    0.0820949457566945    0.06974237086911736    
  0.05964841427865603    0.05297565421179927    0.0498109732308529    0.04981078034143612    0.052976534852428    
  0.044793245324062245    0.04981078920560202    0.05831713614620758    0.06974303816430767    0.0821247673199941    
  0.09209733780404517    0.09600111863603994    0.09209774618020976    0.08212433881699437    0.06974256749780225    
  0.05831673913272523    0.0498109821066548    0.04479371368993997    0.043163831660912845    0.044793245324062245    
  0.03984264993312715    0.04316418747374655    0.049810790212820255    0.05964836160697324    0.07154665606434021    
  0.08281670570935863    0.0899173509206104    0.0899164799468993    0.08281655040216723    0.07154700092945776    
  0.05964853285257971    0.049810785075171754    0.043163838338516315    0.03984240790665105    0.03984264993312715    
  0.03817327619287539    0.03984265662748589    0.04479323417918224    0.05297654118796435    0.06394102569656925    
  0.07577066264822206    0.08524413458589353    0.08896089789706299    0.08524412578395359    0.07577066264046077    
  0.06394101951363909    0.05297654221736649    0.04479323930000257    0.0398426523297489    0.03817327619287539    
  0.039833587977182484    0.04168325579521943    0.04730327253044171    0.05678182428043199    0.06956659443368007    
  0.08345212909573457    0.09461849205118611    0.09897912635901736    0.094619194848669    0.08345180607074228    
  0.06956629709791931    0.05678189704720356    0.047303655941501745    0.04168288664273701    0.039833587977182484    
  0.04168289273497386    0.04168295440888371    0.04451065254298938    0.05016643195967589    0.05849391604865108    
  0.06850841616402197    0.0779627886584939    0.08394666738965792    0.08394576942916174    0.0779639000567482    
  0.0685073804013379    0.058494846032436855    0.05016538449300742    0.044511408805903874    0.04168289273497386    
  0.047303659724070836    0.04636400059325121    0.04730401168514712    0.050165240093052135    0.05499675874624964    
  0.06153364639769946    0.06861714694550237    0.07431713449501244    0.07657107361954088    0.07431651237799375    
  0.06861733730081063    0.06153421184782592    0.05499665535314398    0.050165376844315865    0.047303659724070836    
  0.05678190096727961    0.05609541999050246    0.056095081620284454    0.05678218116473962    0.058493680580005605    
  0.06153469913607536    0.06570410236588353    0.06990546478600235    0.07260185434901528    0.072602745529788    
  0.06990506005177133    0.0657046460473336    0.061534200392474425    0.05849483284868171    0.05678190096727961    
  0.06956630057710908    0.0709112892041953    0.07152259378053444    0.07091103787069598    0.06956646508997943    
  0.06850763954304026    0.06861758230021754    0.06990479357314378    0.07142419837457521    0.07208661785603065    
  0.07142459831901098    0.06990504202018522    0.06861734354482836    0.06850735918968509    0.06956630057710908    
  0.08345180980229366    0.08923235740119675    0.0929503626734664    0.09295146963274808    0.08923183039433767    
  0.08345226676468978    0.07796256990269979    0.07431652764191579    0.07260209607679527    0.07208790315659946    
  0.07208662774331207    0.07260275907841095    0.07431651463087034    0.07796390175379479    0.08345180980229366    
  0.0946192026568116    0.1068813680155977    0.11691811305110884    0.12077298021977224    0.11691675578161272    
  0.1068814835250813    0.09461885253721286    0.08394646207369506    0.07657101086201232    0.0726020802135886    
  0.07142421823574248    0.07260185545309707    0.07657105911107677    0.08394577043523715    0.0946192026568116    
  0.0989791154196341    0.11794066345710878    0.13648661801988157    0.14806052767569994    0.14806013509907323    
  0.13648910437450157    0.11794014316541386    0.09897914838663985    0.08394646020423949    0.07431651075471526    
  0.0699047907042377    0.06990547580121563    0.07431713063381337    0.08394666688343651    0.0989791154196341    
  0.09461849717368576    0.11794089311102889    0.14407880726188585    0.16523523216656805    0.17333928061102583    
  0.16523513033663606    0.14407909728156232    0.11794014432856331    0.09461884790404847    0.0779625840584418    
  0.06861758898788008    0.06570410242302271    0.0686171688944371    0.07796278715032184    0.09461849717368576    
  0.08345213722503776    0.10688152740387542    0.1364887718631198    0.16523476316613223    0.18304443778965365    
  0.1830412333891619    0.1652351239598915    0.1364890644086134    0.10688150675053917    0.08345226033786879    
  0.068507637049152    0.061534685892620795    0.06153364351384654    0.06850840545315245    0.08345213722503776    
  0.0695666025506572    0.08923216332085734    0.11691743597182341    0.14805882300837991    0.17333937859745538    
  0.18304442633216025    0.17333928928938    0.14806011474606443    0.11691673988846757    0.08923182558238797    
  0.06956646216804632    0.058493682883570305    0.054996753240670083    0.05849391193786677    0.0695666025506572    
  0.0567818216926613    0.07091121807190257    0.09295085250775811    0.120774925333085    0.14805880865537827    
  0.16523474860615806    0.16523521059955135    0.14806050810413288    0.1207729951257862    0.09295147803907562    
  0.07091103341287813    0.05678217254883851    0.050165236900934475    0.050166428971412075    0.0567818216926613    
  0.047303278530160114    0.05609569021108509    0.07152281170265665    0.09295085844356735    0.11691744806308117    
  0.1364887787035611    0.1440787859480794    0.13648662165258815    0.11691811330542365    0.0929503668297583    
  0.07152261308520454    0.05609509096785247    0.04730401020626293    0.04451064809471069    0.047303278530160114    
  0.04168324694019571    0.04636412393872009    0.056095685832932625    0.07091123037412252    0.08923217647291516    
  0.10688151304645889    0.11794091514054775    0.11794066174320567    0.10688137628586093    0.08923233379852304    
  0.07091129795164329    0.05609543054257187    0.04636399356021559    0.041682948718620334    0.04168324694019571    
  0.039833587977182484    0.04168325579521943    0.04730327253044171    0.05678182428043199    0.06956659443368007    
  0.08345212909573457    0.09461849205118611    0.09897912635901736    0.094619194848669    0.08345180607074228    
  0.06956629709791931    0.05678189704720356    0.047303655941501745    0.04168288664273701    0.039833587977182484    
  0.044510743641474955    0.046966714656365094    0.054667610404680204    0.06805656717529465    0.08645563566054984    
  0.10685971731517474    0.12346602073799867    0.12992038845476048    0.1234676728218654    0.10685900084387165    
  0.08645572107778218    0.06805605645782813    0.05466826415440591    0.04696704501081828    0.044510743641474955    
  0.046967048322692016    0.04696688691819765    0.0500091057128986    0.05632937336292474    0.0658027286626797    
  0.07730670548601128    0.0882531333071211    0.09510558261653985    0.09510483027924181    0.08825240241432905    
  0.07730657461799381    0.06580255934673565    0.05632983125858933    0.050008468545413555    0.046967048322692016    
  0.05466826878381623    0.054167317699306404    0.054668236926799556    0.05633005799567474    0.05942059113894063    
  0.06396306120292675    0.06916798460769927    0.07343166003036108    0.07511009229862296    0.07343179239699751    
  0.06916838218741761    0.06396395120560944    0.05942019866351573    0.0563298332249123    0.05466826878381623    
  0.0680560570179345    0.06960073480116975    0.06960006968148032    0.06805558586954205    0.06580188318549386    
  0.06396478527692694    0.06325333296862762    0.06347919987723454    0.06393009070243347    0.06393126356700304    
  0.06347830660464424    0.06325379266965749    0.06396392918388898    0.06580255868699421    0.0680560570179345    
  0.08645572215632442    0.09391525321789318    0.09683306897599502    0.09391716237271042    0.08645563657132946    
  0.07730563090121119    0.06916862173944659    0.06347818623716378    0.060417260835827366    0.05950933791456913    
  0.06041740123521272    0.06347829031267654    0.06916838529271589    0.07730655592398125    0.08645572215632442    
  0.10685899281547727    0.12495108436617655    0.13631535394003583    0.13631352876329164    0.12495147956815052    
  0.10686023998513566    0.08825219312418081    0.07343112470447122    0.06393098923401314    0.05950951554433572    
  0.059509356709611785    0.06393129498205695    0.07343178750885325    0.0882524070855056    0.10685899281547727    
  0.12346767693578314    0.15555742789892912    0.18164127531194912    0.19163483998771125    0.1816371712194736    
  0.15555773173386658    0.12346730683862076    0.09510630030066075    0.0751095166262009    0.06393096889855289    
  0.060417264203658526    0.06393008668635462    0.07511007754282616    0.09510483893357358    0.12346767693578314    
  0.12992037851940072    0.17478726546269338    0.21857995373145428    0.24542954654109952    0.245432425024156    
  0.21858804171948304    0.17478614090334949    0.12991930231799928    0.09510630398678033    0.07343112282581488    
  0.06347819137128059    0.06347920383768668    0.07343165561170883    0.09510556925623517    0.12992037851940072    
  0.12346602564264056    0.17478783318103983    0.23265200277197642    0.2779371264024364    0.29455821764606266    
  0.2779346819681255    0.23265602651252773    0.1747861390262495    0.12346729680790372    0.0882522023152917    
  0.06916864189352605    0.06325333627919769    0.0691679856818386    0.08825313359554277    0.12346602564264056    
  0.10685970978805208    0.15555621405122846    0.21858585385278193    0.27793685254638356    0.31228038788018897    
  0.3122709304435755    0.2779346829314664    0.21858803033279506    0.15555775165543317    0.10686023670980734    
  0.07730562530628107    0.06396478384097923    0.0639630524061143    0.0773067039615206    0.10685970978805208    
  0.08645564980011265    0.12495132714425326    0.18164130788814878    0.24542693237691426    0.2945537928840856    
  0.3122803795717419    0.29455821611732386    0.2454324144722766    0.18163715092641838    0.12495147316082462    
  0.08645564268099196    0.0658018819944061    0.059420591611008995    0.06580273322753881    0.08645564980011265    
  0.06805656897756364    0.09391620455078242    0.1363150976475288    0.19163545960277698    0.24542690401646047    
  0.2779368460632705    0.27793711165860085    0.24542952440592938    0.19163483088436165    0.13631352801067578    
  0.09391716034924914    0.06805557818972433    0.056330059877496425    0.05632936636902321    0.06805656897756364    
  0.054667617717045064    0.06960050519653753    0.09683281853993513    0.13631511696829293    0.18164129500880424    
  0.2185858437005559    0.2326520109715453    0.21857998475382304    0.18164127131793675    0.13631535194579816    
  0.09683307840089324    0.06960008357252023    0.05466822781818791    0.050009103658096236    0.054667617717045064    
  0.04696670761559411    0.054168714070844746    0.0696005059302592    0.09391621595352656    0.124951343977301    
  0.15555621324457294    0.17478785131016608    0.17478726157833047    0.15555742791887717    0.12495106317500002    
  0.09391527716207913    0.06960074109289613    0.05416731239930345    0.04696688259093649    0.04696670761559411    
  0.044510743641474955    0.046966714656365094    0.054667610404680204    0.06805656717529465    0.08645563566054984    
  0.10685971731517474    0.12346602073799867    0.12992038845476048    0.1234676728218654    0.10685900084387165    
  0.08645572107778218    0.06805605645782813    0.05466826415440591    0.04696704501081828    0.044510743641474955    
  0.0513973591976944    0.054893080313907404    0.06597942159342242    0.0856945448189275    0.11348858860277464    
  0.14489116863972756    0.17058560252288615    0.1805281257733872    0.17059114836293265    0.14489127010714015    
  0.11348447645335621    0.0856949821315931    0.06597997011751348    0.05489366595677818    0.0513973591976944    
  0.054893667537422856    0.054894509595393666    0.05878104895678257    0.06703190669854525    0.0796323744493878    
  0.09523353267292    0.11027624219638843    0.11961717186217627    0.11961683501378846    0.11027108161126517    
  0.09523374422031461    0.07963455221519973    0.06703203368959007    0.05878062925074675    0.054893667537422856    
  0.06597997778562387    0.0657425606097382    0.06597949857070622    0.06703272215319372    0.06950014395786128    
  0.07366388960832314    0.07885716126397707    0.08325279104442725    0.08497105968223474    0.08325294888166886    
  0.07886018971628059    0.07366454526485759    0.06949770012414055    0.06703202586287968    0.06597997778562387    
  0.08569498322016227    0.08955910617039968    0.08955824453369968    0.08569390800389512    0.07963154963812051    
  0.07366600196626806    0.06938944445080847    0.06710727069840007    0.0662888412555361    0.06629046118980415    
  0.06710637852506503    0.06938812539958152    0.07366454510555015    0.07963454726484014    0.08569498322016227    
  0.11348449155301783    0.12836564240411766    0.13416734955458412    0.12836945531716934    0.1134881017668859    
  0.09523178544971116    0.0788580474988532    0.0671072506829361    0.060493671065690514    0.05842652799853391    
  0.06049366382271493    0.06710634992373002    0.0788601730039449    0.09523371537481524    0.11348449155301783    
  0.14489127016011105    0.17894449556569436    0.20039841580563145    0.20039315933177915    0.17894155629110386    
  0.14489359467262    0.11027384453301338    0.08325181477253873    0.06628970053002181    0.058426795707097356    
  0.05842654095535514    0.06629045578488783    0.08325295589606509    0.11027108152570102    0.14489127016011105    
  0.17059115193164806    0.22855289405462229    0.27427840134990217    0.29117109219509396    0.2742769807624599    
  0.22855191974116207    0.17058898299975858    0.11962005495408923    0.08497028759837505    0.06628971473719657    
  0.060493682371205525    0.06628884353666653    0.08497104135024264    0.11961683729363431    0.17059115193164806    
  0.18052815571661932    0.25899110060611763    0.32907014536629925    0.36556109984313967    0.36556210525119687    
  0.32908913177878013    0.2589955585008313    0.18052245393087    0.11962004209822236    0.08325181328299594    
  0.06710724469889179    0.06710727522240391    0.08325278702902983    0.11961718209515156    0.18052815571661932    
  0.1705856066111708    0.25899860521874435    0.3478688178178006    0.3981467128501614    0.40970041657001754    
  0.39814099722520385    0.3478796341773476    0.25899558510662923    0.1705889813937073    0.11027385533944752    
  0.07885807145026127    0.06938944477444074    0.0788571750037125    0.11027625597897409    0.1705856066111708    
  0.1448911923520527    0.22854855443273928    0.32908391566949624    0.3981492479677221    0.41652370703460295    
  0.41651433525273446    0.3981409993464734    0.32908908638618944    0.22855189584800872    0.1448935835334186    
  0.09523179157930407    0.07366601670168257    0.07366388932988875    0.09523353499617956    0.1448911923520527    
  0.11348860393082866    0.17894069334727333    0.27428805493515224    0.3655412396259104    0.4096999928312858    
  0.41652367737312007    0.4097004261468271    0.3655621036108303    0.27427697536717394    0.17894153335040244    
  0.11348811500508023    0.07963156042173465    0.06950013672210024    0.07963236773723627    0.11348860393082866    
  0.08569453811931196    0.12836941717532932    0.20039560946049922    0.29117706560602963    0.3655411791779711    
  0.3981492413073306    0.3981467116299406    0.36556107726098874    0.29117110365212523    0.20039315934056928    
  0.12836944229806357    0.08569389535023854    0.06703272784652782    0.06703190308426508    0.08569453811931196    
  0.06597943523902494    0.08955853919879198    0.13416603339599567    0.20039563088929516    0.27428804710814203    
  0.3290839180953896    0.34786878003526783    0.32907016343477113    0.274278412157877    0.20039841613817505    
  0.1341673672573558    0.08955824062798758    0.06597948853674862    0.05878104039456977    0.06597943523902494    
  0.05489307697506881    0.06574516762367043    0.0895585521494601    0.1283694081344385    0.17894072732814795    
  0.22854854198215135    0.25899861444558375    0.2589910853325279    0.2285528910124906    0.17894445766111838    
  0.128365648980724    0.089559114057684    0.06574255514153564    0.054894510045195445    0.05489307697506881    
  0.0513973591976944    0.054893080313907404    0.06597942159342242    0.0856945448189275    0.11348858860277464    
  0.14489116863972756    0.17058560252288615    0.1805281257733872    0.17059114836293265    0.14489127010714015    
  0.11348447645335621    0.0856949821315931    0.06597997011751348    0.05489366595677818    0.0513973591976944    
  0.05898048755358771    0.06369437610168459    0.07876210471186142    0.10613805289054597    0.1456348769368485    
  0.1903765456546635    0.22639559563857362    0.24010425276470723    0.2264312213084355    0.19037928997916112    
  0.1456034669493086    0.10614412010942942    0.0787643301920823    0.06369531551076503    0.05898048755358771    
  0.06369531914127183    0.06369609424967013    0.06877384056362094    0.07964844105805968    0.09651933247767579    
  0.1177793324183237    0.13842682846902576    0.15117897725705604    0.1511793688820801    0.13840072868636547    
  0.11777925232284346    0.09654068111123461    0.07964561523765223    0.06877047586674186    0.06369531914127183    
  0.0787643335819953    0.07863769072998263    0.07876165273852781    0.07964237433153269    0.08222945909546427    
  0.08694452965008942    0.09308167973934094    0.09840450231320017    0.1004830636632365    0.09840327210288792    
  0.09309845583018223    0.08694717193966271    0.08220776156673539    0.07964560497929207    0.0787643335819953    
  0.10614413689656162    0.11218887647380889    0.11219120507302895    0.10614511046259277    0.09651862004822732    
  0.08694949046394775    0.07978437434304356    0.0755762754892964    0.0738475688150068    0.07384794009192908    
  0.07557925775166327    0.07976899167059631    0.08694715423600642    0.09654067117149402    0.10614413689656162    
  0.1456034680476873    0.16822839525818659    0.17691716918675374    0.16823029963131383    0.14563571476214532    
  0.11777285688993547    0.09308305937118176    0.07558310272707296    0.06572604197308496    0.06262372212531793    
  0.06572560697825844    0.07557924173804502    0.09309846282500338    0.11777924957888963    0.1456034680476873    
  0.19037930468354206    0.2408290641158018    0.2714129286376282    0.27140351990626854    0.24078745384583863    
  0.19038650013191025    0.13842329367037018    0.09839618312003728    0.07384854863435981    0.06262254995619702    
  0.06262372773152841    0.07384794271345399    0.09840327131861773    0.1384007328036312    0.19037930468354206    
  0.22643124923825975    0.30754337919039854    0.3627973247094727    0.3799265411576005    0.36284919063345494    
  0.30753678301409876    0.22640256575147072    0.1511920705961963    0.10048169449211479    0.07384854019950907    
  0.0657260578519357    0.07384757163152303    0.10048305194378204    0.151179365426552    0.22643124923825975    
  0.24010424902515176    0.34434892442547693    0.40867741558421816    0.4182231574759862    0.4181854293462637    
  0.4086973721038216    0.34440667338705644    0.24007256448408146    0.15119207905213267    0.09839617869081753    
  0.07558310369532509    0.07557630045567042    0.09840450075600798    0.15117897215521983    0.24010424902515176    
  0.2263956148488664    0.34440131368293175    0.4166022791274432    0.39511378298727656    0.36636444997871964    
  0.3951057084397602    0.41659924869714055    0.34440665390038894    0.22640256622507074    0.138423302406503    
  0.09308307962603152    0.07978435861294748    0.09308169419400174    0.1384268198442238    0.2263956148488664    
  0.19037658361457493    0.30753899735472956    0.4087016954819392    0.39510081702486305    0.32512203851893806    
  0.3251621283332421    0.3951056865031685    0.40869732655497626    0.30753682512655084    0.19038650093216414    
  0.11777285929362062    0.08694948397045495    0.08694452416713566    0.1177793188400795    0.19037658361457493    
  0.14563487964802663    0.24079007316076922    0.3628580462809705    0.4181225304148418    0.36644104128439436    
  0.3251220396450726    0.36636447644445813    0.4181854100810183    0.36284916954016067    0.24078743560692145    
  0.14563571054393049    0.09651862759080705    0.0822294582849245    0.09651932542855661    0.14563487964802663    
  0.10613804345179538    0.16824121663661104    0.2714002305695332    0.37997334250724546    0.4181224735850688    
  0.39510077771479857    0.39511374706388686    0.4182231232249999    0.37992654698250766    0.27140353889317453    
  0.1682302846653456    0.10614510103981149    0.07964237063878264    0.07964843841694354    0.10613804345179538    
  0.07876211818137328    0.11219153953728939    0.17691028705769055    0.2714002469463266    0.3628580601542389    
  0.4087017008112032    0.41660226651027366    0.40867743855558625    0.36279729171037767    0.27141291898668607    
  0.17691718659054512    0.1121912149236839    0.07876165368873411    0.06877383538142023    0.07876211818137328    
  0.06369436995059907    0.0786404174887518    0.11219153790617681    0.16824122438227157    0.2407900706660054    
  0.3075389980789391    0.3444013768438335    0.3443489097566687    0.30754339546943643    0.24082903116799    
  0.16822839397708916    0.11218889779585468    0.07863767537745456    0.06369609150017623    0.06369436995059907    
  0.05898048755358771    0.06369437610168459    0.07876210471186142    0.10613805289054597    0.1456348769368485    
  0.1903765456546635    0.22639559563857362    0.24010425276470723    0.2264312213084355    0.19037928997916112    
  0.1456034669493086    0.10614412010942942    0.0787643301920823    0.06369531551076503    0.05898048755358771    
  0.06491907219123393    0.07065080457396487    0.08909247785469314    0.12304029242515133    0.1725448798823384    
  0.22817756746517004    0.27173431113068236    0.28786819355643123    0.27183460007081145    0.22818767218107014    
  0.17246107796153434    0.12305482110382973    0.08910330981916176    0.07065055193849551    0.06491907219123393    
  0.07065054966079092    0.07065134920509528    0.07680237823391556    0.09006627686846295    0.11079472504581903    
  0.13717334403055542    0.16285373405313497    0.17863263348682146    0.17863417737574058    0.16278637710406352    
  0.13717088602513286    0.110854945735245    0.09005596805643534    0.07679154744561731    0.07065054966079092    
  0.08910331933905402    0.08900762850361008    0.08909113298338328    0.09004624704091986    0.09311630424797797    
  0.09865754055137524    0.10585950006487418    0.11219973712441375    0.11468402633260881    0.11219228114220368    
  0.1059074714594415    0.09866209712273132    0.09305943573041395    0.09005596851306429    0.08910331933905402    
  0.12305482711679773    0.13072910480886002    0.13074447166837097    0.12306402148974416    0.11079387557666975    
  0.09866563497342953    0.08944745439453095    0.08382587063784508    0.0814747952677283    0.08147668588493863    
  0.08383621685905297    0.08940186863348105    0.09866207654484198    0.11085492914456122    0.12305482711679773    
  0.17246107558811571    0.2009110467819533    0.21167403653326824    0.2009004198612157    0.17254601367059283    
  0.13716187170565583    0.10586056690845841    0.08384582391554325    0.07149753276411762    0.06762754232915005    
  0.07149425837482305    0.0838362030903782    0.10590749583680313    0.13717086002704276    0.17246107558811571    
  0.22818767774342447    0.2893243661183391    0.32407510398480577    0.32406119499239666    0.2892130464331333    
  0.22819863247550695    0.16285079073369704    0.11217670964647274    0.0814757641866365    0.06762572500302542    
  0.06762754414161336    0.08147670401550966    0.11219226828039701    0.16278636359356843    0.22818767774342447    
  0.27183459960505946    0.36208572065318434    0.40758315956113106    0.4155384688857289    0.40773204229087423    
  0.36207538615457274    0.27174546718491077    0.1786618183203096    0.11468458243517891    0.08147573830388888    
  0.07149754270373858    0.08147479275195381    0.11468399508613299    0.17863417021890596    0.27183459960505946    
  0.2878681944318072    0.39451339820712156    0.41241345302664395    0.36889837341539655    0.36880663676602055    
  0.4124109286036224    0.39467840141110966    0.2877914328366251    0.1786618152971098    0.1121767064239176    
  0.08384582217048399    0.08382586737191908    0.11219972275682313    0.17863266797207328    0.2878681944318072    
  0.2717343437840881    0.3946529405053701    0.39620155750942915    0.2769858578910227    0.21609642248663272    