#     DFTpy    
  CRYSTAL 
    
  PRIMVEC    
  2.4837506295859346    -4.3019822837740245    0.0    
  2.4837506295859346    4.3019822837740245    0.0    
  0.0    0.0    8.210571972610754    
  PRIMCOORD    
  4    1    
  Si    2.4837506295859346    1.4339940945913403    0.5173440347082155    
  Si    2.4837506295859346    -1.433994094591343    4.622630021013593    
  Si    2.4837506295859346    1.4339940945913408    3.587941951597161    
  Si    2.483750629585935    -1.4339940945913425    7.693227937902538    
  BEGIN_BLOCK_DATAGRID_3D    
  3d_datagrid_density    
  BEGIN_DATAGRID_3D#0    
  23    23    37    
  0.0    0.0    0.0    
  2.4837506295859346    -4.3019822837740245    0.0    
  2.4837506295859346    4.3019822837740245    0.0    
  0.0    0.0    8.210571972610754    
  0.018263708583595634    0.018857413024921162    0.020751657677529626    0.02439710195377047    0.03061390845787334    
  0.040482971696457766    0.05535678925447306    0.0762972958342428    0.10252624337750323    0.1300812908409101    
  0.15178574837656464    0.1600963388899568    0.151785729109935    0.13008130498560702    0.10252623421054645    
  0.07629729654227088    0.055356783254772085    0.040482981457949506    0.030613921920781568    0.02439709651578639    
  0.020751657123609997    0.018857410821085302    0.018263708583595634    0.018857412915222162    0.01885736606764451    
  0.020105329880991132    0.022905009152559858    0.02794490572876618    0.036304412998875525    0.04946028044883861    
  0.06895929634181687    0.09521929339488752    0.12580243694253823    0.15427665647261704    0.17174263447903104    
  0.17174400628900977    0.15427395479021433    0.12579644530759856    0.0952251085103228    0.06896163807931356    
  0.04945724946045395    0.03630473441670922    0.02794477071137108    0.02290519439454652    0.020105296214255663    
  0.018857412915222162    0.02075165884117312    0.020105327661006697    0.020751771873478153    0.022905234782430887    
  0.027179300980057323    0.034698591028901826    0.0473083928533167    0.06734265886915274    0.09654587693656896    
  0.1340388101279989    0.1738764122912479    0.20508151944796618    0.21690030363576746    0.20508196777436088    
  0.173888282811962    0.13403588475181205    0.09653856652131777    0.0673436736784377    0.04731086104964983    
  0.03469817833790587    0.027179209975995055    0.022905189399785423    0.02075165884117312    0.024397114533776864    
  0.02290500659371035    0.02290524120672707    0.024396748840257387    0.027945020220959026    0.03469744410839008    
  0.046820766522355464    0.06754122384793709    0.1003358086534696    0.14665802079266366    0.20144677526086494    
  0.25101335144904624    0.27988214650475285    0.2798782577328715    0.25100260918366707    0.20144747110020889    
  0.14666346543904452    0.10033789412241965    0.06754104298518637    0.04681842315696276    0.03469818153540785    
  0.027944769620277372    0.024397114533776864    0.03061391425263373    0.027944901128521132    0.02717930130740115    
  0.027945019230953088    0.030613840008684157    0.036305402318704466    0.04730874841529256    0.06754137919722875    
  0.10216243764599868    0.15556404269378685    0.22465106030145648    0.29141692147572906    0.3337305315239664    
  0.3465860602547053    0.3337449077399382    0.2914144410479792    0.22464379301211537    0.15556848278479452    
  0.10215881158181263    0.06754102464932266    0.04731085367284175    0.0363047240914703    0.03061391425263373    
  0.040482976746257754    0.03630441913309574    0.034698592180327635    0.03469743752039052    0.03630540305155191    
  0.040481413567423935    0.049460575541561934    0.06734175459648233    0.10033592445882202    0.15556717285642227    
  0.2335894652758835    0.31259601783933494    0.3556857512609343    0.3613389253393786    0.36132915543371835    
  0.3556928957600109    0.31261330514884383    0.23358131660389514    0.15556846405937508    0.10033788309805522    
  0.06734366266851156    0.04945724921193957    0.040482976746257754    0.055356781344368326    0.04946026002224575    
  0.047308387134947276    0.04682076334006197    0.047308736056103064    0.04946057115648281    0.05535421369826768    
  0.06896281598545632    0.09654169788673676    0.14666263424916026    0.22464239384175602    0.3126103372785964    
  0.35794584885495584    0.3416493965831223    0.3229605604670871    0.34164606889191657    0.35794534038397113    
  0.3126133536611533    0.22464377702356614    0.14666346100094357    0.0965385664599733    0.06896164183298228    
  0.055356781344368326    0.07629729878513249    0.06895928800246104    0.06734264294945032    0.0675412132817019    
  0.06754139182994902    0.06734174685651545    0.0689628171966187    0.0762963375347744    0.09522061518479376    
  0.134038904073878    0.20144536181735728    0.29141449663520147    0.3556961954446012    0.3416425761812514    
  0.29547885541314506    0.2954860747303467    0.3416460597968383    0.3556929700190517    0.29141444734699595    
  0.20144746655019202    0.1340358788953749    0.09522509074356487    0.07629729878513249    0.10252626425691358    
  0.095219276223649    0.09654588731209239    0.10033581053676713    0.10216245196185762    0.10033593891243105    
  0.09654170400562216    0.09522062712620973    0.10253063435794899    0.1257955117133684    0.1738868643718205    
  0.2510042015630598    0.33374424563293004    0.3613134453502295    0.3229808992290163    0.29547885666530493    
  0.3229605263736515    0.3613291901955144    0.3337449065337804    0.25100261658987955    0.17388827809321747    
  0.1257964525764451    0.10252626425691358    0.13008128919772033    0.12580244101712845    0.1340387782437543    
  0.14665802323206897    0.15556404184141082    0.15556714909053754    0.14666263561895962    0.1340389069136931    
  0.12579546249501813    0.1300845996304561    0.15427273920101664    0.2050847577339624    0.2798795704296416    
  0.3465958613619862    0.36131338249299455    0.34164256379672897    0.3416493655055901    0.3613389532054277    
  0.34658606569978967    0.2798782069723813    0.20508193511329528    0.1542739273005576    0.13008128919772033    
  0.15178574870865902    0.1542766315396005    0.17387638828630184    0.2014467824584437    0.22465104359932153    
  0.233589503940231    0.2246423994097119    0.20144535886421527    0.17388684876549407    0.15427273967234745    
  0.15178741574381824    0.17174382886570952    0.21689872401009794    0.27987954012373484    0.3337442300803551    
  0.35569621806684126    0.3579458692657293    0.3556857622908584    0.3337305425646679    0.27988210606320957    
  0.21690029541096018    0.1717440296371264    0.15178574870865902    0.16009632829143305    0.1717426297255288    
  0.20508151327715746    0.2510133282681516    0.2914169102468113    0.31259604118169143    0.3126103626767309    
  0.2914145125821297    0.25100413544604316    0.20508474158729684    0.17174384627007208    0.16009561300001    
  0.17174384108803895    0.205084740769821    0.2510041486414954    0.2914145334255348    0.31261034983431646    
  0.312596079655128    0.29141693115771855    0.2510132922630328    0.20508149611798637    0.17174263117569671    
  0.16009632829143305    0.15178575530563487    0.1717440206903048    0.21690032790890088    0.2798821458975194    
  0.3337305653749359    0.3556857495082936    0.35794589594704557    0.3556962341603143    0.333744233131376    
  0.279879576891994    0.21689875279962822    0.17174383151546427    0.1517873746980507    0.154272738342845    
  0.1738868509834654    0.2014453301336529    0.22464240690619383    0.2335895205317043    0.22465102019799102    
  0.2014467633745294    0.17387641341667384    0.15427664857514622    0.15178575530563487    0.1300813085711624    
  0.15427393889790111    0.20508196465225886    0.27987823002337964    0.34658607120354823    0.36133890104988436    
  0.3416493780202489    0.3416425441126328    0.36131333851803826    0.34659588597079205    0.27987958470051116    
  0.2050847487225658    0.1542727197415545    0.13008457456165506    0.12579549193947226    0.13403888234081704    
  0.14666260923534147    0.15556717921664123    0.15556404882162442    0.14665801654875982    0.13403878150166088    
  0.12580242932953292    0.1300813085711624    0.10252625693680201    0.12579644346947763    0.17388828751543378    
  0.2510026219106117    0.3337449248672242    0.36132917893449373    0.32296054612467706    0.2954788593078848    
  0.3229809089751667    0.36131336621548615    0.33374424745902503    0.2510041771122816    0.173886855782724    
  0.12579548935910287    0.10253063088429995    0.09522062460252952    0.09654169307203495    0.1003359444995166    
  0.10216245948197139    0.1003358178864207    0.0965458729610271    0.09521928207522024    0.10252625693680201    
  0.07629730609931454    0.09522508007647577    0.13403589444728023    0.20144745652852175    0.2914144141136776    
  0.35569290074942084    0.3416460733795906    0.29548610672385944    0.2954788423313701    0.3416425537086317    
  0.3556962450231926    0.2914145253120069    0.20144534399631714    0.13403889449322043    0.09522062836700008    
  0.07629634647223933    0.06896279059491825    0.06734175568255717    0.06754138744985318    0.06754120467785547    
  0.06734264350647157    0.0689592910132428    0.07629730609931454    0.05535678695005669    0.06896164056353479    
  0.09653856953375335    0.1466634450976655    0.22464374827101705    0.3126132727912423    0.3579453625483356    
  0.34164606087296184    0.322960565605188    0.34164936266289175    0.3579458375563894    0.31261032943932976    
  0.22464237849130297    0.14666264025765552    0.09654168474977445    0.06896281039248275    0.05535419891097883    
  0.04946058483433093    0.04730873880754754    0.04682076312812929    0.04730838669025907    0.0494602626200636    
  0.05535678695005669    0.04048297743534112    0.04945724443481992    0.06734366526984142    0.10033786676076802    
  0.15556846135210445    0.23358129349724052    0.312613332858078    0.3556929091238736    0.36132914446794834    
  0.3613389109063248    0.3556857479496501    0.31259603411156484    0.23358951078562915    0.1555671463872288    
  0.10033592282027881    0.06734174921592884    0.04946056568359487    0.04048143601444933    0.03630540501525119    
  0.03469744088695345    0.03469859240170463    0.03630441508577215    0.04048297743534112    0.03061391533615793    
  0.036304725411440184    0.04731085594600628    0.06754101351355347    0.10215879928394758    0.1555684505087065    
  0.22464380612481846    0.29141441254844447    0.3337449451191267    0.3465860706817091    0.3337305941099329    
  0.29141689972281554    0.22465104502449226    0.15556407523245763    0.1021624507929294    0.06754138706177845    
  0.047308725103612885    0.03630541129743495    0.03061384463015663    0.02794501806307235    0.027179296026156492    
  0.027944900519886604    0.03061391533615793    0.024397110598593553    0.02794476660618306    0.03469818210140579    
  0.046818428005091714    0.06754101842496872    0.1003378701798688    0.1466634662084021    0.20144747282172382    
  0.25100264093201674    0.27987824435797043    0.27988212630090764    0.2510133701403313    0.20144676370378933    
  0.14665804929409232    0.10033582558117206    0.06754121113151976    0.046820758201658964    0.03469745210473774    
  0.02794502891579658    0.024396741637603466    0.02290524129744646    0.022905004347901707    0.024397110598593553    
  0.02075165808591418    0.02290519160812728    0.02717920711678714    0.03469818666256799    0.04731084723901232    
  0.06734365645148348    0.0965385810307532    0.13403588785502335    0.17388823670864129    0.20508192774591974    
  0.21690033041329826    0.2050815141926838    0.17387638074676792    0.1340387891624866    0.09654587452274228    
  0.06734265608539039    0.047308382745123466    0.03469859853379241    0.027179302218455173    0.02290523435966661    
  0.02075177204074637    0.02010532888801112    0.02075165808591418    0.018857411710115585    0.020105299756298826    
  0.02290519490844633    0.027944772735191255    0.03630472529535524    0.04945724447315048    0.06896165110453037    
  0.0952251094926995    0.12579645645002627    0.15427392272199328    0.17174405326648626    0.17174262918974964    
  0.15427662941592363    0.1258024452131669    0.09521926662008068    0.0689592947281799    0.049460267383843126    
  0.03630441584106018    0.027944913938277485    0.022905006138940812    0.02010532541121108    0.018857358462232795    
  0.018857411710115585    0.018263708583595634    0.018857413024921162    0.020751657677529626    0.02439710195377047    
  0.03061390845787334    0.040482971696457766    0.05535678925447306    0.0762972958342428    0.10252624337750323    
  0.1300812908409101    0.15178574837656464    0.1600963388899568    0.151785729109935    0.13008130498560702    
  0.10252623421054645    0.07629729654227088    0.055356783254772085    0.040482981457949506    0.030613921920781568    
  0.02439709651578639    0.020751657123609997    0.018857410821085302    0.018263708583595634    0.018029165828664366    
  0.018609855726262066    0.020467100921247604    0.024041267412916713    0.030118861020746457    0.03973106821954218    
  0.054153669969126544    0.0743840008704992    0.09964279682423481    0.12609520064126686    0.14690576053267912    
  0.15487205069924395    0.14691113008500162    0.1260966054264732    0.09963038708192891    0.07438577437531475    
  0.05415999633892639    0.03972953698076486    0.030118487520406693    0.024041190591889475    0.020467450691064898    
  0.01860971581998399    0.018029165828664366    0.01860971761751652    0.018609729218096675    0.01977491794251011    
  0.022360952168913806    0.026973958193991086    0.03450794399759226    0.04612929124547229    0.06304377440876799    
  0.08549910424368301    0.11139487781903516    0.13531662655162927    0.14990901701383208    0.14990727587467775    
  0.1353122244540186    0.11139292929843747    0.08551100808152479    0.06304245094586333    0.046123445613434004    
  0.03450894460319975    0.026974538033676523    0.02236064927818982    0.019774976553335915    0.01860971761751652    
  0.02046745068214352    0.019890365110415954    0.02046734411831451    0.022360814344325613    0.026064089407568047    
  0.03244731307428279    0.04284942349357709    0.05893563458573656    0.08182312066174083    0.1106107277336945    
  0.1408817460546463    0.16454619987142577    0.17352522971120235    0.164547224722899    0.14088674704453813    
  0.11061114633585695    0.08181213902743713    0.0589367282841119    0.04285539423798015    0.03244594219282259    
  0.026064065309490604    0.022360648013829382    0.02046745068214352    0.024041205386604512    0.02279432670052119    
  0.0227944776203967    0.02404128988124013    0.026973859292350726    0.03244574379542386    0.04200004987400186    
  0.0578459452587626    0.08221821790712619    0.11588458030838894    0.15546169306332772    0.19204449242571328    
  0.2141962760446838    0.2141962871378299    0.1920439936151974    0.15545925803553676    0.1158829061515332    
  0.08222924015712255    0.057844165440237676    0.041995358253670914    0.03244594646548818    0.02697453258390508    
  0.024041205386604512    0.030118482376913044    0.028049639871179408    0.02746108830303569    0.028049418448550315    
  0.030119084820413772    0.03450968337223811    0.042849451299532555    0.057844643228004436    0.08281089525685352    
  0.12048555323272991    0.1696285042772241    0.22082825282407378    0.2591447774310833    0.2731020791347288    
  0.25914382451778406    0.22082737495562177    0.16963156685817257    0.12048820142252822    0.08280111221580844    
  0.057844152507497124    0.04285538465916745    0.03450893230054669    0.030118482376913044    0.03972953668528478    
  0.036836364969545565    0.035782867537280647    0.03578308495841148    0.036835728976958214    0.03972879065697348    
  0.04612964501234245    0.05893629826783254    0.08221863273616759    0.12049086106178088    0.1754070126657154    
  0.23874406490396385    0.2914432335759254    0.3185471579471787    0.3185463967313763    0.2914488257914643    
  0.23874581652145366    0.17540340937889126    0.12048817120393458    0.08222921540815166    0.058936722264180105    
  0.04612344407133018    0.03972953668528478    0.05415999621745346    0.05081190550094965    0.04998532741668119    
  0.04992060970957672    0.049986483735223186    0.05081222088053068    0.05415318007829372    0.06304353224668778    
  0.08182200496559287    0.1158808250432476    0.16962780983772907    0.23874670756515629    0.3025428234053601    
  0.3383968899988331    0.3474817848755157    0.3383957248898134    0.30254675861740393    0.2387458779032256    
  0.16963157618665767    0.1158828649556089    0.08181215287500243    0.06304245050319852    0.05415999621745346    
  0.07438577701913542    0.07171324374928573    0.07292274497553888    0.07455504672326226    0.07455329097295545    
  0.07292212342971745    0.07172170596327525    0.07438482267806243    0.08549967157300181    0.11061524743446657    
  0.15546076728734648    0.22082578069234202    0.29144904818728823    0.3383979096941941    0.3529891047249595    
  0.35298683552433785    0.3383957475099114    0.2914488625015124    0.22082737872691405    0.15545923948276272    
  0.11061113274745092    0.08551099312331627    0.07438577701913542    0.09963040234015828    0.10004378574064171    
  0.10688000938974807    0.11426275004796396    0.11738838436366057    0.11426456363879402    0.10686774018567569    
  0.10004629076920071    0.09964188872280466    0.11139022972982929    0.1408837137768126    0.1920445529169076    
  0.25914539141047693    0.3185405248356775    0.34748218855874363    0.35298910161399005    0.347481843390893    
  0.3185464849871399    0.2591438354625231    0.19204401229574025    0.1408867273161632    0.11139293484329002    
  0.09963040234015828    0.126096615632036    0.1331655081171102    0.1509360742932492    0.17092874025514115    
  0.18395395594609865    0.18395603998810445    0.17094430076770423    0.1509353297575016    0.13315040460872418    
  0.1261003679593279    0.13531506776291297    0.16454728866454524    0.2141965778424191    0.2731042020393012    
  0.3185404535693106    0.33839794283100094    0.33839682483742795    0.3185471713104738    0.27310208798861335    
  0.21419623549893335    0.1645472092652972    0.1353122023886088    0.126096615632036    0.14691114978942577    
  0.16406314326276047    0.1977277486013208    0.23702309271506303    0.26690852147760297    0.27770291764681493    
  0.26688380010672313    0.2370198338607631    0.19774933419786292    0.16405956998122267    0.1469080746232943    
  0.14990888558330784    0.17352405046213296    0.2141965563754853    0.25914537811718746    0.2914490817425555    
  0.3025428560309473    0.29144324696980345    0.2591448118493112    0.2141962937807207    0.1735252144277113    
  0.14990727840780876    0.14691114978942577    0.15487206429754793    0.18304904445695003    0.23400983221686036    
  0.29361875044781754    0.33541460015985264    0.3500502475669675    0.3500853335996815    0.33541711122393214    
  0.2935959735986084    0.23401313392588421    0.1830543484718795    0.15487106331293954    0.14990888520962206    
  0.164547304472378    0.19204451698234223    0.22082579774293032    0.23874674604774507    0.2387441095301899    
  0.22082825848711357    0.1920444751002832    0.16454618704690763    0.14990901738036477    0.15487206429754793    
  0.14690575546028617    0.18305392466473203    0.24760462970627573    0.32390318715103206    0.36343497151998566    
  0.34775996965103967    0.33032770802992284    0.3477717512611863    0.3634628984976242    0.3239020598510885    
  0.24759823067539047    0.1830543507162198    0.14690805264228182    0.1353150534069247    0.14088369215925073    
  0.15546075692811304    0.1696277961509421    0.17540702634739735    0.169628493294217    0.15546168247582595    
  0.14088175298236985    0.13531663183410497    0.14690575546028617    0.12609521526321005    0.16406592722536736    
  0.23400579985713352    0.32389808341393894    0.36652658799934673    0.3094326276835908    0.23664806989573844    
  0.23663462580686634    0.3093919239986033    0.36654498676070046    0.3239020421436624    0.23401314405419707    
  0.16405956670250815    0.12610034190146388    0.11139021171500062    0.1106152311458354    0.11588080790796479    
  0.12049086795722713    0.12048553990133307    0.11588456971437654    0.11061070430894136    0.11139489474266435    
  0.12609521526321005    0.09964280733819653    0.13314842857628229    0.19775132021602554    0.293590999965218    
  0.3634704251861872    0.3094144282349373    0.19191427384286128    0.14368302243084294    0.1919468411464522    
  0.30939191436350144    0.36346291047631574    0.2935960402419893    0.19774934720591997    0.13315042686062245    
  0.09964189503711895    0.08549968712732757    0.08182201987430138    0.08221866392189195    0.0828109105673201    
  0.08221820947839106    0.08182312598025088    0.08549909838288675    0.09964280733819653    0.07438401060918838    
  0.10004706088642569    0.15093366501232086    0.237024678270816    0.3354130735767047    0.34776289425834606    
  0.23664733164576476    0.1436935111309861    0.1436830177719396    0.2366346122630268    0.3477717836364784    
  0.33541706458644394    0.23701981561101312    0.15093532799328394    0.10004628677653833    0.07438484321931092    
  0.06304351610427446    0.0589363051566992    0.05784464843348673    0.05784593065151028    0.058935632262601095    
  0.06304377248550916    0.07438401060918838    0.054153665970907955    0.07172103530304298    0.10686865130738471    
  0.170943713319436    0.26688564111687885    0.35009456347038587    0.3303173903441741    0.2366472969071333    
  0.19191424529775677    0.23664807527308004    0.33032764624871597    0.3500852895176332    0.26688375361760863    
  0.1709443009838762    0.10686773725810807    0.07172170155686114    0.054153158772457216    0.04612965278742684    
  0.042849439640102266    0.04200005214056409    0.04284941281604417    0.04612928350143317    0.054153665970907955    
  0.03973107352997946    0.05080970995845705    0.07292593006393978    0.1142591048730599    0.1839622446472609    
  0.27768241005665995    0.3500946139999224    0.34776290561432244    0.3094144226086024    0.3094326507785739    
  0.3477599391160929    0.3500502647094746    0.2777029144145956    0.1839560252111941    0.11426454051840036    
  0.07292212778620309    0.05081222316530105    0.03972881532065668    0.034509687623015886    0.03244574529475778    
  0.032447313857131094    0.034507943956426784    0.03973107352997946    0.03011886376956377    0.036835850024523054    
  0.04998546642963649    0.07455402809638711    0.11738860842026384    0.1839622401028655    0.2668857177179475    
  0.3354130393879361    0.3634704551558916    0.36652659836806933    0.36343497498064176    0.33541457657643936    
  0.26690849311988163    0.1839539600657662    0.11738838706143931    0.07455328466355367    0.04998648374817994    
  0.036835732249671516    0.030119091881693382    0.026973850907241373    0.026064087890760104    0.026973952720342406    
  0.03011886376956377    0.024041274861911672    0.028049405554231854    0.03578349952286583    0.04992054183421957    
  0.07455403637627664    0.11425911810095785    0.17094376330313416    0.23702469003808072    0.293590968276258    
  0.3238980917013569    0.3239031836957703    0.2936187955472861    0.23702306247619517    0.17092874920009413    
  0.11426276545715869    0.07455503840731247    0.04992060665768298    0.035783094429045564    0.028049423044375747    
  0.024041285113589383    0.022360816365798033    0.02236094326892479    0.024041274861911672    0.020467104769014092    
  0.02279476619247165    0.02746031097529795    0.035783492732863825    0.049985462644861575    0.07292591888172689    
  0.10686865618785224    0.15093365601530634    0.19775128156518226    0.23400582542790752    0.2476046551571366    
  0.23400986829462728    0.19772773859913453    0.1509361070150456    0.10688000095110929    0.07292274973939061    
  0.04998531937828161    0.03578286745375009    0.0274610860687756    0.022794472424799164    0.020467343850843277    
  0.019774916006983966    0.020467104769014092    0.018609853914867733    0.01989024316150806    0.022794772084727483    
  0.02804941198016958    0.036835857546247366    0.05080971855001678    0.07172104959286427    0.1000470896376102    
  0.1331484359651727    0.1640658967381204    0.18305396430047896    0.1830490800155552    0.16406314199133618    
  0.13316551600553211    0.10004376908082095    0.0717132431848094    0.050811906542605145    0.0368363608830534    
  0.02804964714754375    0.022794328314576392    0.019890362286223675    0.01860972502922953    0.018609853914867733    
  0.018029165828664366    0.018609855726262066    0.020467100921247604    0.024041267412916713    0.030118861020746457    
  0.03973106821954218    0.054153669969126544    0.0743840008704992    0.09964279682423481    0.12609520064126686    
  0.14690576053267912    0.15487205069924395    0.14691113008500162    0.1260966054264732    0.09963038708192891    
  0.07438577437531475    0.05415999633892639    0.03972953698076486    0.030118487520406693    0.024041190591889475    
  0.020467450691064898    0.01860971581998399    0.018029165828664366    0.017347166337704188    0.017896655619671666    
  0.019655874947930887    0.023023898272196554    0.028691547583608184    0.03757313322840061    0.050764466829979586    
  0.06906515497666965    0.09168830543893802    0.11518757524692906    0.1335682245480452    0.14058484129162552    
  0.13357585309541223    0.11519148444785254    0.0916743523909203    0.06906583987223483    0.0507726689932603    
  0.037571224157179096    0.028690788593332236    0.023023746732299462    0.019656387229139184    0.017896460353753155    
  0.017347166337704188    0.017896462906096457    0.017896657974060214    0.018943101560176225    0.021247119737556025    
  0.02530519577939081    0.03179819619237565    0.04155954206607749    0.05540054759325756    0.07337127761749614    
  0.09374358226895561    0.11230430220544761    0.12351244525145862    0.12351131696558836    0.11229796155694724    
  0.09374079358955044    0.07338381122649139    0.0553999456463922    0.04155246680646867    0.03179934871277426    
  0.025306271990739544    0.02124662566860886    0.018943303324714878    0.017896462906096457    0.01965638417942446    
  0.01916539996330917    0.019656249050836114    0.02124685779605488    0.024317789855104726    0.029490188339690637    
  0.037609239811084175    0.04970610887908546    0.0663552753356396    0.0867052031442172    0.10765479254493984    
  0.12379868403703675    0.12987629229837036    0.12379915966752632    0.10766065928477875    0.08670672171749294    
  0.06634382982253828    0.04970637852934322    0.037616543975281    0.029488562545969734    0.0243175681115421    
  0.02124662175815163    0.01965638417942446    0.023023761636484123    0.022043766378463094    0.02204390967040344    
  0.023023777017161216    0.025305292765564077    0.029488061678012732    0.03653821260404894    0.04774601279608134    
  0.06435301601442901    0.08653885895509247    0.11197498351058034    0.13523182359817615    0.14933234392332329    
  0.14933227063816007    0.1352325824860011    0.11196981859930256    0.0865372700265176    0.06436440270684085    
  0.04774507680482053    0.03653188427075747    0.029488566070687117    0.0253062658796217    0.023023761636484123    
  0.028690787800906784    0.027232663931346275    0.02682179965006386    0.027232515575757416    0.028691730558396855    
  0.03180046474370722    0.0376089923503264    0.047745584465448576    0.06405088449074739    0.08784477615044828    
  0.11820423353425796    0.15003235378743238    0.17478556262386835    0.18418147152589678    0.17478424586113495    
  0.1500321409674386    0.11820915689618161    0.08784648459460136    0.06404044243135934    0.047745066015083555    
  0.037616532556768056    0.03179933938225661    0.028690787800906784    0.03757122035454059    0.035904734931864225    
  0.035378569102518104    0.0353786684965282    0.035903565771106545    0.037570290724946706    0.041559870004690184    
  0.04970669567021681    0.06435266523312738    0.08784906953232499    0.1209753435180077    0.1601089350055656    
  0.19608554519533272    0.2176639998587444    0.2176644558149168    0.1960869212741017    0.16010956364084522    
  0.12097110189807313    0.08784647047325589    0.06436438795290986    0.049706372286626    0.04155246882271729    
  0.03757122035454059    0.05077266626624375    0.049724177622195956    0.05008377109760009    0.05039537346606375    
  0.05008565031967821    0.049724880876334934    0.0507643664697157    0.05540007202710224    0.0663551198036781    
  0.08653544483155236    0.11820397566176256    0.16011127587341625    0.20437303127548317    0.23789166219527938    
  0.2501283751819993    0.2378916981101144    0.20437542000264214    0.16010958462844388    0.11820917656675335    
  0.08653725540145041    0.06634383058720289    0.055399942007790595    0.05077266626624375    0.06906584487732084    
  0.07039794499614532    0.07397711422794843    0.07678669769493027    0.07678421123793912    0.07397575617522727    
  0.07040801481216422    0.06906635491061928    0.07337101757830365    0.08670930734642361    0.11197463140605395    
  0.15002927542544298    0.19608867768221455    0.23789128505229898    0.2619191775432736    0.26191549428970373    
  0.23789172184485888    0.19608696696410965    0.1500321381874089    0.11196980412662172    0.08670672232938069    