#     DFTpy    
  CRYSTAL 
    
  PRIMVEC    
  1.7530527796302289    -3.036376482669403    0.0    
  1.7530527796302289    3.036376482669403    0.0    
  0.0    0.0    3.2998120804137927    
  PRIMCOORD    
  1    1    
  Si    0.0    0.0    0.0    
  BEGIN_BLOCK_DATAGRID_3D    
  3d_datagrid_density    
  BEGIN_DATAGRID_3D#0    
  15    15    15    
  0.0    0.0    0.0    
  1.7530527796302289    -3.036376482669403    0.0    
  1.7530527796302289    3.036376482669403    0.0    
  0.0    0.0    3.2998120804137927    
  0.08756060548146967    0.16081739824268848    0.37560733515573047    0.4478419801091816    0.29128845378456725    
  0.1520467161107301    0.08610290585607795    0.06862373951028457    0.08610287939021896    0.15204674399493553    
  0.2912884443236483    0.4478420253089981    0.3756072705690637    0.16081737661877551    0.08756060548146967    
  0.16081739584918983    0.16056754104725934    0.3143878889315966    0.4584687006269039    0.3617432705517314    
  0.19967219056317226    0.10588410090878235    0.06975519259673739    0.0697857041297937    0.10584436233102332    
  0.19973318864903308    0.3616771610727536    0.4584099211851496    0.31434289160399975    0.16081739584918983    
  0.3756072334381615    0.31438791291555046    0.3760519483261738    0.45829910707832006    0.3859300161584261    
  0.23065103593021025    0.12271212812553144    0.07251542499586874    0.0589013677745887    0.07251891762391731    
  0.12270365118545373    0.23064360715148832    0.3860399213383595    0.4584099472852525    0.3756072334381615    
  0.4478419415401847    0.4584687637100577    0.45829907057715386    0.44759596478615205    0.3616816375434807    
  0.2307728488550767    0.12935523355019474    0.07485415965347643    0.053120403551835525    0.05313587438865257    
  0.07483455062562343    0.1293981244904392    0.2306436332323325    0.3616771290976702    0.4478419415401847    
  0.29128844359496486    0.361743244740539    0.38592994135226005    0.36168169366260944    0.29153698893003177    
  0.19969108208709724    0.12264214790788167    0.07484501599715777    0.05142592251423457    0.044614954407016516    
  0.05142683768764633    0.07483454584914773    0.12270366653111676    0.1997331915077385    0.29128844359496486    
  0.15204674862378237    0.19967218553224736    0.23065105656532078    0.2307728764500433    0.19969109076192823    
  0.1518790172854106    0.10586580697039343    0.07256927024519103    0.0531246108013284    0.044620207935518644    
  0.04461495243853405    0.05313586308050681    0.07251890853698092    0.10584436158310594    0.15204674862378237    
  0.08610288234596086    0.10588409476977985    0.1227120944277011    0.12935521748897869    0.12264212927354824    
  0.10586577445174575    0.08623059076170814    0.06976641102217292    0.05886029868403812    0.053124620666077434    
  0.051425912002951435    0.05312039172094016    0.05890137042148037    0.06978572654208949    0.08610288234596086    
  0.06862373708099018    0.06975519779843953    0.07251542799040833    0.07485415117741365    0.07484500155295042    
  0.07256925590330643    0.06976643289766772    0.06851585206605788    0.06976641248265339    0.07256926995998825    
  0.07484498883149757    0.07485414926859714    0.07251542550911728    0.0697552016699669    0.06862373708099018    
  0.08610287779287067    0.06978570853450951    0.058901368007930825    0.05312041052847037    0.05142591869373579    
  0.05312460754810255    0.0588603303951408    0.0697664060532882    0.0862305634453756    0.10586580726956273    
  0.12264211470386417    0.1293552242126963    0.12271211239345839    0.1058840997564923    0.08610287779287067    
  0.15204674543137317    0.1058443616642526    0.07251892094147759    0.0531358743602553    0.04461495669691153    
  0.044620188688931126    0.05312462924629553    0.0725692691135428    0.10586579354518388    0.15187904203224675    
  0.19969107581004564    0.2307728257597083    0.23065105123169186    0.1996722609827761    0.15204674543137317    
  0.29128844620457073    0.19973319190242644    0.12270365151786486    0.07483456058962143    0.051426841783659985    
  0.044614957663313054    0.051425934316050186    0.07484501652791047    0.12264213107839601    0.19969111385707872    
  0.29153701914243374    0.3616816385363574    0.3859300154915021    0.36174331323207126    0.29128844620457073    
  0.44784199922011214    0.3616771252995188    0.23064363354889478    0.1293981482284479    0.07483454897280746    
  0.05313586601143007    0.053120421232443385    0.07485417444028196    0.12935522408070024    0.23077287594906065    
  0.3616817277134072    0.44759600095953783    0.4582991010374191    0.4584687485677515    0.44784199922011214    
  0.3756072708077674    0.458410019816577    0.3860398682290762    0.23064362944108777    0.12270364663726334    
  0.07251890801452174    0.05890137696095768    0.07251543081111779    0.12271212119195472    0.23065111045927092    
  0.3859299639534157    0.4582990815504506    0.37605187323112876    0.3143879645268822    0.3756072708077674    
  0.16081734935901187    0.31434286601117906    0.4584099802028376    0.36167711243728157    0.19973315359428734    
  0.10584435362723892    0.06978572866035883    0.06975519335689385    0.10588408434578714    0.19967223725186012    
  0.36174325853425815    0.4584686709842305    0.31438792249596453    0.1605675666394141    0.16081734935901187    
  0.08756060548146967    0.16081739824268848    0.37560733515573047    0.4478419801091816    0.29128845378456725    
  0.1520467161107301    0.08610290585607795    0.06862373951028457    0.08610287939021896    0.15204674399493553    
  0.2912884443236483    0.4478420253089981    0.3756072705690637    0.16081737661877551    0.08756060548146967    
  0.1503152041005662    0.23013671250990891    0.4147178361056982    0.4327145637205551    0.2722547752437927    
  0.142740519452132    0.08183701887100742    0.06555045127941493    0.08183699765147609    0.14274055279367118    
  0.27225470866350504    0.432714612108893    0.41471776573462105    0.23013672911807415    0.1503152041005662    
  0.23013672749990477    0.2298709375394315    0.36834437595572284    0.4574619038212674    0.3398724050663521    
  0.18673182130308935    0.10012597498269275    0.06661941133104375    0.0666452799130128    0.10009260495103932    
  0.18678088708271584    0.3398154238665446    0.45743790647020144    0.36827962831336675    0.23013672749990477    
  0.4147178056405352    0.368344335358787    0.4150979963947098    0.45733515206237074    0.3639112076009733    
  0.21540203453762702    0.11566493734682542    0.069206325792097    0.05649206663829474    0.06920931623415225    
  0.1156584952656925    0.21540124666601768    0.36397659715200154    0.4574379293688669    0.4147178056405352    
  0.4327145794986247    0.4574619447958679    0.45733508327453065    0.4325099649858395    0.3398363618540857    
  0.21548240649101988    0.12183111447027975    0.07138424974896565    0.05112170283026911    0.05113032249431696    
  0.0713729097736709    0.12185572916403532    0.21540124952133713    0.3398154314531426    0.4327145794986247    
  0.27225471352520947    0.339872373680743    0.3639111279061152    0.33983640468404525    0.27244437509741887    
  0.18674241697167926    0.11561858964881044    0.07137894500101093    0.049540340047927574    0.04316274749238369    
  0.049541100979540155    0.07137291472641683    0.11565851022459799    0.186780904615308    0.27225471352520947    
  0.14274056139699812    0.1867318246968328    0.21540203451564124    0.21548239650250378    0.18674242017590553    
  0.14261355800117007    0.10011365339322718    0.06924114266704902    0.051124374560257875    0.04316543415659442    
  0.0431627428753062    0.051130306968629635    0.06920931683784284    0.10009259202936187    0.14274056139699812    
  0.08183699932060201    0.1001259715972286    0.11566491927746729    0.12183108213534888    0.11561855458398959    
  0.10011362123126075    0.08193202962454937    0.06662921605366351    0.056465018340241056    0.05112438139970018    
  0.04954032186182866    0.051121695085866586    0.05649207070645428    0.066645294550161    0.08183699932060201    
  0.06555045042462729    0.06661941541422554    0.06920632411839243    0.0713842417651187    0.07137894954833804    
  0.06924112585934458    0.0666292402038699    0.06546933467100798    0.06662920822458585    0.06924113546954655    
  0.0713789166745257    0.07138424459447136    0.06920632221462698    0.0666194160980538    0.06555045042462729    
  0.08183699145384798    0.06664527525719274    0.056492070901671375    0.051121707023884695    0.04954033214030377    
  0.05112436554858211    0.05646503790949553    0.06662920799704826    0.08193200020916565    0.10011365823056062    
  0.11561855992534    0.12183109098212522    0.1156649250579268    0.10012597162064149    0.08183699145384798    
  0.14274056452215117    0.10009259637675862    0.0692093263435188    0.05113031741420112    0.04316274282187399    
  0.043165411165125143    0.05112438528411028    0.06924113388041199    0.10011362702807884    0.14261360051647293    
  0.18674241767864425    0.2154823797125823    0.21540204759177764    0.1867318563143948    0.14274056452215117    
  0.2722547461264432    0.1867809080688059    0.11565849253979192    0.07137292124739011    0.04954109340735599    
  0.04316274239587314    0.04954034018592047    0.07137894801392725    0.11561856972926975    0.18674244041389063    
  0.2724443733124528    0.3398363931887976    0.36391116393934525    0.33987243304713566    0.2722547461264432    
  0.43271459616970376    0.3398154186676543    0.21540127415167043    0.12185573628817191    0.07137292172639804    
  0.0511303039577888    0.05112171834378467    0.07138425145399689    0.12183108252960938    0.21548239746998368    
  0.33983643140981545    0.43250997900942    0.45733509952700463    0.4574619330686916    0.43271459616970376    
  0.4147177801167989    0.4574379817922526    0.3639765438243813    0.21540125903854093    0.11565848204801919    
  0.06920931476298285    0.05649208802577367    0.06920633292955755    0.11566493511365765    0.21540205999059853    
  0.3639111504277346    0.457335045552601    0.41509789262063945    0.3683444207989347    0.4147177801167989    
  0.23013672704823057    0.36827956625599484    0.45743791818349466    0.3398153962946163    0.18678088898982112    
  0.10009258577456866    0.06664530982722022    0.06661940325927249    0.10012595019989572    0.18673184399973716    
  0.3398723727409022    0.45746180750179755    0.3683443796930363    0.22987095863392548    0.23013672704823057    
  0.1503152041005662    0.23013671250990891    0.4147178361056982    0.4327145637205551    0.2722547752437927    
  0.142740519452132    0.08183701887100742    0.06555045127941493    0.08183699765147609    0.14274055279367118    
  0.27225470866350504    0.432714612108893    0.41471776573462105    0.23013672911807415    0.1503152041005662    
  0.34295352429650283    0.396081514897222    0.4553006211893167    0.3713094381526459    0.2212795906518024    
  0.11866449230575082    0.0707585650689226    0.057620842679222996    0.07075853216689804    0.11866451092498324    
  0.2212795928717496    0.37130941972644654    0.45530060242591397    0.396081539938326    0.34295352429650283    
  0.39608152604545227    0.3959230201614923    0.45018046645961635    0.41675620747627806    0.2779546379414094    
  0.15317341662931175    0.08521369159978286    0.05851869565328679    0.0585268396674141    0.08520330953177921    
  0.1531893682701527    0.2779335121847252    0.41676072581628526    0.4501314401774289    0.39608152604545227    
  0.4553005567486851    0.45018042805285874    0.45545928006149505    0.4167113806840051    0.2994657053064853    
  0.1757531492895418    0.09743792276175592    0.06058999487086901    0.05028688191900674    0.06059164699054794    
  0.09743337606036262    0.17575816456034524    0.29947235398725686    0.41676072277036547    0.4553005567486851    
  0.37130942569621245    0.41675622598865847    0.41671134662226916    0.37123578342079083    0.2779485283196547    
  0.17577466897021768    0.10231282829784771    0.06228547426479685    0.04590155099202601    0.04590230866215563    
  0.062284536795234935    0.10231714824932071    0.17575814419504446    0.27793354380820495    0.37130942569621245    
  0.22127958568206602    0.27795461469128663    0.2994656535567933    0.2779485309848745    0.22134161249938236    
  0.15317288122038822    0.09742627658037878    0.06228528119325209    0.044583212699266406    0.039360273478147786    
  0.044583010248117165    0.062284533492359836    0.09743338087488333    0.15318939473961887    0.22127958568206602    
  0.11866449569199143    0.15317343146437937    0.17575318779078275    0.17577468762142093    0.153172888013497    
  0.11862424214428867    0.0852113399449521    0.06059766857260603    0.04590191754222972    0.03936006463423368    
  0.03936026399497201    0.045902290772416865    0.06059164633082733    0.08520329722915956    0.11866449569199143    
  0.07075855382512758    0.08521368333178679    0.09743789531560848    0.10231282152304769    0.09742624044384739    
  0.08521132408864535    0.07078875815440994    0.05852234585589349    0.05028033159832187    0.045901925693679305    
  0.044583199134501816    0.0459015450352033    0.0502868753721869    0.05852684665653913    0.07075855382512758    
  0.057620837492387444    0.05851868953077372    0.06058999336769772    0.0622854603842689    0.062285284534496936    
  0.0605976534587882    0.058522362611688306    0.05759293708122273    0.0585223368461316    0.060597675600833    
  0.06228526192385078    0.06228547699681463    0.06058999189337373    0.058518698210432846    0.057620837492387444    
  0.07075854872320957    0.05852683561543776    0.050286872387000144    0.04590155738726491    0.044583202375015535    
  0.04590191209486612    0.050280355514441724    0.058522339465034795    0.07078874331580214    0.08521133742212465    
  0.09742624444155733    0.10231281005381315    0.09743791046905022    0.08521368696260696    0.07075854872320957    
  0.11866449907561193    0.0852033016482141    0.06059165544866754    0.0459023059913611    0.03936026773630501    
  0.0393600490741802    0.0459019209554355    0.06059766734479066    0.08521132143398293    0.11862426270077218    
  0.15317287654459236    0.17577466376333192    0.17575316908133082    0.15317344701140165    0.11866449907561193    
  0.2212795679730189    0.15318938195399068    0.09743337159310057    0.0622845411160375    0.04458301588477982    
  0.03936026308255887    0.04458321123922849    0.0622852769544432    0.09742624118541066    0.1531729017763361    
  0.2213416286590931    0.2779485109271195    0.29946563261197084    0.2779546696940541    0.2212795679730189    
  0.3713094277372707    0.2779335307001631    0.17575815475789128    0.10231716744227563    0.06228453488495237    
  0.04590228742750841    0.045901569277790266    0.06228546862947091    0.10231279695759062    0.1757746722954217    
  0.27794855005991814    0.3712357446614664    0.41671140521323197    0.41675620448122935    0.3713094277372707    
  0.4553005415001924    0.4167607447015331    0.29947232313411865    0.17575815590252936    0.09743336515028558    
  0.060591633893123616    0.05028688649222716    0.06058999372209976    0.09743790547396762    0.17575321234633506    
  0.29946564674281967    0.4167113229533485    0.45545930547699204    0.4501804801985981    0.4553005415001924    
  0.3960815457532054    0.450131421212568    0.41676076817153057    0.2779335114853425    0.15318936392867738    
  0.08520328361007867    0.05852685967941011    0.05851868781111375    0.0852136767293175    0.1531734384915986    
  0.2779546295199476    0.41675616363524043    0.45018045539155715    0.3959230331788924    0.3960815457532054    
  0.34295352429650283    0.396081514897222    0.4553006211893167    0.3713094381526459    0.2212795906518024    
  0.11866449230575082    0.0707585650689226    0.057620842679222996    0.07075853216689804    0.11866451092498324    
  0.2212795928717496    0.37130941972644654    0.45530060242591397    0.396081539938326    0.34295352429650283    
  0.44483233827034985    0.4366899331621825    0.3799450210671237    0.26686984842467704    0.15781678003636335    
  0.08940277836810202    0.05682816450184151    0.047596484013410156    0.056828155767110616    0.08940279255147222    
  0.1578167756869103    0.2668698054777421    0.37994494077529073    0.43668995639299163    0.44483233827034985    
  0.43668995667192895    0.436668260657903    0.4020826396007386    0.30991491424871537    0.19659248799135282    
  0.11244713874521196    0.06676424900477476    0.048234210683925895    0.04823517234753325    0.06676305602786609    
  0.11244945034895483    0.196588798575532    0.3099190100320535    0.4020696591464581    0.43668995667192895    
  0.3799449897778318    0.4020826212955091    0.3799616549131683    0.30991190145611425    0.21195349150634976    
  0.12750622856784802    0.07508137858120437    0.04966571378984269    0.04236191491809472    0.049665959031980324    
  0.0750803776787006    0.12750730387567497    0.21195184720079308    0.30991901786540293    0.3799449897778318    
  0.2668698242290229    0.3099149148241913    0.3099118425293257    0.2668616516408858    0.19659481091375783    
  0.12750491522434457    0.07839497056685876    0.05080218163469021    0.039169851258711884    0.039169044033177204    
  0.050803316446014456    0.07839382726857339    0.12750729642301048    0.19658879379539704    0.2668698242290229    
  0.15781678324134518    0.19659250047133417    0.21195349635015742    0.19659481963661785    0.1578189899404926    
  0.11244758210147214    0.07508163862517195    0.05080274112392266    0.038175269996594395    0.03438979247900208    
  0.03817498638885218    0.050803306911104344    0.07508036626799013    0.11244946727768364    0.15781678324134518    
  0.08940279860014932    0.11244714444787993    0.12750624925949358    0.1275049179400401    0.11244757941625783    
  0.08940072145886964    0.06676328622655836    0.049665444526105586    0.03916936284209368    0.034389763858329085    
  0.0343897869965504    0.039169032205922    0.04966595468610844    0.06676304527672103    0.08940279860014932    
  0.05682817677618454    0.06676424283017221    0.07508136464847914    0.07839497574815577    0.0750816230242401    
  0.06676327529562247    0.056830434311583494    0.04823496460072526    0.04236214881996577    0.039169361247071925    
  0.03817526907006559    0.0391698592524175    0.04236191313940238    0.04823517560563602    0.05682817677618454    
  0.047596496504144964    0.04823420925859666    0.04966571008311533    0.050802171562900754    0.05080274326269374    
  0.04966544493685557    0.04823498641365581    0.04759380159818823    0.04823495534139539    0.04966544819671542    
  0.05080273187475265    0.05080217951596873    0.04966570461004239    0.0482342101252642    0.047596496504144964    
  0.0568281588326866    0.048235171264510185    0.042361917285672325    0.03916985867640147    0.038175267691985405    
  0.0391693558029326    0.04236216703883861    0.04823495866544666    0.05683040784821721    0.06676328063384361    
  0.07508162006785457    0.07839496114044868    0.07508137263587958    0.06676424415756874    0.0568281588326866    
  0.08940279457799959    0.0667630513027723    0.0496659557620204    0.03916903752230237    0.03438979457013075    
  0.03438974660663719    0.03916935886246355    0.049665453395383655    0.06676327191494622    0.08940073253232979    
  0.11244758774719613    0.12750490188293143    0.12750624193576462    0.11244717278519703    0.08940279457799959    
  0.1578167460636671    0.11244945183710794    0.07508036553880612    0.05080331422567053    0.03817498897865503    
  0.03438978366911867    0.03817526892909548    0.05080273848736299    0.0750816248364226    0.11244760614779897    
  0.15781895650483174    0.19659477128650577    0.21195347623086822    0.19659251391728594    0.1578167460636671    
  0.2668698347261768    0.19658876976737696    0.12750729709807113    0.07839384284462839    0.05080330733497812    
  0.039169033159205176    0.039169865027494984    0.05080217440890622    0.07839494982380088    0.12750493039794897    
  0.1965948356126072    0.2668615862996939    0.309911896070787    0.309914912542791    0.2668698347261768    
  0.37994496417111945    0.3099189674388158    0.21195185331715372    0.12750730480901448    0.07508036796581209    
  0.049665941095896546    0.04236192295442791    0.04966571283684002    0.07508138384113545    0.12750628690636215    
  0.2119534983866083    0.30991184859712395    0.37996167111631246    0.4020826490163863    0.37994496417111945    
  0.43668998331220604    0.40206964494772807    0.30991897728687934    0.19658878134702612    0.11244945417591912    
  0.0667630289400117    0.04823518444183715    0.04823421220421608    0.06676423761956278    0.1124471795699829    
  0.19659250561364774    0.3099148674553706    0.40208262613384654    0.43666836681092885    0.43668998331220604    
  0.44483233827034985    0.4366899331621825    0.3799450210671237    0.26686984842467704    0.15781678003636335    
  0.08940277836810202    0.05682816450184151    0.047596484013410156    0.056828155767110616    0.08940279255147222    
  0.1578167756869103    0.2668698054777421    0.37994494077529073    0.43668995639299163    0.44483233827034985    
  0.32355420072852464    0.301441608605075    0.24114221267928565    0.16590198020724814    0.10325653672488722    
  0.06373589728736177    0.04395856791994972    0.03815437679663163    0.0439585604842979    0.06373590314594058    
  0.10325652533499731    0.16590197311998967    0.24114218660424497    0.3014416456488191    0.32355420072852464    
  0.30144162562792337    0.30144625993479685    0.26005949820375196    0.19232852770905717    0.12526688667962693    
  0.07724143559815765    0.0500752086055789    0.03853579360566156    0.038535035611342944    0.05007626645314671    
  0.07724193820494764    0.12526592830062716    0.1923273974448194    0.26006130339358724    0.30144162562792337    
  0.2411421876593633    0.26005948770297266    0.24114051262467234    0.19232920546382967    0.1340524945728783    
  0.08593727015754163    0.055138951366741046    0.039420780238702206    0.03475839440764307    0.03942049617126026    
  0.055137599159234114    0.08593719591445008    0.13405479132651912    0.19232739269107849    0.2411421876593633    
  0.165901983734028    0.19232849349571354    0.19232914767606515    0.1659017134059187    0.12526727838929508    
  0.08593781333311709    0.05715600815166485    0.04014398234646727    0.032662175296264834    0.03266238449294829    
  0.04014524049248015    0.05715631642205579    0.08593718971794945    0.12526590626898226    0.165901983734028    
  0.10325653965198076    0.12526690038688992    0.13405250064108512    0.12526729611863216    0.10325545366946055    
  0.07724189526299823    0.055137437830703864    0.04014557777171209    0.03198966890990459    0.029474790655659555    
  0.03198852535179635    0.04014523280980379    0.055137592375998475    0.07724195406450544    0.10325653965198076    
  0.06373591767929833    0.07724143676142094    0.08593730227605227    0.08593782986419801    0.07724189671873617    
  0.06373587539464898    0.05007615926528744    0.039420543537539626    0.032661698564827125    0.029474386692385907    
  0.029474787805409595    0.03266237540741466    0.03942049624658353    0.050076258841269275    0.06373591767929833    
  0.04395857976985997    0.050075207184540026    0.05513894356244089    0.0571560121354896    0.055137423829988284    
  0.05007615479310935    0.04395843771826202    0.038534606413068766    0.0347595587750083    0.032661695322545814    
  0.031989665168555774    0.032662182193890776    0.034758387514454356    0.038535040409676764    0.04395857976985997    
  0.03815438702612223    0.03853579518146699    0.03942077183183341    0.040143976051518954    0.04014558168034681    
  0.0394205403242526    0.038534628888572696    0.038155805195169736    0.03853460645033371    0.03942054804611713    
  0.04014557166839104    0.040143987311857136    0.039420776255562597    0.03853579820203691    0.03815438702612223    
  0.04395856524949056    0.03853503562986159    0.034758394059682736    0.03266218189165682    0.03198966884480773    
  0.03266169041745682    0.03475957761487356    0.03853460896932556    0.043958425739179394    0.05007616330776851    
  0.055137417833879016    0.057156006443690455    0.05513895323815811    0.05007521763391638    0.04395856524949056    
  0.06373591995305461    0.05007625840097268    0.03942049942442446    0.03266238079046241    0.029474792059591057    
  0.029474375154099206    0.03266169204188946    0.039420546334828825    0.05007615124646651    0.06373589358292042    
  0.07724189702656037    0.08593781364456109    0.085937286046804    0.0772414633437819    0.06373591995305461    
  0.10325651573921261    0.0772419332827762    0.05513758534707813    0.0401452350545014    0.0319885303118133    
  0.029474791084372627    0.03198966688623507    0.0401455741255978    0.055137413050675335    0.07724191149776878    
  0.10325543040653    0.12526724710883    0.13405250491270992    0.12526687680150703    0.10325651573921261    
  0.16590196228755694    0.1252658930277912    0.08593719097975795    0.05715632000098165    0.04014523257467303    
  0.03266237670781655    0.032662185061018124    0.040143979042062704    0.05715598868775946    0.08593781717845049    
  0.12526729690060565    0.16590169204414937    0.19232919013796604    0.19232846698420256    0.16590196228755694    
  0.24114220520274066    0.1923273336703979    0.13405480249386142    0.08593720150817688    0.05513758081768855    
  0.03942048250324929    0.03475840107346925    0.039420784286936746    0.05513896058146624    0.0859373189274896    
  0.1340524909250754    0.1923291468615755    0.24114054086396206    0.2600595103021132    0.24114220520274066    
  0.30144163670406077    0.26006130280707485    0.19232737355599375    0.12526590643430538    0.07724194435327238    
  0.05007624969796021    0.03853504383902075    0.0385357974102623    0.05007520141470077    0.07724145290521399    
  0.12526685812598495    0.19232846478034274    0.2600594942613825    0.30144633746136773    0.30144163670406077    
  0.32355420072852464    0.301441608605075    0.24114221267928565    0.16590198020724814    0.10325653672488722    
  0.06373589728736177    0.04395856791994972    0.03815437679663163    0.0439585604842979    0.06373590314594058    
  0.10325652533499731    0.16590197311998967    0.24114218660424497    0.3014416456488191    0.32355420072852464    
  0.18310095129586731    0.1702265923402987    0.13765162868414996    0.09923664130897494    0.06707685392234587    
  0.04571898935655946    0.034401037128225204    0.030971956826294444    0.03440101921026549    0.0457189952009542    
  0.06707683938642424    0.09923665515858276    0.13765159364414334    0.17022661900504002    0.18310095129586731    
  0.1702266023966029    0.17022867051766863    0.14759077326809586    0.11262888297490434    0.07851453648087135    
  0.0531777560255413    0.03795952019122685    0.03118207521641885    0.03118134277525415    0.037960621659450196    
  0.0531774885063528    0.07851500328206618    0.1126271914586993    0.14759236440080406    0.1702266023966029    
  0.13765158414399226    0.14759074789812024    0.13765109783744572    0.11262727674035211    0.08302013394896851    
  0.05788188270690896    0.04088165355260793    0.03169422990003766    0.02887359358582684    0.03169390590058961    
  0.040880694631763415    0.05788189905712409    0.08302091916252236    0.11262717072366679    0.13765158414399226    
  0.0992366482331053    0.11262891513097953    0.11262726023773754    0.099239188892361    0.0785139580026618    
  0.057883239763802274    0.04204005656072584    0.03213221732394626    0.02755746225117426    0.02755827709418227    
  0.03213243248165942    0.04204124490038951    0.05788190563074361    0.07851499210561946    0.0992366482331053    
  0.06707683022481797    0.07851455295605127    0.08302011175567546    0.07851395788048021    0.06707602086960973    
  0.05317783095083875    0.04088050065010086    0.03213312912613828    0.027128819019578768    0.025525817933549164    
  0.02712823782398362    0.03213243328568273    0.04088069725454429    0.05317750183826205    0.06707683022481797    
  0.04571900125110157    0.053177761512734456    0.057881919132096005    0.057883248316942616    0.05317783995345757    
  0.045719436792839824    0.03795974816824509    0.031694533865167414    0.027557257980265266    0.025525965745418003    
  0.02552581288043147    0.02755827446200879    0.03169391089827377    0.037960608396336436    0.04571900125110157    
  0.03440103824849734    0.037959510578860704    0.04088163911497379    0.04204005741641116    0.04088049383837311    
  0.0379597450908189    0.034401637032410774    0.03118129038077011    0.028873969272827076    0.027557263407851088    
  0.027128815047086138    0.02755746510675974    0.028873593509945086    0.03118134810133835    0.03440103824849734    
  0.030971957956962917    0.0311820628963832    0.0316942194868504    0.032132210021646235    0.03213312928975759    
  0.03169452320764439    0.031181297590001107    0.030972061855884088    0.031181281031882193    0.03169453348147076    
  0.03213311414666187    0.032132222512080144    0.03169421610486948    0.031182072599998126    0.030971957956962917    
  0.03440103613532528    0.031181342341281632    0.028873588412232518    0.027557468532771367    0.027128823890903365    
  0.027557259424795855    0.02887398297144894    0.031181287513068544    0.034401622931980125    0.0379597533637193    