#     DFTpy    
  CRYSTAL 
    
  PRIMVEC    
  6.366206896551724    0.0    0.0    
  0.0    6.366206896551724    0.0    
  0.0    0.0    6.366206896551724    
  PRIMCOORD    
  8    1    
  Si    0.0    0.0    0.0    
  Si    1.591551724137931    1.591551724137931    1.591551724137931    
  Si    0.0    3.183103448275862    3.183103448275862    
  Si    1.591551724137931    4.774655172413793    4.774655172413793    
  Si    3.183103448275862    0.0    3.183103448275862    
  Si    4.774655172413793    1.591551724137931    4.774655172413793    
  Si    3.183103448275862    3.183103448275862    0.0    
  Si    4.774655172413793    4.774655172413793    1.591551724137931    
  BEGIN_BLOCK_DATAGRID_3D    
  3d_datagrid_density    
  BEGIN_DATAGRID_3D#0    
  29    29    29    
  0.0    0.0    0.0    
  6.366206896551724    0.0    0.0    
  0.0    6.366206896551724    0.0    
  0.0    0.0    6.366206896551724    
  0.07653049134538896    0.12928403075367542    0.2999386579538415    0.4228267639903772    0.3399441738909638    
  0.2030011046942419    0.11265264414402958    0.06546389755949288    0.04230523239336272    0.031047332228646304    
  0.025476043986703535    0.02269610415456957    0.021315475222428874    0.02067494260697331    0.020499237745361436    
  0.02067494034249535    0.021315466981467055    0.022696100086682918    0.025476048781706    0.031047323538745376    
  0.04230524621862007    0.06546389511248442    0.11265266087019683    0.2030010799408819    0.33994414156244085    
  0.42282670476646866    0.2999386800881329    0.12928402863319277    0.07653049134538896    0.129284024367936    
  0.18835165081056104    0.3461176966686128    0.4247230380329146    0.3260834234112249    0.19485509657280517    
  0.1099296163893191    0.06513294458056385    0.042777006203576405    0.03168606020773216    0.026048757023457526    
  0.02313451974207239    0.021620876694533223    0.020891577981974694    0.02067493140904963    0.020891578242969517    
  0.021620871406927162    0.02313451607657624    0.026048753222462893    0.031686063699546074    0.04277699992128962    
  0.06513294601850121    0.10992959661128333    0.1948551025828584    0.32608339122436597    0.42472304457270466    
  0.34611771116505813    0.1883516620900442    0.129284024367936    0.2999386575468096    0.34611769731801567    
  0.42310968391127557    0.4007142057686169    0.28433709113080724    0.17304340482445787    0.10276744821660216    
  0.06437064544294004    0.044227038980382744    0.033612367357757626    0.027790597479336775    0.02449685127374803    
  0.02261434093424219    0.021620878228913967    0.021315466827059242    0.021620875033690153    0.022614348615727024    
  0.02449683483884624    0.02779060136463675    0.033612357243873146    0.04422705900964816    0.06437063026191972    
  0.10276746595181041    0.17304339087889137    0.2843371132840947    0.4007141705084862    0.4231096456776757    
  0.34611768834795004    0.2999386575468096    0.4228267649023955    0.42472304418343326    0.40071419308940015    
  0.32270107895102373    0.22383563182524865    0.14443578339982152    0.09350082739325265    0.06375150625050469    
  0.046782242292099395    0.03687666386234406    0.030786399468924704    0.0269246685265413    0.024496845975182216    
  0.02313452188350924    0.022696103497901868    0.023134524839397742    0.02449683284826195    0.026924684811158082    
  0.030786397904246542    0.03687667188699914    0.04678222496692391    0.06375152142759026    0.09350081372781296    
  0.1444358227032027    0.22383558969029305    0.32270109986900675    0.40071418602376463    0.4247230625407904    
  0.4228267649023955    0.3399441720772082    0.3260833878292558    0.2843370929846011    0.22383559879546028    
  0.1636291262968886    0.11655889715353976    0.0844192632174009    0.06375216394933032    0.0504601016345482    
  0.041516878997507396    0.035224377433372346    0.030786405146443808    0.027790605482815367    0.02604875315884101    
  0.025476042872372793    0.026048750816550715    0.027790603972167628    0.0307863954470771    0.035224396262523716    
  0.04151687725314374    0.05046011789892274    0.06375215458096399    0.08441927426041536    0.11655888236453209    
  0.1636291494409843    0.22383560912465958    0.28433711067210876    0.3260833538456066    0.3399441720772082    
  0.20300108364706074    0.19485510096917708    0.17304340558362782    0.1444358031249333    0.11655891024973042    
  0.09379158682266191    0.07678126428585365    0.06436996488341297    0.05500437604386987    0.047532006758875756    
  0.04151688728433732    0.03687666436306134    0.033612358771346176    0.03168606772380335    0.0310473239587015    
  0.03168607249834196    0.03361234953638844    0.036876661891125935    0.04151686507746847    0.0475320103780571    
  0.05500436750470595    0.0643699827437608    0.07678124549868535    0.09379159100533305    0.11655888237375538    
  0.14443583631709292    0.17304339448662054    0.19485512113642858    0.20300108364706074    0.11265265354288355    
  0.10992960162778771    0.10276744968666722    0.09350080148015182    0.08441926700478143    0.0767812548732781    
  0.07055276463208422    0.06513361433599682    0.059997535558485006    0.055004362251562605    0.05046010076329023    
  0.04678223283906306    0.044227043044824305    0.042777000533503605    0.04230523579865401    0.04277699688300016    
  0.04422704663826442    0.04678223016417787    0.05046010420540649    0.05500436155487455    0.059997545329537785    
  0.06513358888911486    0.07055277317718266    0.07678123393711545    0.08441926144918693    0.0935008021376781    
  0.10276746296268638    0.10992959369673586    0.11265265354288355    0.06546389992886421    0.0651329637475485    
  0.06437064206632012    0.06375152106373695    0.06375218187867915    0.06436997279827551    0.06513362397098024    
  0.0654632113441637    0.06513363189050017    0.06436997685457195    0.06375216743880285    0.06375152018823324    
  0.06437064169276503    0.06513295848923395    0.06546389433958194    0.0651329599534424    0.06437063274608835    
  0.06375152618386525    0.06375216642944727    0.06436998636858332    0.06513361302278395    0.06546324150266035    
  0.065133606572398    0.06436998286668318    0.0637521825526142    0.06375152578218554    0.06437063369267891    
  0.06513296469349848    0.06546389992886421    0.04230523317556509    0.04277700254050738    0.04422704209484243    
  0.0467822350874324    0.05046010371834032    0.05500437628088186    0.05999753903261599    0.06513361835574066    
  0.07055275429721941    0.07678125703367444    0.08441924756288668    0.09350080880903505    0.10276745119310027    
  0.1099296020954334    0.11265266407588495    0.10992958564810874    0.10276746511907292    0.09350080290445595    
  0.08441927440381035    0.07678122737677472    0.07055275997760893    0.06513360355591709    0.05999755459945286    
  0.055004358127607844    0.05046011291339161    0.046782226395055686    0.04422705840068005    0.04277699766593947    
  0.04230523317556509    0.031047326380377074    0.03168607193567423    0.03361235961864828    0.03687665447052736    
  0.04151689138787442    0.047531997068262326    0.05500436982605375    0.06436998317756289    0.07678124490264826    
  0.09379159668476114    0.11655889313003114    0.14443582927604    0.173043404988193    0.1948551264104993    
  0.20300105704309032    0.1948551295322326    0.17304338792151985    0.14443583036083993    0.11655886271607956    
  0.09379160572423541    0.07678123973057288    0.06436998960638554    0.05500436286678797    0.047532003469177034    
  0.04151688757316059    0.03687666547596619    0.033612355849523746    0.031686070794378775    0.031047326380377074    
  0.025476046469786386    0.02604875562946146    0.027790594069308627    0.030786409924085642    0.03522438500233448    
  0.04151689002372869    0.05046010564639006    0.0637521650167188    0.08441925982550329    0.11655889417060858    
  0.16362910909262013    0.22383561435148375    0.2843370983886167    0.3260833686512139    0.33994418058208703    
  0.32608337207556765    0.284337113051141    0.22383560513782663    0.16362913905213589    0.11655889483300712    
  0.08441925983448906    0.06375216597801114    0.05046010489828795    0.04151687650082287    0.03522439236736092    
  0.03078639958028549    0.02779061060111535    0.02604876504741261    0.025476046469786386    0.022696109204395805    
  0.023134519518643138    0.024496844300791517    0.026924677063159763    0.03078641484291005    0.03687665088344872    
  0.04678225487313639    0.06375151126087879    0.09350081273140175    0.14443581301614972    0.2238356215360871    
  0.32270109348764153    0.4007142200155486    0.42472306294764645    0.42282671357135737    0.42472304313457804    
  0.4007142050814546    0.3227011039123471    0.2238356030175444    0.14443582534313912    0.09350080085630777    
  0.06375152502989204    0.04678223502518481    0.03687666318313317    0.030786408652456444    0.02692467895335894    
  0.024496840691740813    0.023134515708496478    0.022696109204395805    0.021315461511431027    0.02162088344067462    
  0.02261433581286802    0.02449685390530931    0.027790598830347155    0.03361236570571924    0.0442270361318767    
  0.06437064790834272    0.1027674418275683    0.17304342264656225    0.2843370636962492    0.4007141943268876    
  0.4231096817275619    0.34611773306357524    0.29993865584154683    0.34611769213476096    0.42310969100891516    
  0.40071415948591194    0.28433707592633517    0.17304340595498993    0.10276745432273643    0.06437062999481552    
  0.044227048147506796    0.03361235982235264    0.027790606038393922    0.02449684071042733    0.02261434165089929    
  0.02162087891526094    0.021315461511431027    0.020674938111976092    0.020891565755891624    0.021620879436316274    
  0.023134507413322732    0.0260487747502939    0.031686045852693516    0.04277701194819889    0.06513293719302907    
  0.10992960864569781    0.194855069426425    0.3260834142672738    0.42472301359090586    0.34611771146964637    
  0.1883516509136531    0.12928400923442385    0.1883516650511842    0.34611770167300965    0.4247230382063127    
  0.32608337749423494    0.19485511131979627    0.10992958394600678    0.06513294800319795    0.04277700049316311    
  0.03168606772899591    0.02604876092634938    0.023134504779804384    0.021620882041272552    0.020891572461792404    
  0.020674938111976092    0.020499235113242444    0.02067494392347151    0.021315465532258545    0.022696110648373263    
  0.025476041870976112    0.031047338236539133    0.04230522815761959    0.06546390201515882    0.11265265554169576    
  0.2030011111687661    0.3399441245806201    0.4228267682824942    0.29993863467709736    0.12928402848077308    
  0.07653049565488869    0.12928401225343206    0.2999386588967401    0.42282671692497537    0.33994420177955104    
  0.20300107624054192    0.11265267343924015    0.06546389464032464    0.04230523311102942    0.03104732484353561    
  0.02547604627648042    0.02269610033185272    0.021315468401236017    0.020674946104005953    0.020499235113242444    
  0.020674938589408644    0.020891569626640898    0.021620879093108385    0.023134506542280168    0.026048770091711144    
  0.03168605938185765    0.04277701373920641    0.06513294076275793    0.10992961343002368    0.1948550669599462    
  0.3260833831221135    0.42472302679690777    0.34611771338790026    0.18835166111777749    0.12928401220502184    
  0.1883516573468793    0.34611768934892934    0.4247230452153871    0.32608340108085987    0.19485510222301305    
  0.10992958992447303    0.06513294379980553    0.0427770123012114    0.03168606485595169    0.026048762678360503    
  0.023134514187523107    0.021620886532971645    0.020891573493876978    0.020674938589408644    0.02131546065236556    
  0.021620887912707755    0.02261433874833398    0.024496845775272575    0.027790592614368833    0.033612370897832096    
  0.04422702941622494    0.06437065789120555    0.10276743819785865    0.17304342644858473    0.28433707056377694    
  0.4007142036985823    0.4231096051802977    0.34611776346183165    0.2999386219345023    0.34611770164730354    
  0.4231096277819032    0.4007142074900195    0.2843370679699774    0.1730434092202731    0.10276745748302303    
  0.06437063562118808    0.04422704770782249    0.03361236350915995    0.027790605099386356    0.02449684159687956    
  0.022614344769519384    0.02162088502625834    0.02131546065236556    0.022696103215877738    0.023134510589112943    
  0.02449685179262411    0.02692466439313063    0.030786425689710597    0.036876645942902964    0.04678226843008697    
  0.06375149212252768    0.09350083121227942    0.14443578663061665    0.2238356308548073    0.32270107776010243    
  0.40071425279437395    0.4247230444779906    0.4228267490938681    0.4247230231950686    0.40071422943592094    
  0.3227011046867672    0.22383564025493224    0.14443581013666168    0.09350083185575926    0.0637515147736334    
  0.04678223802666726    0.03687665572592563    0.030786415428946938    0.026924672378040786    0.02449684756955342    
  0.02313451224538898    0.022696103215877738    0.025476039376135316    0.026048772555629186    0.02779058783600204    
  0.03078641611077995    0.035224371296182444    0.04151689809162362    0.05046007998879797    0.06375219301262505    
  0.08441923451489503    0.11655892133558171    0.16362907477077476    0.22383564073704043    0.28433706545643617    
  0.3260834366815326    0.33994415517052495    0.32608341151884157    0.2843370875677788    0.2238356326446665    
  0.16362912480308744    0.11655891606159949    0.08441925301662008    0.06375218021012323    0.05046008765112413    
  0.04151688344618809    0.03522438691985928    0.03078641277482505    0.027790595305071317    0.026048764487971467    
  0.025476039376135316    0.031047334380177916    0.03168605121735018    0.0336123760333831    0.03687664821663156    
  0.041516892816435724    0.04753198490196441    0.0550043949286367    0.0643699603748107    0.0767812673538395    
  0.09379157352646239    0.11655892139078496    0.14443578829782286    0.17304343986760348    0.1948550898477881    
  0.20300110648130806    0.1948551151146698    0.17304342849613738    0.14443579134956883    0.11655891346018454    
  0.09379158294910878    0.07678126010344459    0.06436996674181322    0.05500438040785714    0.04753199083253858    
  0.04151689036177499    0.0368766513449665    0.03361237260506315    0.031686057803220626    0.031047334380177916    
  0.042305218410242464    0.04277701437661812    0.044227020727341235    0.04678225767826316    0.050460088533309036    
  0.05500439279899345    0.05999751605268501    0.06513363309132172    0.07055273692825714    0.07678126912960001    
  0.08441923324556683    0.09350082811580826    0.10276744107162823    0.10992962311722654    0.11265263610134965    
  0.10992961268177068    0.10276744283486845    0.09350083288365235    0.08441924599181433    0.07678126344998697    
  0.07055274841579577    0.06513361259143445    0.05999752795931733    0.05500437667782902    0.05046009047439464    
  0.046782247806041045    0.04422704063165206    0.0427770156002858    0.042305218410242464    0.065463918763731    
  0.06513293986125346    0.06437065884141906    0.06375149459722933    0.06375219550190013    0.06436995512014815    
  0.06513364182360924    0.06546319848456138    0.06513365352756947    0.06436995778843374    0.06375218416823081    
  0.06375150466063143    0.06437066331212477    0.06513294509889168    0.06546391722826843    0.06513294888279728    
  0.06437064331528182    0.06375150814529137    0.06375219033904025    0.06436996647104365    0.06513362532762815    
  0.0654632184784006    0.06513363775169331    0.06436997386113942    0.06375219018435997    0.0637515092999659    
  0.06437065416302266    0.06513294829022503    0.065463918763731    0.11265261938378136    0.10992963002535076    
  0.10276741794168161    0.09350083793527501    0.08441924143354551    0.07678126193233303    0.07055273980373586    
  0.06513364548015486    0.05999751137827254    0.055004386611275935    0.050460088001106275    0.04678225460542149    
  0.04422702321434988    0.042777020232918905    0.042305228207970745    0.04277701894889558    0.044227036402249106    
  0.04678224866891206    0.050460098915623634    0.05500436970209949    0.0599975217700863    0.06513361863854557    
  0.07055275214942638    0.07678125028259489    0.08441924067421376    0.09350083022420308    0.1027674423807971    
  0.10992961707716827    0.11265261938378136    0.20300110983643238    0.19485505811574927    0.1730434336435604    
  0.14443576670429406    0.11655892736401177    0.09379156096495385    0.07678127489511945    0.06436995037955746    
  0.055004387854297405    0.0475319839286607    0.041516897356417705    0.036876651015161015    0.03361237971731079    
  0.03168605809432609    0.03104732684994552    0.0316860616413138    0.03361236901707526    0.03687665599877212    
  0.04151688113109466    0.04753199501711848    0.05500436932731129    0.06436996425503896    0.07678126836980463    
  0.09379158817556726    0.11655890865753571    0.1444357961355904    0.17304344032998506    0.19485507040539718    
  0.20300110983643238    0.33994412784717887    0.3260834074784154    0.2843370571743643    0.2238356301619026    
  0.16362911291550192    0.1165589088560512    0.08441924003572554    0.06375218431737466    0.050460084219803365    
  0.04151689502069631    0.03522436834428055    0.030786413812783627    0.027790603405509973    0.026048771715453573    
  0.025476034850700355    0.02604876452716018    0.0277905969120333    0.030786410068066525    0.03522437947952991    
  0.041516892990038155    0.050460103471843855    0.06375217923942733    0.08441925695302056    0.11655890669340274    
  0.16362912324127787    0.223835622392538    0.28433707874670766    0.32608340948488274    0.33994412784717887    
  0.42282676051805435    0.4247229889146211    0.40071422116045236    0.32270107060334474    0.22383566077944736    
  0.144435776670448    0.09350083974173742    0.06375149485612132    0.046782256544277895    0.036876656320275356    
  0.030786416808328183    0.026924670266036184    0.024496846562097985    0.023134514973300834    0.022696106189873836    
  0.023134513811752657    0.02449684362429444    0.026924675993603243    0.030786406833785505    0.03687666172339139    
  0.04678224804919512    0.06375150046288684    0.09350082433494858    0.14443580295181832    0.223835621781118    
  0.3227010944325738    0.4007142427325893    0.42472303388592175    0.42282676051805435    0.2999386595901602    
  0.3461177316445398    0.4231096593048543    0.4007142192771179    0.28433707679200965    0.17304342423777636    
  0.10276744728128122    0.06437064855061396    0.04422703651721988    0.033612363870068725    0.027790593031132457    
  0.024496851919313074    0.022614338726668817    0.021620882102315695    0.0213154664867679    0.021620883386054432    
  0.02261433571612769    0.024496836346471543    0.02779060332770084    0.03361236478852754    0.04422704864821751    
  0.06437063558612326    0.10276746956770737    0.17304340064825544    0.284337071239523    0.40071417822477606    
  0.42310964631082626    0.34611773441870564    0.2999386595901602    0.1292840232770594    0.1883516419935816    
  0.34611770659053565    0.42472298665740654    0.32608341797774515    0.1948550811478449    0.10992961258915282    
  0.0651329415350505    0.042777010572339534    0.03168605985662499    0.026048764201270284    0.023134508703153946    
  0.02162088381460155    0.020891572750542375    0.02067493602692016    0.02089156908285896    0.021620878878179935    
  0.023134522084699856    0.026048758408739416    0.031686069611477054    0.04277699659960487    0.06513295245266666    
  0.10992959354413386    0.19485509014891905    0.32608335983157505    0.4247230548446259    0.34611770020353366    
  0.18835165283753935    0.1292840232770594    0.07653049134538896    0.12928403075367542    0.2999386579538415    
  0.4228267639903772    0.3399441738909638    0.2030011046942419    0.11265264414402958    0.06546389755949288    
  0.04230523239336272    0.031047332228646304    0.025476043986703535    0.02269610415456957    0.021315475222428874    
  0.02067494260697331    0.020499237745361436    0.02067494034249535    0.021315466981467055    0.022696100086682918    
  0.025476048781706    0.031047323538745376    0.04230524621862007    0.06546389511248442    0.11265266087019683    
  0.2030010799408819    0.33994414156244085    0.42282670476646866    0.2999386800881329    0.12928402863319277    
  0.07653049134538896    0.12928401949340845    0.18835164996980755    0.3461177427753721    0.4247230301166687    
  0.3260834410586331    0.1948550853623014    0.1099296055977523    0.06513292949280783    0.04277701029427581    
  0.03168605932225466    0.02604876765540983    0.023134507678190273    0.02162088699160706    0.020891573307953364    
  0.020674937085583565    0.020891577358748952    0.021620876231975738    0.02313452189707548    0.026048759389132512    
  0.03168606989767009    0.04277700383588906    0.06513294697231452    0.10992958623763867    0.19485511480511578    
  0.32608335209045913    0.42472301358893816    0.34611772192895535    0.18835166247235147    0.12928401949340845    
  0.18835164960695658    0.25044785987553225    0.39013464359089306    0.43276668131106644    0.32389178747158326    
  0.1969418759341024    0.11495815080840398    0.07055346272203593    0.047503809886610494    0.03546104955817925    
  0.028886716663186082    0.025144659508748262    0.022913173801416272    0.021580468998214856    0.02089156479375357    
  0.020706196696819612    0.02106425508513757    0.022188478651873268    0.024649914395775525    0.029650008403347684    
  0.0396642205754279    0.05999816449057711    0.1008443124083076    0.1785260977072058    0.3014392935368955    
  0.41015600579872763    0.37505896544103495    0.24479145772750993    0.18835164960695658    0.3461176829882895    
  0.39013463711914576    0.4480010274852151    0.4102369089996359    0.29415248675667616    0.1864240402696381    
  0.11673999666185098    0.07678051907035843    0.05436422621965286    0.0414468806500152    0.03353578904226621    
  0.028460712924521254    0.02510253221435452    0.0229131780458094    0.021620866825995812    0.021064265245704053    
  0.021210093232177218    0.022196780970473756    0.024452089891209755    0.028960639856166544    0.037731720932465504    
  0.055003761391146634    0.08870892848222339    0.1514295694279293    0.2531662481889108    0.3686700446972567    
  0.4163552969498653    0.37505894335844003    0.3461176829882895    0.42472301651221656    0.43276668574783533    
  0.41023694379508524    0.3374215381325544    0.24506987951817832    0.16865281251328876    0.11698415056663815    
  0.08441999600523137    0.0637970366037124    0.050064912565188496    0.04036685259975175    0.03339527574976606    
  0.028460707769608524    0.025144658989902622    0.023134521945472327    0.022188482332912922    0.022196784445138406    
  0.023158658775976865    0.025318995715422916    0.02938947060690514    0.03679253527111156    0.05046067548539475    
  0.07566836559294683    0.1203247558063763    0.19201011687226222    0.2854891607746759    0.36867009746670015    
  0.4101560743685841    0.42472301651221656    0.3260833580614305    0.32389178816749764    0.2941524483092697    
  0.24506983180642783    0.19295293391065385    0.14936500825868176    0.11698501054309098    0.09350001614539624    
  0.07566905892844192    0.06132173106834542    0.04961109439140129    0.04036686901056311    0.033535780363943946    
  0.028886728344925682    0.026048752871063674    0.024649915529847324    0.024452087053532995    0.02531899534789129    
  0.02731932066549445    0.03086350886381199    0.036793030557064774    0.04678166676969382    0.06379770377274753    
  0.09186753504340797    0.13478501959074365    0.19201011591390146    0.2531662688859573    0.3014392669542722    
  0.3260833580614305    0.19485509964994496    0.19694186522103946    0.186424067057209    0.16865282759699782    
  0.14936505189362595    0.13188942080032534    0.11673912112493445    0.10276827335975719    0.08870816440349753    
  0.07456005922998965    0.061321719361475124    0.0500649031429775    0.04144688889242525    0.03546103859025643    
  0.031686064977800146    0.029650007014279736    0.028960638593120442    0.029389462944958308    0.030863501866489968    
  0.033526202628808344    0.03773122372929284    0.04422758307031212    0.05436363058171018    0.06979334037864096    
  0.09186754148692262    0.12032476838679387    0.15142958786020366    0.17852611377457314    0.19485509964994496    
  0.10992958495928652    0.11495815628814869    0.11673998187377237    0.11698413193701981    0.11698503114362051    
  0.1167391135013246    0.11495904036810152    0.10992873019310503    0.10084511816373251    0.0887081548603765    
  0.07566905441249774    0.06379704604700404    0.0543642149218871    0.04750383170722814    0.04277699018218512    
  0.03966422222939923    0.03773171085377837    0.03679254812154919    0.03679303080250298    0.03773121884608532    
  0.039664732066026644    0.04277645538134021    0.04750438407987683    0.054363619715360426    0.06379769721445791    
  0.0756683485372222    0.08870892204786768    0.10084429940253908    0.10992958495928652    0.06513296300157302    
  0.07055345904166396    0.07678053465007582    0.08442000732064654    0.09350003908732515    0.10276826627431233    
  0.10992874363097531    0.11265350848100988    0.10992875985430792    0.10276827521711204    0.09350002449778416    
  0.08441999573509944    0.07678054040268052    0.0705534414030035    0.06513296196929715    0.05999817020858057    
  0.05500376413038914    0.05046067697764638    0.04678168895432203    0.04422758036739052    0.04277647097488469    
  0.04230576933151965    0.04277646718983688    0.04422758989592983    0.04678169091876317    0.050460677645180724    
  0.05500376708262194    0.059998182031340386    0.06513296300157302    0.04277699278901508    0.0475038194168851    
  0.054364218833938875    0.06379704698804264    0.0756690605790802    0.08870815474559696    0.10084512120151144    
  0.10992873656535228    0.11495900862666393    0.11673912359825094    0.11698499766281008    0.1169841353892102    
  0.11673998584809758    0.1149581729947999    0.1099295744890365    0.1008443043611999    0.08870892142365355    
  0.07566835581237487    0.06379770191352602    0.054363622699234164    0.04750437689798456    0.04277645579819316    
  0.039664741082515484    0.037731220529346646    0.03679303700530657    0.03679253929873209    0.037731727356221975    
  0.03966421577899422    0.04277699278901508    0.031686066048990165    0.03546104331654303    0.04144688127285505    
  0.05006490203946374    0.06132173949121801    0.07456005731228078    0.0887081492526073    0.10276827963908446    
  0.11673909755298598    0.13188943214587234    0.14936503039409252    0.16865281482984149    0.18642407252362    
  0.19694186800470656    0.19485509455263336    0.17852611771593774    0.15142958904338505    0.12032475954937596    
  0.09186752750853965    0.06979334263461619    0.054363619048222046    0.04422758568276816    0.03773121488532549    
  0.03352620197608083    0.030863518462870207    0.02938947210254869    0.0289606339417963    0.029650013070205265    
  0.031686066048990165    0.026048757381206888    0.02888671928186776    0.03353577586151365    0.04036686047213283    
  0.04961111360492196    0.06132172730143552    0.07566905767339746    0.09350001382334507    0.1169850261765185    
  0.14936503876435045    0.19295289549635927    0.24506985528667455    0.29415244978013927    0.323891795091636    
  0.3260833700456432    0.30143929244815826    0.2531662549660226    0.19201012973842976    0.13478501307437207    
  0.09186756100816329    0.06379768919177232    0.046781683531184025    0.03679303084933042    0.030863510147885378    
  0.027319322656043185    0.025318992662878296    0.02445209650140247    0.02464991390557075    0.026048757381206888    
  0.023134513246142175    0.02514466361355891    0.028460699773855846    0.03339527626238813    0.04036686078911406    
  0.050064900800446066    0.0637970486430896    0.08442000161855354    0.11698412816078738    0.16865284943522557    
  0.24506983316868922    0.3374215791322249    0.41023698638469647    0.4327667127332488    0.42472303485932245    
  0.41015600028800414    0.36867007775910465    0.2854891708936265    0.19201012819145344    0.1203247655355354    
  0.0756683510729616    0.05046068070424876    0.03679254315549718    0.029389466876689137    0.02531899532894929    
  0.02315866786604593    0.02219678502922491    0.02218847957216307    0.023134513246142175    0.02162087438346309    
  0.02291317750050908    0.025102533159676938    0.02846070348661927    0.03353578793162541    0.041446875222491776    
  0.054364229762784544    0.07678051811637097    0.11673999605258423    0.18642405584159602    0.29415243407669206    
  0.41023694505925207    0.4480009613945977    0.3901346526767702    0.3461176807117076    0.3750589476420474    
  0.41635527499765257    0.3686700662300161    0.2531662415978793    0.1514295819672334    0.08870892491805238    
  0.05500375486874805    0.03773172199757508    0.028960628721545055    0.024452098333271447    0.022196782652897762    
  0.021210094226311087    0.021064263298078704    0.02162087438346309    0.02089156795239592    0.021580461909463694    
  0.022913158940556948    0.025144659923394905    0.028886727502644656    0.0354610371116623    0.04750381214561099    
  0.07055345227070468    0.11495813234377147    0.1969418609198676    0.3238917840498777    0.4327666580598891    