#     DFTpy    
  CRYSTAL 
    
  PRIMVEC    
  1.3102714074555835    -2.2694566494178527    0.0    
  1.3102714074555835    2.2694566494178527    0.0    
  0.0    0.0    2.46635439    
  PRIMCOORD    
  1    1    
  Si    0.0    0.0    0.0    
  BEGIN_BLOCK_DATAGRID_3D    
  3d_datagrid_density    
  BEGIN_DATAGRID_3D#0    
  26    26    25    
  0.0    0.0    0.0    
  1.3102714123429176    -2.269456657882967    0.0    
  1.3102714123429176    2.269456657882967    0.0    
  0.0    0.0    2.466354399199549    
  -0.0007893070003422031    -0.0008877136156378683    -0.0011155028108666594    -0.00150053856490133    -0.0019710162986031144    
  -0.0023348733144562266    -0.00241670335934549    -0.0022045222057433755    -0.001812415334470207    -0.001356588558916146    
  -0.0009100520241974027    -0.000517481173181833    -0.0002026715764737491    3.29236664278989e-05    0.00020483797523926598    
  0.00032954588893113225    0.0003951575993346865    0.00034509784496728656    0.00012882806222365106    -0.00020550966943504525    
  -0.000515881277758023    -0.0006993738182142681    -0.0007658849418135499    -0.0007729734728134814    -0.0007670380651029674    
  -0.0007893070003422031    -0.0008877791891808873    -0.0010850477893114586    -0.0014155943863369304    -0.0019705148963372002    
  -0.002730465078346113    -0.0034878019448965356    -0.003932713933377139    -0.0038833908225692185    -0.0033944347269093613    
  -0.002653505349352261    -0.0018431155481144598    -0.0010827410757348588    -0.00042407539448368464    0.00013616551483618708    
  0.0006329424595150855    0.0011013107191056495    0.0015363263472993544    0.0018605125552040214    0.0019477891203685833    
  0.0017207575370086691    0.0012303798645133088    0.0006205677288682958    3.8382151946719956e-05    -0.0004126301335625491    
  -0.0007016978102175014    -0.0008877791891808873    -0.0011155945629169953    -0.0014156390423575387    -0.0017696556001865471    
  -0.0023283599243895127    -0.0031300570275565303    -0.004015297891820164    -0.004652499074891479    -0.004752499552864759    
  -0.0042710856192953945    -0.0033886651558756795    -0.002348667188437579    -0.0013346666551993442    -0.0004338624827265448    
  0.0003493250808570557    0.0010588898145254303    0.0017442761023324066    0.0024143623091033087    0.0030011636885020794    
  0.003364351315190311    0.003355448590175054    0.0029039880958537296    0.0020656057818890313    0.0010239842404541866    
  4.101784647013529e-05    -0.0006784269378105682    -0.0011155945629169953    -0.001500617700979034    -0.0019705721955311823    
  -0.0023283835079251462    -0.002794090225199693    -0.003460984875308833    -0.00422773495067395    -0.004809550029595447    
  -0.00490753356322961    -0.004420473025626037    -0.0034860938118969373    -0.0023485729041319327    -0.0012156578315209623    
  -0.00019715157015165168    0.0006908490244797546    0.0014915988801501776    0.002261337197653388    0.003020775344336743    
  0.0037207047804349467    0.004243073130206787    0.004437351317498281    0.004164120738243551    0.003344118110058072    
  0.002049843279503426    0.0005774324200484165    -0.0006781095525281466    -0.001500617700979034    -0.001971088984152599    
  -0.002730527303421522    -0.0031300941922348135    -0.00346099981766241    -0.0038908854337565885    -0.004381366842720694    
  -0.004715009461049254    -0.0046433940631749795    -0.0040690111155071255    -0.0030980966800938955    -0.0019420095278807478    
  -0.0007921721470555014    0.0002426613628160215    0.0011399665792196875    0.0019370793036140041    0.0026904308737149725    
  0.0034290767066866307    0.004121321751842035    0.004677447504817178    0.004978327287826881    0.004884044633239413    
  0.004231255261015925    0.0029270284891654173    0.001145809278377711    -0.0006401120229484992    -0.001971088984152599    
  -0.00233499375678917    -0.0034879055090647195    -0.004015372438092497    -0.0042277801640543304    -0.004381389472296636    
  -0.0045213335157624325    -0.004507456541189675    -0.004163294191136314    -0.0034311411737748686    -0.0024089002526701897    
  -0.001268890624214789    -0.00016324616673783562    0.0008204078715854703    0.001662012107545527    0.002392281287842914    
  0.003063187895219153    0.0037091070516944353    0.004314419721491481    0.004813347345423002    0.005117916169736527    
  0.005119179701214403    0.004644361795052057    0.003490994547202995    0.0016489537397941388    -0.0004957603902666372    
  -0.00233499375678917    -0.002416911346557282    -0.0039329020010389305    -0.004652650018793493    -0.004809657959352668    
  -0.004715078283169538    -0.004507491369505306    -0.0041347555642271    -0.0034975970525060966    -0.0025891763437348655    
  -0.001513579485088829    -0.00041019055159583775    0.0006135312431725356    0.0015008188357823096    0.0022411758417498545    
  0.0028608229786883455    0.003405022898378995    0.003909992807006217    0.004374772696549369    0.0047553578513986295    
  0.004986735755557379    0.004989223691480875    0.00462046813093183    0.0036567126509657374    0.0019568126784365305    
  -0.0002637456039219041    -0.002416911346557282    -0.002204802349938102    -0.003883662902213361    -0.004752736722106161    
  -0.004907719971976832    -0.00464352609292858    -0.004163376460140134    -0.0034976358292524152    -0.0026192686200956694    
  -0.0015691950886093308    -0.00046283622191286834    0.000583536105151603    0.0015006720469512105    0.002262087387385924    
  0.002869418529095082    0.0033471715218114924    0.003734607068916597    0.0040672790691854335    0.004355608030967333    
  0.0045760839769577715    0.004683447287608595    0.0046186645178164345    0.004274691501782659    0.003460775747421927    
  0.0019967535932562956    -4.409299498610401e-05    -0.002204802349938102    -0.0018127261097187887    -0.0033947538203345025    
  -0.004271381883350136    -0.00442072244556762    -0.004069201355661158    -0.003431271697666198    -0.00258925434420838    
  -0.0015692300711275407    -0.0004470860680104803    0.0006516939925375513    0.001623664913917797    0.0024246607207236933    
  0.003050322415049041    0.0035120094257611876    0.0038334927933936125    0.004050206582533673    0.004197462517358749    
  0.004294196447221098    0.00433422288064753    0.004290974752410817    0.0041227587673728    0.0037522353509184853    
  0.003036476928111042    0.0018169738268731933    9.602903624972855e-05    -0.0018127261097187887    -0.0013568980610449354    
  -0.002653834950843224    -0.003388985991873932    -0.003486379134629112    -0.0030983283231935895    -0.002409071556216619    
  -0.0015136940681488714    -0.00046290356198680754    0.000651663870685527    0.0017010313006644805    0.0025872456822543404    
  0.0032771478825278045    0.003777111167285496    0.004102554416091949    0.004274628012971572    0.004325573476461567    
  0.00429244195115994    0.004202879344214475    0.004065213036414504    0.003868936071058096    0.0035885308898446103    
  0.003172830648779462    0.0025249150877399277    0.0015287313198914087    0.00016642426474211517    -0.0013568980610449354    
  -0.0009103401978821379    -0.001843431324317701    -0.0023489869219742968    -0.002348871290566036    -0.001942266084864704    
  -0.0012690939101006262    -0.00041033873202370934    0.000583437466082243    0.0016236068028029054    0.0025872197000417776    
  0.0033797715198536737    0.003969246416587703    0.004362890510490887    0.004574394057515656    0.004619006534999893    
  0.004523722734574054    0.004327666258931722    0.004069145624839552    0.003771150619278621    0.003436751767302959    
  0.0030540630816369633    0.0025954984814479756    0.0020057073514454325    0.00121213613407896    0.00019717056611548978    
  -0.0009103401978821379    -0.0005177329616835167    -0.0010830248272165465    -0.0013349644957387343    -0.0012159481682966404    
  -0.0007924350522401334    -0.0001634678931895592    0.0006133572135265389    0.0015005458473470947    0.002424577388118655    
  0.003277099705232344    0.003969225694098765    0.0044660276690607695    0.004769801578278245    0.004888793691271859    
  0.004829973031594569    0.004612101950761346    0.0042741747867091895    0.003865863123880622    0.0034268191311515313    
  0.002973738474639763    0.002506169869867567    0.0020170060695827766    0.0014877984437899623    0.0008844921129195936    
  0.00019282377674895463    -0.0005177329616835167    -0.0002028791981883728    -0.00042431533529347433    -0.0004341222266838854    
  -0.0001974140484942761    0.00024241368911645796    0.000820188423208499    0.001500635903067383    0.002261945274922674    
  0.003050221329960003    0.0037770466448147026    0.00436285500121752    0.004769787238594006    0.0049927593834218405    
  0.0050327793787664915    0.004887691652896567    0.004566059279765971    0.004103732056984478    0.003560404687114909    
  0.0029937391171119157    0.002435894220429606    0.0018981618964296597    0.0013925674862017353    0.0009340501625797254    
  0.0005207757763031431    0.00013699788097061452    -0.0002028791981883728    3.2755942949146006e-05    0.00013596986836325172    
  0.00034910934543857256    0.0006906255741408727    0.001139749799155797    0.001661813804681873    0.002241003586901155    
  0.0028692773844301916    0.0035119026229901863    0.004102481458778751    0.0045743498354984796    0.00488877075583547    
  0.005032770753274228    0.0049991362120442254    0.0047764956689647555    0.004362536908724659    0.003787586924917845    
  0.0031190561698062583    0.0024324576100657326    0.0017769757843044737    0.00117748905110443    0.0006667329572154    
  0.0002931402635593181    8.306497981658194e-05    1.1465416425618961e-05    3.2755942949146006e-05    0.00020469392583047426    
  0.000632778863414365    0.0010587116414205178    0.0014914138273460077    0.0019368975174289611    0.002392112209214669    
  0.0028606729249047967    0.003347044489436826    0.003833391928408254    0.004274554711274336    0.004618958667565035    
  0.004829945444931246    0.004887678465049187    0.004776491534642711    0.004476285953263638    0.003974447165139714    
  0.0032945519436424786    0.0025092996428189816    0.0017106388194168566    0.0009648160352454773    0.00031099111245329477    
  -0.00019550331133321114    -0.000469403496478312    -0.0004549244749114562    -0.00019179105675593445    0.00020469392583047426    
  0.0003294049228272726    0.0011011582571004914    0.0017441188966339928    0.00226118078430211    0.0026902803282620345    
  0.0030630480640511585    0.0034048978050332983    0.0037344996794224233    0.004050119012958429    0.004325506686267654    
  0.004523675866406579    0.004612072477442269    0.004566043864874179    0.004362531638411152    0.0039744471493691    
  0.003381452730173361    0.002601344446464625    0.0017105173370768531    0.0008150173263246607    -4.051690677519853e-06    
  -0.0006962889154232913    -0.0011863183290197392    -0.0013497834531493317    -0.0010942774174093556    -0.0004705394133425447    
  0.0003294049228272726    0.00039500746183860545    0.0015361665474548228    0.0024142057968192772    0.0030206316917938416    
  0.003428949312198488    0.0037089948544198033    0.003909894236796002    0.004067194356917223    0.004197392871547191    
  0.00429238759438487    0.004327626021546303    0.004274147387275836    0.004103716799800704    0.003787582417222457    
  0.0032945544055771356    0.0026013481930666415    0.0017242463027459026    0.0007443147732877232    -0.00022044353254795286    
  -0.0010786982928923106    -0.0017775277757661528    -0.0022335853957500943    -0.002289673759201994    -0.0018065859884812986    
  -0.0008253159948552538    0.00039500746183860545    0.0003449393586462479    0.0018603413267565794    0.0030009966152956718    
  0.003720558859934092    0.004121205740910493    0.00431433118394406    0.004374703323350595    0.004355551357261268    
  0.004294150404233214    0.0042028434017192485    0.004069118401696825    0.0038658435851526216    0.0035603936905073456    
  0.0031190547688197535    0.0025093059793741775    0.0017105264112485593    0.0007443212272529693    -0.0002991196845400097    
  -0.0012898878421203888    -0.0021319782358420773    -0.002783889951002584    -0.0031785042922697496    -0.0031497746809124186    
  -0.0025102691429861376    -0.0012522319267128453    0.0003449393586462479    0.00012866657543067998    0.0019476144136160065    
  0.0033641794467219014    0.0042429231359974    0.0046773346251845265    0.004813274922746944    0.004755316550213449    
  0.004576060175366955    0.004334207266150833    0.004065201770019963    0.0037711420749128315    0.0034268129125785527    
  0.0029937371708184104    0.0024324627347895975    0.0017106509358377892    0.0008150327368311527    -0.00022042920005758818    
  -0.0012898782824762904    -0.0022484793915676297    -0.0029989569534885348    -0.0035255536202613283    -0.0038081214532950333    
  -0.003715157343351419    -0.003037182825996321    -0.00168480862350988    0.00012866657543067998    -0.00020566204715466178    
  0.0017205889101590908    0.003355285038255017    0.004437211011625106    0.004978224067573211    0.005117857665981228    
  0.004986718305376035    0.004683456564248802    0.004290994476657018    0.0038689556406740567    0.003436767012561889    
  0.0029737496439514103    0.0024359049788297243    0.0017769908508261198    0.0009648369029376029    -4.027618094143418e-06    
  -0.0010786738863698057    -0.002131955578645458    -0.002998941378211684    -0.0035797605851677007    -0.003892411146292235    
  -0.003987404380992025    -0.003812846544760363    -0.003191428599243644    -0.0019651438211828183    -0.00020566204715466178    
  -0.0005159853964962284    0.0012302383367756352    0.0029038435361578682    0.00416400417407517    0.004883969122844981    
  0.005119147665670289    0.004989233423546369    0.004618706786652426    0.00412281662683604    0.003588587537030783    
  0.0030541089056303813    0.00250620372276658    0.00189818911171761    0.0011775172308532184    0.00031102421088242363    
  -0.0006962523802750375    -0.001777489690324612    -0.002783850488445719    -0.0035255179628479417    -0.0038923907994148762    
  -0.003933340406853782    -0.0037764353366630792    -0.0034714850634988293    -0.0029215535313049977    -0.001958897849997084    
  -0.0005159853964962284    -0.0006993792379447391    0.0006204991254765993    0.002065501666331902    0.0033440314559392515    
  0.004231218473334053    0.004644375045207862    0.0046205210165724125    0.004274774920720705    0.0037523363723292982    
  0.0031729314736505514    0.0025955843058187685    0.002017071748790861    0.0013926180753207993    0.0006667789664592672    
  -0.0001954539766618936    -0.0011862649044280338    -0.0022335293401095145    -0.0031784447322468824    -0.0038080635839325004    
  -0.003987364874513798    -0.003776423715912066    -0.0033686665224788906    -0.0029101504125613447    -0.0023963270645687225    
  -0.0017035262698202012    -0.0006993792379447391    -0.0007657927460912479    3.842028712709462e-05    0.001023956441446435    
  0.0020497979741813622    0.0029270276745079976    0.003491058440945045    0.003656824372532973    0.0034609153080833216    
  0.0030366306722734997    0.0025250678066861525    0.0020058426143049956    0.0014879067524612571    0.0009341338434439315    
  0.00029321103023413137    -0.0004693332179329374    -0.0013497088179532507    -0.0022895955046194003    -0.003149692021552971    
  -0.0037150751808545956    -0.003812787742814057    -0.003471471216552735    -0.0029101664380782074    -0.0023463072150777956    
  -0.0018527497944226426    -0.0013663880697557813    -0.0007657927460912479    -0.0007728517081721405    -0.00041251493748729727    
  4.1077251103057706e-05    0.0005774448816605725    0.001145840183514359    0.001649055248440342    0.0019569808188319633    
  0.0019969570023841243    0.0018171885294474455    0.0015289414695695317    0.0012123261870894632    0.0008846501133302766    
  0.0005209003931006358    8.316685844105883e-05    -0.00045482936883322944    -0.001094178658002713    -0.001806482243456722    
  -0.0025101607063929225    -0.003037073404213859    -0.003191343361961875    -0.0029215302494358416    -0.002396366825310015    
  -0.001852799880805841    -0.0014168510027785357    -0.0010813228472329737    -0.0007728517081721405    -0.0007669611791261066    
  -0.0007015793196985885    -0.0006783214823417985    -0.0006780455548014286    -0.0006400528168320125    -0.0004956404445904707    
  -0.00026354307718494304    -4.383723548431413e-05    9.630141685791196e-05    0.00016669035108013086    0.00019741413173503632    
  0.0001930317179714557    0.00013716562306976404    1.1600943931650858e-05    -0.00019167031282829757    -0.00047041711671027035    
  -0.000825186452050326    -0.0012520967299447306    -0.0016846709682929748    -0.0019650238579500476    -0.001958842404490511    
  -0.0017035642718434176    -0.0013664816272931132    -0.0010813955378705222    -0.0008863626441562787    -0.0007669611791261066    
  -0.0007893070003422031    -0.0008877136156378683    -0.0011155028108666594    -0.00150053856490133    -0.0019710162986031144    
  -0.0023348733144562266    -0.00241670335934549    -0.0022045222057433755    -0.001812415334470207    -0.001356588558916146    
  -0.0009100520241974027    -0.000517481173181833    -0.0002026715764737491    3.29236664278989e-05    0.00020483797523926598    
  0.00032954588893113225    0.0003951575993346865    0.00034509784496728656    0.00012882806222365106    -0.00020550966943504525    
  -0.000515881277758023    -0.0006993738182142681    -0.0007658849418135499    -0.0007729734728134814    -0.0007670380651029674    
  -0.0007893070003422031    -0.0009346907513860434    -0.001039872779697204    -0.001272544410992093    -0.0016553537445911847    
  -0.0021071490479362912    -0.002432779559878338    -0.0024675264781594784    -0.0022158146412682533    -0.0018000627780447801    
  -0.001334066141441984    -0.0008847113648178084    -0.0004924555187718489    -0.0001793381055105976    5.379538344643217e-05    
  0.00022273569996219696    0.0003440876184785078    0.000405604589526339    0.00034909835944514715    0.00012138865612154678    
  -0.00023101086910743793    -0.0005648305109787636    -0.0007740129375607617    -0.0008654373407327181    -0.0008937383452325834    
  -0.0009029160311686949    -0.0009346907513860434    -0.0010399495734589423    -0.0012613050450598086    -0.0016110907457230134    
  -0.002176181127272978    -0.0029251093061423436    -0.003641530193383781    -0.004024411042468346    -0.0039148390640710885    
  -0.003385465439752392    -0.0026261401856934622    -0.0018115557612656478    -0.0010533921300781932    -0.0003993292358222016    
  0.00015529892533723438    0.0006458269382831841    0.0011075368487160945    0.001535977664929062    0.0018543459649174887    
  0.001937078125346363    0.0017067225776704893    0.001212325368544551    0.0005924634117218243    -1.2000835462923117e-05    
  -0.0004970906882626742    -0.0008229562219571978    -0.0010399495734589423    -0.0012726574528859804    -0.001611148871424712    
  -0.001991763417205716    -0.0025648842187474966    -0.0033601907523849346    -0.004207962529777958    -0.004780279653014144    
  -0.004809558108168445    -0.004274949278429732    -0.003365212550503487    -0.002317584465685179    -0.0013058996374149298    
  -0.00041117195494540324    0.00036459076063392204    0.0010659946879084143    0.0017426389982508406    0.002403932824403517    
  0.002983301824956945    0.0033426865700694726    0.0033358928984118354    0.0028919229264515118    0.0020586933060566565    
  0.0010058027568886178    -1.32437101202368e-05    -0.0007849730795580574    -0.0012726574528859804    -0.0016554596208862992    
  -0.0021762623370317996    -0.002564921517698145    -0.0030428873309637926    -0.0037014924841599845    -0.004433342547032505    
  -0.004954854873637963    -0.00498328427673221    -0.004439393737973296    -0.003472620508013556    -0.002324176552040207    
  -0.0011924871456318574    -0.0001801091238222231    0.0007000960985042939    0.0014922702224778642    0.0022527616848875987    
  0.0030025698830968427    0.003693675269168628    0.004210424641470607    0.004405511496813971    0.004141392081454447    
  0.0033340880766634163    0.002041042544879182    0.0005416372500230407    -0.0007692619064990504    -0.0016554596208862992    
  -0.002107249165693684    -0.0029251995145742715    -0.003360250241159432    -0.0037015189941114247    -0.004119516831064073    
  -0.004576395577367214    -0.004857250162237776    -0.004724954960408479    -0.004098798346539795    -0.003096126323885304    
  -0.0019278709228342965    -0.0007780794945380431    0.00025141608856416926    0.0011415950886145827    0.0019308373089423222    
  0.0026756789519513046    0.0034052658187580225    0.004088647166252061    0.004637888438244738    0.0049366446953972055    
  0.004847852385766986    0.004207447255874143    0.002912344567527264    0.0011186341308462794    -0.0007118659302050656    
  -0.002107249165693684    -0.0024329264083821213    -0.003641660509304556    -0.004208060948129937    -0.004433404721451806    
  -0.004576426176860221    -0.004687215023733603    -0.004630720476437168    -0.004238946177777309    -0.00346560728500853    
  -0.0024169641447506795    -0.0012660404088659474    -0.0001599038745733749    0.0008194515549654314    0.0016551568997401854    
  0.00237893620044591    0.0030428441520462513    0.003681241446483687    0.004278919331198947    0.0047712430332229935    
  0.005072142599869781    0.0050751556930101185    0.004609032320687817    0.00346720361904659    0.0016260858529766678    
  -0.0005434360359973559    -0.0024329264083821213    -0.0024677609560728787    -0.0040246237494932224    -0.004780452184023867    
  -0.004954979658324471    -0.004857329952819325    -0.004630760376790837    -0.004229113617533259    -0.0035598152953072487    
  -0.00262340776793757    -0.001529461846680581    -0.00041830978035038577    0.0006056349016508936    0.001489567748002945    
  0.0022254715551750953    0.0028403667627473865    0.003379527313572299    0.00387909015164384    0.0043383026934060084    
  0.004713857257866103    0.00494191641180065    0.004944485065897959    0.004581192017927363    0.0036281871264795544    
  0.0019376724401925975    -0.0002876995183935484    -0.0024677609560728787    -0.002216122162216827    -0.003915135520140058    
  -0.004809815442879718    -0.004983486153816521    -0.004725098157717051    -0.004239035948074911    -0.003559857989589927    
  -0.002665231429025427    -0.001600593650180481    -0.0004846800249774088    0.0005653590572401247    0.0014818062449567539    
  0.002240562288840161    0.0028448775484205824    0.003319731637821133    0.0037042825453377313    0.004033943761355099    
  0.004319211865758765    0.004536982229853225    0.004642694496483696    0.004578327309899907    0.0042384082689112534    
  0.0034336394375303917    0.00198215665522074    -5.029782360202313e-05    -0.002216122162216827    -0.0018004009543417427    
  -0.0033858093305602624    -0.004275266108250565    -0.004439658625988947    -0.004098999730255964    -0.003465746168296905    
  -0.002623492002311283    -0.0016006320515508494    -0.000475336434722468    0.0006251603078533206    0.0015967403306165542    
  0.002395822135020066    0.003019238211041889    0.003479173250574244    0.003799510284452739    0.004015440460850177    
  0.00416207647750206    0.004258335864776863    0.004298229963045475    0.004255582890622135    0.0040892744368608    
  0.0037229683073950657    0.0030152347833074453    0.0018080781841331136    0.00010062294909116265    -0.0018004009543417427    
  -0.0013344021313096092    -0.002626493938851024    -0.0033655540504472486    -0.0034729216924745503    -0.0030963691297208264    
  -0.0024171434809891245    -0.0015295827684840438    -0.0004847520362954987    0.0006251279496773814    0.001670512454650337    
  0.0025531188998255175    0.003239950212511073    0.00373786613609237    0.004062559341741569    0.004234989144894721    
  0.004287011608832469    0.004255418109413528    0.004167766062812974    0.004032418283542413    0.0038390279361877333    
  0.0035623695689243565    0.003151834113035962    0.0025115186874536477    0.0015262820014859146    0.00017729145997832804    
  -0.0013344021313096092    -0.000885024967153857    -0.001811894037756669    -0.002317923430871882    -0.002324489881258733    
  -0.001928137704294063    -0.0012662501894398037    -0.00041846234213804867    0.0005652572761258754    0.0015966804333456942    
  0.0025530925257631564    0.0033400501190112646    0.003925644715499242    0.004317326860822526    0.0045287995432877915    
  0.004574955104134791    0.0044822928870683785    0.004289603020520965    0.004035038395734621    0.003741499787482918    
  0.0034120284969591783    0.0030348075747544646    0.0025824756206517404    0.0020001896928965876    0.0012160104134507001    
  0.00021206349510132923    -0.000885024967153857    -0.0004927312397018426    -0.0010536962165531812    -0.0013062141991445903    
  -0.0011927901184338604    -0.0007783505387747002    -0.00016012977646671862    0.000605459311024564    0.0014816799046455868    
  0.0023957395659279443    0.0032399034161589135    0.0039256252651361685    0.004418177140095189    0.004720036629383506    
  0.004839443752412117    0.0047830121987876215    0.004568973450985897    0.004235907140337905    0.003833236531310202    
  0.00340041793037224    0.0029539742164421652    0.0024933273327608584    0.002011289267078423    0.0014894556672570515    
  0.000893970347724181    0.00021047199273523142    -0.0004927312397018426    -0.00017956669044154428    -0.0003995864378854551    
  -0.0004114452104328654    -0.00018038122532543387    0.00025116290283119    0.0008192303561278874    0.001489385767794138    
  0.0022404227280276587    0.003019140623617437    0.0037378055732111286    0.004317294972076165    0.0047200245099145765    
  0.004941159505382304    0.004981814845057053    0.00483961614542634    0.004522663914472741    0.004066348338767999    
  0.0035300036874792652    0.0029709764928845094    0.0024211376805935276    0.0018914930649075116    0.0013936890174393107    
  0.0009422457022154138    0.0005351118907483763    0.00015650025455289627    -0.00017956669044154428    5.361139985131295e-05    
  0.00015509054145537883    0.0003643657413235264    0.0006998666795933285    0.0011413757319416987    0.0016549592162752452    
  0.0022253023157720584    0.0028447408776361687    0.0034790718577595876    0.00406249241254507    0.004528761253614938    
  0.004839425509889957    0.004981808720580266    0.004948927379507875    0.004729374969725988    0.004320536360056539    
  0.0037523314357808205    0.0030917471917510106    0.002413859753358676    0.0017674435183796802    0.0011769491251897408    
  0.0006744530888614202    0.00030749125055998244    0.00010175583609295109    3.220247599596237e-05    5.361139985131295e-05    
  0.0002225809749235867    0.000645656257240125    0.0010658126428141148    0.0014920839196200975    0.001930656684252792    
  0.0023787706108881856    0.002840222051389115    0.0033196110813177478    0.0037994166115661917    0.0042349236357561975    
  0.004574915194113243    0.0047829916735139194    0.004839607970271112    0.004729373283439761    0.004432275856973448    
  0.003935573389076852    0.003262590787300773    0.002485664233723007    0.0016962603720733407    0.0009601285296548176    
  0.0003159077474396428    -0.00018194411442499014    -0.00044955110214804617    -0.0004323749431483411    -0.00017025826728757102    
  0.0002225809749235867    0.0003439413877617822    0.0011073831197460444    0.0017424839383990952    0.0022526097803286073    
  0.0026755345840063214    0.0030427119150964583    0.003379410961152345    0.0037041846255403393    0.004015362834903377    
  0.004286955197879886    0.004482256544429772    0.004568953748110697    0.004522656329176294    0.004320536232598196    
  0.003935575827987738    0.003347371709847406    0.0025736048695501187    0.0016904461405936211    0.0008035488055031277    
  -6.382100258820158e-06    -0.0006892772417260526    -0.0011704990413804906    -0.0013273998774459947    -0.0010697102111649269    
  -0.0004490449613710134    0.0003439413877617822    0.000405453927786378    0.0015358218537847152    0.0024037841924680076    
  0.003002436748388411    0.0034051505166911877    0.003681142285976634    0.0038790051017655314    0.0040338727260935976    
  0.004162020674591066    0.004255377934801937    0.0042895770652797436    0.004235893203878055    0.00406634454088325    
  0.0037523355653828997    0.0032625988674696467    0.0025736113995877235    0.0017014300697975897    0.0007268978451584401    
  -0.00023222799193913367    -0.001084606258196687    -0.0017768260330871164    -0.0022252043725933786    -0.002273737125429812    
  -0.0017863297777114939    -0.0008069205055265716    0.000405453927786378    0.00034894322740034096    0.0018541831270330583    
  0.002983147522151121    0.0036935451817788965    0.004088548926049699    0.004278849708003773    0.004338252531187344    
  0.004319173966452169    0.004258308142060054    0.004167748545811101    0.004035029813865438    0.003833234920352644    
  0.0035300085596283045    0.003091758752278854    0.002485680369382341    0.0016904617580374517    0.0007269075314505113    
  -0.0003154241750448668    -0.0013068182178900723    -0.002150519704689765    -0.002802947733567708    -0.003194276357618432    
  -0.0031574668171579032    -0.0025082090415622788    -0.0012449117677151122    0.00034894322740034096    0.00012123281334011838    
  0.0019369147406488212    0.0033425310648191    0.004210294548588984    0.004637797779373133    0.004771194497335745    