#     DFTpy    
  CRYSTAL 
    
  PRIMVEC    
  2.4419016401148226    -4.2294977077646445    0.0    
  2.4419016401148226    4.2294977077646445    0.0    
  0.0    0.0    4.5964483356472465    
  PRIMCOORD    
  1    1    
  Si    0.0    0.0    0.0    
  BEGIN_BLOCK_DATAGRID_3D    
  3d_datagrid_density    
  BEGIN_DATAGRID_3D#0    
  46    46    46    
  0.0    0.0    0.0    
  2.44190164922316    -4.229497723540748    0.0    
  2.44190164922316    4.229497723540748    0.0    
  0.0    0.0    4.59644835279209    
  0.06205891986438495    0.07142606053896465    0.10228904631697158    0.15890375259307302    0.23619713929579078    
  0.3121194421403173    0.3576718899233457    0.35829561330260395    0.3219896741682092    0.2678228345354622    
  0.2118787834443782    0.16258298677954902    0.12265945809843451    0.0919113659590337    0.06893211843518068    
  0.052059313530554194    0.03984116453839914    0.031124247336896612    0.024995106720498258    0.020756030856823166    
  0.01792417643877705    0.016193143905316214    0.01537536216750116    0.015375362167501152    0.016193143905316208    
  0.017924176438777067    0.02075603085682315    0.024995106720498247    0.0311242473368966    0.039841164538399115    
  0.052059313530554194    0.06893211843518068    0.09191136595903368    0.12265945809843448    0.16258298677954902    
  0.21187878344437816    0.2678228345354622    0.3219896741682092    0.3582956133026039    0.3576718899233457    
  0.3121194421403174    0.23619713929579075    0.15890375259307302    0.10228904631697158    0.0714260605389646    
  0.06205891986438495    0.07142606053896468    0.07142606053896461    0.09160767017916072    0.13588512490605079    
  0.20429573107634674    0.28257043637658985    0.34320590676734414    0.36351410394548206    0.3417464000923168    
  0.2935361000660136    0.23715499212558175    0.18436942006824678    0.14011348820129768    0.10528272866279549    
  0.07890725985969431    0.059380231745367086    0.04513471663670372    0.03488974863170075    0.02763106900025659    
  0.02256203512578609    0.019101234640355045    0.016866079047308257    0.015618278495285914    0.01521839145403879    
  0.015618278495285931    0.01686607904730827    0.019101234640355014    0.022562035125786088    0.02763106900025659    
  0.034889748631700725    0.045134716636703716    0.0593802317453671    0.07890725985969431    0.10528272866279548    
  0.1401134882012977    0.18436942006824672    0.2371549921255817    0.2935361000660136    0.3417464000923168    
  0.363514103945482    0.3432059067673441    0.28257043637658974    0.20429573107634674    0.13588512490605076    
  0.09160767017916069    0.07142606053896468    0.10228904631697157    0.09160767017916072    0.10228904631697161    
  0.1358851249060508    0.1931733781906684    0.2652252147371503    0.3296856168177946    0.36208066813605916    
  0.3531572378135089    0.31272774180764207    0.2583717498772408    0.20397575995807135    0.1565724634306972    
  0.11831373946840856    0.08885287760052468    0.06680425316444245    0.050583556955006874    0.038816195659040834    
  0.030405485331276988    0.02447926433210526    0.02037196279452425    0.017623795032717465    0.015942324748611722    
  0.01514755462978634    0.015147554629786357    0.01594232474861176    0.01762379503271744    0.020371962794524235    
  0.024479264332105257    0.030405485331276964    0.03881619565904081    0.05058355695500686    0.06680425316444247    
  0.08885287760052467    0.11831373946840854    0.1565724634306972    0.20397575995807127    0.2583717498772408    
  0.312727741807642    0.35315723781350883    0.36208066813605916    0.32968561681779457    0.26522521473715027    
  0.1931733781906684    0.13588512490605073    0.10228904631697157    0.15890375259307307    0.13588512490605073    
  0.13588512490605079    0.15890375259307302    0.20429573107634671    0.2652252147371503    0.324319798154553    
  0.359566494237777    0.3583814487477156    0.32502804270955005    0.27417732722207944    0.21998869579522845    
  0.17088746280035158    0.13017816457043768    0.09821475719638037    0.07396530961420393    0.05594583249527817    
  0.04275007824842033    0.033226153578850434    0.02645169059589919    0.021700418096283505    0.01844453616388886    
  0.016336572147231047    0.015158106801098713    0.014780169020451815    0.01515810680109874    0.01633657214723104    
  0.01844453616388884    0.021700418096283494    0.026451690595899174    0.03322615357885042    0.04275007824842032    
  0.05594583249527816    0.07396530961420393    0.09821475719638034    0.1301781645704377    0.17088746280035158    
  0.21998869579522845    0.2741773272220794    0.32502804270955005    0.3583814487477156    0.359566494237777    
  0.324319798154553    0.26522521473715027    0.20429573107634666    0.15890375259307307    0.23619713929579075    
  0.20429573107634674    0.19317337819066838    0.2042957310763467    0.23619713929579075    0.28257043637658974    
  0.32968561681779457    0.3595664942377769    0.3597892306514438    0.3309087624704311    0.2838315766774236    
  0.23127868137864166    0.18198545645483705    0.14002171127520083    0.10637910532327732    0.08044358532748606    
  0.06093664055579642    0.04650156079705351    0.03597285005450489    0.02840524406686255    0.0230390755802463    
  0.019297199639891544    0.016782333508178735    0.015239335844013846    0.014508787660596822    0.014508787660596847    
  0.015239335844013846    0.016782333508178735    0.019297199639891533    0.02303907558024628    0.02840524406686255    
  0.035972850054504894    0.0465015607970535    0.06093664055579642    0.08044358532748609    0.10637910532327732    
  0.14002171127520083    0.18198545645483702    0.23127868137864166    0.28383157667742354    0.33090876247043116    
  0.35978923065144375    0.3595664942377769    0.3296856168177945    0.28257043637658974    0.23619713929579075    
  0.3121194421403173    0.28257043637658974    0.26522521473715027    0.26522521473715027    0.2825704363765897    
  0.3121194421403174    0.34320590676734414    0.36208066813605916    0.3583814487477156    0.33090876247043116    
  0.28706602904097733    0.23710179737806325    0.18900896142464654    0.14707366759227924    0.1127404187274593    
  0.08580040000916372    0.06524783654044236    0.049856896795236555    0.03850286973372899    0.030249077465032345    
  0.024329778026605145    0.020142739142558024    0.017253785366236774    0.015374932597480226    0.014321376145298374    
  0.01398288051964266    0.014321376145298366    0.015374932597480222    0.017253785366236767    0.020142739142558007    
  0.024329778026605135    0.03024907746503235    0.03850286973372898    0.049856896795236555    0.06524783654044239    
  0.08580040000916374    0.11274041872745925    0.14707366759227924    0.18900896142464654    0.23710179737806325    
  0.28706602904097733    0.3309087624704311    0.35838144874771555    0.3620806681360591    0.3432059067673442    
  0.3121194421403173    0.35767188992334575    0.3432059067673442    0.32968561681779457    0.324319798154553    
  0.3296856168177946    0.3432059067673441    0.3576718899233457    0.36351410394548206    0.3531572378135089    
  0.32502804270955005    0.28383157667742365    0.23710179737806325    0.19141221814023432    0.15075441669953013    
  0.11678603724925977    0.08963206326249111    0.06858071462582495    0.052599987034109015    0.04066430615612773    
  0.031882119671462136    0.02550755671033729    0.020938011403643125    0.017721272888724313    0.015545169493719119    
  0.014203945200780724    0.013566711002150714    0.013566711002150693    0.014203945200780733    0.015545169493719112    
  0.017721272888724302    0.0209380114036431    0.02550755671033729    0.03188211967146212    0.04066430615612774    
  0.052599987034108994    0.06858071462582496    0.08963206326249111    0.11678603724925976    0.15075441669953013    
  0.19141221814023437    0.2371017973780633    0.2838315766774236    0.32502804270955005    0.35315723781350894    
  0.36351410394548206    0.35767188992334575    0.35829561330260384    0.36351410394548206    0.36208066813605916    
  0.359566494237777    0.359566494237777    0.36208066813605916    0.36351410394548195    0.35829561330260395    
  0.34174640009231677    0.31272774180764207    0.27417732722207944    0.23127868137864166    0.18900896142464654    
  0.15075441669953016    0.11817440162301568    0.09163057291552701    0.07068778230422917    0.05454175912238082    
  0.04231651174380928    0.03320501030234675    0.026506717493561437    0.021640173633144518    0.018155324547279264    
  0.015729429939748935    0.014142081824306593    0.013247310429864372    0.012958746672089419    0.013247310429864361    
  0.01414208182430659    0.01572942993974892    0.018155324547279257    0.021640173633144515    0.026506717493561423    
  0.03320501030234674    0.0423165117438093    0.05454175912238082    0.07068778230422917    0.091630572915527    
  0.11817440162301565    0.15075441669953007    0.18900896142464657    0.23127868137864166    0.2741773272220794    
  0.31272774180764207    0.34174640009231677    0.35829561330260384    0.3219896741682092    0.34174640009231677    
  0.3531572378135089    0.35838144874771555    0.35978923065144375    0.3583814487477156    0.3531572378135089    
  0.3417464000923168    0.3219896741682092    0.2935361000660136    0.2583717498772408    0.21998869579522845    
  0.18198545645483705    0.14707366759227927    0.11678603724925977    0.091630572915527    0.07140848511360035    
  0.05554688291142324    0.04335097426295933    0.0341342922789424    0.027267846150517982    0.022209708384502112    
  0.018529023483940234    0.015907825117428526    0.014120715877574292    0.01301183211563502    0.012481671993175637    
  0.012481671993175646    0.013011832115634994    0.014120715877574283    0.015907825117428512    0.018529023483940237    
  0.022209708384502095    0.02726784615051799    0.03413429227894243    0.04335097426295934    0.05554688291142322    
  0.07140848511360035    0.09163057291552702    0.11678603724925977    0.1470736675922793    0.18198545645483707    
  0.21998869579522848    0.2583717498772408    0.2935361000660136    0.3219896741682092    0.2678228345354622    
  0.2935361000660136    0.31272774180764207    0.32502804270955005    0.33090876247043105    0.33090876247043116    
  0.32502804270955005    0.31272774180764207    0.29353610006601355    0.2678228345354622    0.23715499212558175    
  0.20397575995807135    0.17088746280035158    0.14002171127520083    0.1127404187274593    0.08963206326249111    
  0.07068778230422916    0.055546882911423234    0.04370278945258002    0.034612851924418105    0.02774422545601111    
  0.02261223950607046    0.01881830766755604    0.01606194405238262    0.01412407333083889    0.012845949552164513    
  0.012119543193251993    0.01188383165929757    0.012119543193251989    0.012845949552164495    0.014124073330838881    
  0.016061944052382614    0.018818307667556024    0.022612239506070435    0.02774422545601111    0.03461285192441811    
  0.043702789452580014    0.055546882911423186    0.07068778230422916    0.08963206326249114    0.11274041872745932    
  0.14002171127520083    0.17088746280035158    0.20397575995807132    0.2371549921255817    0.2678228345354622    
  0.2118787834443781    0.23715499212558175    0.25837174987724076    0.2741773272220793    0.28383157667742354    
  0.28706602904097733    0.28383157667742354    0.27417732722207944    0.2583717498772408    0.2371549921255817    
  0.21187878344437816    0.18436942006824672    0.15657246343069722    0.13017816457043768    0.10637910532327734    
  0.08580040000916372    0.06858071462582492    0.05454175912238082    0.043350974262959335    0.0346128519244181    
  0.02790636094023891    0.02282104063258478    0.01900223870844819    0.01617554720068811    0.014137428397245164    
  0.012734755960596724    0.011856216207309684    0.011432518412282579    0.011432518412282574    0.01185621620730968    
  0.012734755960596719    0.014137428397245173    0.016175547200688093    0.019002238708448183    0.02282104063258478    
  0.02790636094023891    0.034612851924418084    0.04335097426295932    0.05454175912238082    0.06858071462582496    
  0.08580040000916377    0.10637910532327732    0.1301781645704377    0.1565724634306972    0.18436942006824672    
  0.2118787834443781    0.16258298677954902    0.18436942006824678    0.20397575995807132    0.21998869579522845    
  0.23127868137864166    0.23710179737806325    0.23710179737806325    0.23127868137864166    0.21998869579522845    
  0.20397575995807132    0.18436942006824672    0.162582986779549    0.14011348820129768    0.11831373946840854    
  0.09821475719638037    0.08044358532748606    0.06524783654044235    0.052599987034109    0.04231651174380928    
  0.0341342922789424    0.027744225456011115    0.022821040632584777    0.019065475762388696    0.01623592876952453    
  0.014149637313591642    0.01266611866725784    0.011677464277742763    0.011110049291336282    0.010924741856203261    
  0.011110049291336268    0.011677464277742746    0.012666118667257836    0.014149637313591642    0.016235928769524528    
  0.019065475762388703    0.022821040632584774    0.027744225456011115    0.03413429227894238    0.04231651174380925    
  0.05259998703410896    0.06524783654044242    0.08044358532748609    0.09821475719638033    0.11831373946840851    
  0.1401134882012977    0.16258298677954902    0.12265945809843448    0.1401134882012977    0.15657246343069722    
  0.17088746280035158    0.18198545645483702    0.18900896142464657    0.1914122181402343    0.18900896142464657    
  0.18198545645483707    0.17088746280035158    0.15657246343069725    0.1401134882012977    0.12265945809843451    
  0.10528272866279548    0.0888528776005247    0.07396530961420392    0.06093664055579642    0.049856896795236555    
  0.040664306156127726    0.03320501030234674    0.027267846150517982    0.022612239506070452    0.01900223870844819    
  0.016235928769524535    0.01415435845914927    0.01263306403872235    0.011573450721943811    0.010902945566854276    
  0.010577312483339889    0.010577312483339886    0.010902945566854274    0.01157345072194381    0.012633064038722344    
  0.014154358459149273    0.01623592876952452    0.0190022387084482    0.022612239506070473    0.027267846150517975    
  0.03320501030234677    0.040664306156127726    0.049856896795236604    0.060936640555796444    0.0739653096142039    
  0.08885287760052467    0.10528272866279548    0.12265945809843448    0.0919113659590337    0.10528272866279548    
  0.11831373946840854    0.13017816457043768    0.14002171127520086    0.1470736675922793    0.15075441669953013    
  0.15075441669953013    0.14707366759227927    0.14002171127520083    0.1301781645704377    0.11831373946840856    
  0.10528272866279548    0.09191136595903368    0.07890725985969431    0.06680425316444244    0.05594583249527816    
  0.04650156079705349    0.038502869733728975    0.031882119671462136    0.02650671749356143    0.022209708384502102    
  0.01881830766755605    0.01617554720068811    0.014149637313591645    0.012633064038722348    0.011539231746778214    
  0.010801865445053693    0.010375914231985368    0.01023650617013278    0.010375914231985377    0.010801865445053698    
  0.011539231746778218    0.012633064038722355    0.014149637313591647    0.01617554720068812    0.01881830766755605    
  0.02220970838450211    0.026506717493561448    0.031882119671462136    0.03850286973372901    0.046501560797053525    
  0.05594583249527817    0.0668042531644425    0.07890725985969435    0.0919113659590337    0.06893211843518073    
  0.07890725985969432    0.08885287760052467    0.09821475719638034    0.10637910532327734    0.1127404187274593    
  0.11678603724925977    0.11817440162301565    0.1167860372492598    0.1127404187274593    0.10637910532327732    
  0.09821475719638034    0.08885287760052467    0.07890725985969431    0.0689321184351807    0.059380231745367086    
  0.05058355695500687    0.04275007824842033    0.03597285005450487    0.030249077465032338    0.025507556710337283    
  0.0216401736331445    0.01852902348394024    0.016061944052382624    0.014137428397245168    0.012666118667257833    
  0.011573450721943816    0.010801865445053693    0.01031013177172071    0.010071163837222384    0.010071163837222393    
  0.010310131771720722    0.010801865445053689    0.011573450721943808    0.012666118667257848    0.014137428397245171    
  0.01606194405238263    0.01852902348394025    0.02164017363314449    0.025507556710337255    0.030249077465032373    
  0.035972850054504894    0.042750078248420316    0.05058355695500687    0.05938023174536715    0.06893211843518073    
  0.05205931353055418    0.059380231745367086    0.06680425316444243    0.0739653096142039    0.08044358532748606    
  0.08580040000916378    0.08963206326249115    0.09163057291552705    0.09163057291552698    0.08963206326249111    
  0.08580040000916374    0.08044358532748608    0.0739653096142039    0.06680425316444247    0.059380231745367114    
  0.05205931353055419    0.045134716636703716    0.03881619565904081    0.033226153578850406    0.02840524406686255    
  0.024329778026605138    0.02093801140364311    0.018155324547279274    0.01590782511742853    0.014124073330838894    
  0.012734755960596712    0.011677464277742763    0.010902945566854267    0.010375914231985367    0.010071163837222384    
  0.009971692365764527    0.010071163837222393    0.010375914231985353    0.010902945566854266    0.011677464277742754    
  0.012734755960596736    0.014124073330838897    0.015907825117428512    0.018155324547279278    0.02093801140364314    
  0.024329778026605173    0.02840524406686256    0.033226153578850386    0.03881619565904081    0.04513471663670372    
  0.05205931353055418    0.03984116453839916    0.04513471663670376    0.05058355695500685    0.055945832495278146    
  0.06093664055579643    0.0652478365404424    0.06858071462582493    0.07068778230422916    0.07140848511360037    
  0.07068778230422917    0.06858071462582493    0.06524783654044236    0.06093664055579642    0.05594583249527817    
  0.05058355695500688    0.0451347166367037    0.03984116453839913    0.03488974863170074    0.030405485331276978    
  0.02645169059589919    0.023039075580246298    0.020142739142558014    0.01772127288872432    0.015729429939748938    
  0.014120715877574292    0.012845949552164504    0.011856216207309698    0.011110049291336273    0.010577312483339884    
  0.010236506170132777    0.010071163837222391    0.010071163837222398    0.010236506170132779    0.0105773124833399    
  0.011110049291336271    0.011856216207309691    0.012845949552164513    0.014120715877574295    0.015729429939748938    
  0.017721272888724295    0.020142739142557993    0.02303907558024629    0.026451690595899174    0.030405485331276984    
  0.0348897486317008    0.03984116453839916    0.03112424733689663    0.034889748631700766    0.03881619565904082    
  0.04275007824842031    0.046501560797053525    0.049856896795236555    0.052599987034108994    0.05454175912238084    
  0.05554688291142324    0.05554688291142322    0.05454175912238081    0.05259998703410898    0.04985689679523653    
  0.04650156079705349    0.04275007824842033    0.038816195659040806    0.03488974863170073    0.031124247336896595    
  0.02763106900025658    0.024479264332105264    0.021700418096283505    0.019297199639891523    0.01725378536623678    
  0.01554516949371912    0.014142081824306596    0.013011832115635008    0.012119543193252001    0.01143251841228257    
  0.01092474185620325    0.010577312483339894    0.01037591423198537    0.01031013177172072    0.010375914231985374    
  0.0105773124833399    0.010924741856203294    0.011432518412282586    0.012119543193252019    0.013011832115635039    
  0.014142081824306593    0.015545169493719086    0.017253785366236802    0.019297199639891544    0.021700418096283487    
  0.024479264332105267    0.027631069000256633    0.03112424733689663    0.02499510672049827    0.027631069000256556    
  0.030405485331276964    0.03322615357885041    0.03597285005450488    0.03850286973372901    0.04066430615612772    
  0.04231651174380929    0.043350974262959335    0.043702789452580035    0.04335097426295935    0.042316511743809286    
  0.04066430615612771    0.038502869733728975    0.03597285005450488    0.033226153578850406    0.030405485331276978    
  0.027631069000256584    0.024995106720498247    0.022562035125786094    0.020371962794524245    0.01844453616388884    
  0.01678233350817874    0.01537493259748023    0.01420394520078073    0.013247310429864358    0.012481671993175642    
  0.011883831659297564    0.011432518412282565    0.01111004929133627    0.010902945566854269    0.010801865445053686    
  0.01080186544505368    0.010902945566854267    0.011110049291336287    0.011432518412282598    0.011883831659297584    
  0.01248167199317566    0.013247310429864392    0.014203945200780721    0.015374932597480248    0.016782333508178756    
  0.018444536163888848    0.02037196279452427    0.022562035125786094    0.02499510672049827    0.02075603085682319    
  0.022562035125786115    0.02447926433210524    0.026451690595899205    0.028405244066862557    0.030249077465032373    
  0.031882119671462136    0.03320501030234675    0.03413429227894243    0.03461285192441812    0.03461285192441811    
  0.03413429227894242    0.03320501030234674    0.031882119671462136    0.030249077465032356    0.028405244066862543    
  0.026451690595899188    0.024479264332105264    0.022562035125786088    0.020756030856823177    0.01910123464035504    
  0.017623795032717448    0.016336572147231047    0.015239335844013855    0.014321376145298374    0.013566711002150693    
  0.012958746672089424    0.012481671993175633    0.012119543193251993    0.011856216207309683    0.011677464277742753    
  0.011573450721943825    0.01153923174677821    0.011573450721943818    0.01167746427774276    0.011856216207309707    
  0.012119543193252008    0.01248167199317566    0.012958746672089457    0.013566711002150693    0.014321376145298374    
  0.015239335844013878    0.016336572147231023    0.01762379503271746    0.01910123464035506    0.02075603085682319    
  0.01792417643877704    0.019101234640355073    0.02037196279452422    0.021700418096283498    0.02303907558024628    
  0.024329778026605166    0.02550755671033731    0.026506717493561448    0.027267846150517965    0.027744225456011105    
  0.0279063609402389    0.027744225456011115    0.02726784615051797    0.02650671749356142    0.02550755671033729    
  0.02432977802660513    0.023039075580246284    0.0217004180962835    0.020371962794524228    0.01910123464035503    
  0.017924176438777046    0.01686607904730824    0.01594232474861173    0.015158106801098714    0.014508787660596822    
  0.01398288051964264    0.013566711002150693    0.013247310429864361    0.013011832115634997    0.012845949552164504    
  0.012734755960596715    0.012666118667257836    0.012633064038722365    0.012633064038722368    0.012666118667257866    
  0.012734755960596745    0.012845949552164523    0.01301183211563502    0.013247310429864384    0.013566711002150691    
  0.0139828805196427    0.01450878766059684    0.015158106801098685    0.015942324748611722    0.016866079047308313    
  0.01792417643877704    0.016193143905316208    0.01686607904730825    0.017623795032717438    0.01844453616388886    
  0.019297199639891537    0.02014273914255804    0.020938011403643132    0.021640173633144515    0.0222097083845021    
  0.02261223950607047    0.02282104063258478    0.022821040632584784    0.022612239506070428    0.022209708384502088    
  0.0216401736331445    0.020938011403643104    0.020142739142558014    0.019297199639891533    0.018444536163888837    
  0.017623795032717448    0.01686607904730825    0.016193143905316187    0.015618278495285921    0.015147554629786345    
  0.01478016902045181    0.014508787660596817    0.014321376145298367    0.014203945200780718    0.014142081824306582    
  0.014120715877574281    0.014124073330838888    0.014137428397245156    0.014149637313591626    0.014154358459149259    
  0.014149637313591656    0.014137428397245173    0.014124073330838923    0.014120715877574299    0.01414208182430661    
  0.014203945200780738    0.01432137614529837    0.014508787660596848    0.014780169020451815    0.015147554629786378    
  0.01561827849528595    0.016193143905316208    0.015375362167501185    0.015618278495285893    0.015942324748611687    
  0.01633657214723104    0.016782333508178742    0.017253785366236816    0.017721272888724302    0.01815532454727925    
  0.018529023483940258    0.018818307667556055    0.01900223870844818    0.01906547576238871    0.01900223870844818    
  0.01881830766755603    0.018529023483940227    0.01815532454727926    0.017721272888724306    0.017253785366236764    
  0.01678233350817873    0.016336572147231047    0.015942324748611732    0.015618278495285918    0.015375362167501164    
  0.015218391454038803    0.015147554629786352    0.01515810680109871    0.01523933584401385    0.01537493259748022    
  0.01554516949371911    0.015729429939748935    0.01590782511742851    0.016061944052382624    0.0161755472006881    
  0.016235928769524517    0.01623592876952455    0.016175547200688138    0.016061944052382638    0.01590782511742853    
  0.015729429939748955    0.015545169493719074    0.01537493259748026    0.015239335844013898    0.015158106801098721    
  0.015147554629786314    0.015218391454038832    0.015375362167501185    0.015375362167501194    0.015218391454038815    
  0.015147554629786331    0.015158106801098692    0.015239335844013888    0.01537493259748024    0.01554516949371914    
  0.015729429939748955    0.015907825117428512    0.01606194405238265    0.01617554720068811    0.016235928769524535    
  0.01623592876952452    0.016175547200688097    0.016061944052382614    0.01590782511742851    0.01572942993974893    
  0.015545169493719112    0.015374932597480214    0.015239335844013846    0.015158106801098721    0.015147554629786345    
  0.015218391454038803    0.01537536216750116    0.015618278495285921    0.015942324748611725    0.016336572147231047    
  0.016782333508178735    0.01725378536623676    0.017721272888724306    0.018155324547279268    0.018529023483940237    
  0.018818307667556045    0.01900223870844818    0.019065475762388713    0.019002238708448208    0.018818307667556062    
  0.01852902348394027    0.018155324547279292    0.017721272888724306    0.017253785366236802    0.016782333508178742    
  0.016336572147231023    0.015942324748611732    0.015618278495285968    0.015375362167501194    0.016193143905316194    
  0.015618278495285918    0.015147554629786345    0.01478016902045184    0.014508787660596831    0.01432137614529838    
  0.01420394520078075    0.014142081824306579    0.01412071587757429    0.014124073330838907    0.014137428397245156    
  0.014149637313591633    0.014154358459149247    0.014149637313591612    0.014137428397245156    0.014124073330838878    
  0.01412071587757429    0.014142081824306587    0.014203945200780718    0.014321376145298366    0.014508787660596822    
  0.014780169020451806    0.015147554629786345    0.015618278495285914    0.016193143905316194    0.01686607904730824    
  0.01762379503271745    0.018444536163888837    0.01929719963989152    0.020142739142558014    0.02093801140364311    
  0.0216401736331445    0.0222097083845021    0.022612239506070435    0.02282104063258478    0.022821040632584815    
  0.02261223950607048    0.02220970838450211    0.021640173633144525    0.020938011403643132    0.020142739142558024    
  0.019297199639891547    0.018444536163888855    0.017623795032717483    0.016866079047308257    0.016193143905316194    
  0.017924176438777036    0.016866079047308292    0.015942324748611705    0.015158106801098714    0.014508787660596847    
  0.013982880519642712    0.01356671100215072    0.013247310429864372    0.013011832115635011    0.012845949552164506    
  0.012734755960596724    0.012666118667257855    0.012633064038722351    0.012633064038722348    0.012666118667257831    
  0.012734755960596708    0.012845949552164502    0.013011832115634992    0.01324731042986435    0.013566711002150685    
  0.013982880519642645    0.01450878766059682    0.015158106801098714    0.015942324748611725    0.016866079047308243    
  0.017924176438777042    0.019101234640355024    0.020371962794524228    0.021700418096283494    0.02303907558024628    
  0.024329778026605135    0.025507556710337297    0.026506717493561437    0.027267846150517975    0.02774422545601114    
  0.027906360940238933    0.027744225456011115    0.02726784615051799    0.026506717493561482    0.025507556710337304    
  0.02432977802660521    0.02303907558024629    0.021700418096283487    0.02037196279452424    0.019101234640355094    
  0.017924176438777036    0.020756030856823187    0.01910123464035504    0.017623795032717444    0.01633657214723106    
  0.01523933584401389    0.014321376145298392    0.013566711002150744    0.012958746672089428    0.01248167199317566    
  0.012119543193251996    0.011856216207309683    0.011677464277742761    0.0115734507219438    0.011539231746778206    
  0.011573450721943813    0.011677464277742746    0.011856216207309691    0.012119543193251987    0.012481671993175632    
  0.012958746672089416    0.013566711002150697    0.014321376145298367    0.015239335844013855    0.016336572147231047    
  0.01762379503271745    0.019101234640355035    0.020756030856823166    0.022562035125786084    0.024479264332105257    
  0.02645169059589918    0.02840524406686255    0.03024907746503235    0.03188211967146215    0.03320501030234674    