#     DFTpy    
  CRYSTAL 
    
  PRIMVEC    
  4.456344827586211    0.0    0.0    
  0.0    4.456344827586211    0.0    
  0.0    0.0    4.456344827586211    
  PRIMCOORD    
  8    1    
  Si    0.0    0.0    0.0    
  Si    1.1140862068965502    1.1140862068965502    1.1140862068965502    
  Si    0.0    2.2281724137931005    2.2281724137931005    
  Si    1.1140862068965502    3.3422586206896603    3.3422586206896603    
  Si    2.2281724137931005    0.0    2.2281724137931005    
  Si    3.3422586206896603    1.1140862068965502    3.3422586206896603    
  Si    2.2281724137931005    2.2281724137931005    0.0    
  Si    3.3422586206896603    3.3422586206896603    1.1140862068965502    
  BEGIN_BLOCK_DATAGRID_3D    
  3d_datagrid_density    
  BEGIN_DATAGRID_3D#0    
  46    46    46    
  0.0    0.0    0.0    
  4.456344844208462    0.0    0.0    
  0.0    4.456344844208462    0.0    
  0.0    0.0    4.456344844208462    
  0.04646393893804856    0.05464813547015146    0.08253122723883333    0.1377765258274831    0.22456298603730276    
  0.3330760931943894    0.4372596798239429    0.5079042589546872    0.530333505322816    0.5096421824305369    
  0.4617836412886526    0.40243113871906777    0.3420501307614951    0.28627695192339775    0.23766113578101652    
  0.19692435685166476    0.16378139649125076    0.13753622969460097    0.11739748222893723    0.10255804829992009    
  0.09223194417650887    0.08574370100380775    0.08261835527642217    0.08261835527642222    0.08574370100380764    
  0.09223194417650887    0.10255804829992005    0.11739748222893723    0.13753622969460097    0.1637813964912508    
  0.1969243568516648    0.23766113578101658    0.28627695192339764    0.34205013076149504    0.40243113871906766    
  0.4617836412886526    0.5096421824305369    0.5303335053228158    0.5079042589546872    0.4372596798239428    
  0.3330760931943894    0.22456298603730276    0.137776525827483    0.08253122723883344    0.05464813547015148    
  0.04646393893804856    0.05464813547015153    0.06345000636566395    0.09299262195651213    0.1502275368920238    
  0.23809643217729443    0.3457031086269543    0.447029444591552    0.5140877778585022    0.5335778980887419    
  0.5111876914933284    0.4626698778656677    0.4032290155456608    0.34297576526671486    0.28737305414825703    
  0.2389072664026682    0.19828483444383624    0.16522431883396632    0.13903741215609827    0.11893651408104075    
  0.10411553138960929    0.09379197984829823    0.08729799638925294    0.08416712060080264    0.08416712060080264    
  0.0872979963892529    0.0937919798482983    0.10411553138960929    0.11893651408104075    0.13903741215609836    
  0.16522431883396638    0.1982848344438363    0.23890726640266824    0.28737305414825703    0.3429757652667148    
  0.40322901554566076    0.4626698778656677    0.5111876914933284    0.5335778980887419    0.5140877778585022    
  0.4470294445915518    0.34570310862695436    0.23809643217729448    0.15022753689202373    0.09299262195651224    
  0.06345000636566388    0.05464813547015153    0.08253122723883333    0.09299262195651227    0.12683999731155393    
  0.1887948746723682    0.2783389561831599    0.3819488090169023    0.4742212004169469    0.5307885972456245    
  0.5420369198825159    0.5150469472886987    0.46485204138522124    0.4053068904249027    0.3455365180035229    
  0.29052383214706307    0.24257528693755112    0.20235089045426977    0.1695795903051229    0.14359714804769314    
  0.1236300973138554    0.10887911981526872    0.09857497327818711    0.09207302262635854    0.08893090438505528    
  0.08893090438505523    0.09207302262635854    0.09857497327818718    0.10887911981526872    0.1236300973138554    
  0.14359714804769314    0.16957959030512285    0.20235089045426985    0.2425752869375511    0.290523832147063    
  0.34553651800352286    0.40530689042490264    0.46485204138522124    0.5150469472886987    0.5420369198825159    
  0.5307885972456245    0.47422120041694676    0.3819488090169023    0.2783389561831599    0.1887948746723682    
  0.126839997311554    0.09299262195651217    0.08253122723883333    0.13777652582748293    0.15022753689202376    
  0.18879487467236816    0.2545739759968071    0.3423532511027808    0.43605393631491646    0.5124661290240352    
  0.5528217586691514    0.5522716476474997    0.5191657231655326    0.4670887882588435    0.4078560854928068    
  0.34919115269474016    0.2953956743960163    0.24850645336210328    0.20910748060955497    0.17694418062829956    
  0.15139497524310142    0.13171678237940404    0.11713084804757772    0.10689693285700907    0.1004102905014545    
  0.09726542410880802    0.09726542410880802    0.10041029050145446    0.10689693285700914    0.11713084804757772    
  0.13171678237940404    0.15139497524310142    0.1769441806282996    0.2091074806095551    0.24850645336210328    
  0.2953956743960162    0.34919115269474    0.4078560854928067    0.4670887882588434    0.5191657231655326    
  0.5522716476474996    0.5528217586691515    0.5124661290240352    0.43605393631491646    0.34235325110278086    
  0.2545739759968071    0.18879487467236825    0.15022753689202378    0.13777652582748293    0.2245629860373027    
  0.23809643217729443    0.27833895618315985    0.3423532511027808    0.4208269244008618    0.4969801641585785    
  0.5517952307421261    0.5729195095175285    0.5597558135410532    0.5209289298766372    0.46783441602988124    
  0.4099015543350315    0.35332105465020663    0.3016414754900938    0.25657797413708927    0.2186178680493046    
  0.18753193713390415    0.16276171884181995    0.14361500946101488    0.12935413967592085    0.11928926363209585    
  0.11287413071613288    0.1097520577974381    0.10975205779743809    0.11287413071613278    0.119289263632096    
  0.12935413967592085    0.14361500946101488    0.16276171884181997    0.1875319371339042    0.2186178680493047    
  0.25657797413708927    0.3016414754900937    0.3533210546502066    0.40990155433503145    0.46783441602988124    
  0.5209289298766371    0.5597558135410531    0.5729195095175285    0.551795230742126    0.4969801641585785    
  0.4208269244008618    0.3423532511027808    0.27833895618315996    0.23809643217729448    0.2245629860373027    
  0.33307609319438936    0.34570310862695436    0.3819488090169022    0.43605393631491635    0.49698016415857854    
  0.5498574757591957    0.5810681348015632    0.5839031475685499    0.5603317973502929    0.5180074158809618    
  0.46573416408398793    0.41062522103217536    0.35745984371252093    0.30906423973377184    0.26681488619654886    
  0.23109505021260493    0.20171309236999196    0.17819322104155275    0.15991549109098074    0.1462076517695188    
  0.13645597877925086    0.13019521845435114    0.1271333501712102    0.12713335017121025    0.130195218454351    
  0.13645597877925092    0.1462076517695188    0.15991549109098074    0.17819322104155275    0.20171309236999194    
  0.23109505021260507    0.2668148861965488    0.3090642397337718    0.3574598437125209    0.4106252210321753    
  0.4657341640839878    0.5180074158809618    0.5603317973502928    0.5839031475685499    0.5810681348015632    
  0.5498574757591957    0.49698016415857854    0.43605393631491635    0.3819488090169023    0.34570310862695436    
  0.33307609319438936    0.4372596798239427    0.44702944459155164    0.47422120041694676    0.5124661290240351    
  0.551795230742126    0.5810681348015632    0.5917871465595095    0.5810224674123876    0.5514604853747418    
  0.5089930923872944    0.45995986488078233    0.4095529190407316    0.36139479293356475    0.3176652520185923    
  0.27940510390655104    0.2468936027566138    0.21998537256134748    0.19830115053447772    0.1813137208193263    
  0.16844339040252473    0.1591820534028982    0.15317336813640792    0.15021344224857974    0.15021344224857974    
  0.15317336813640778    0.15918205340289815    0.16844339040252473    0.18131372081932626    0.1983011505344777    
  0.21998537256134748    0.24689360275661384    0.27940510390655104    0.31766525201859225    0.36139479293356475    
  0.4095529190407316    0.45995986488078233    0.5089930923872944    0.5514604853747418    0.5810224674123878    
  0.5917871465595095    0.5810681348015632    0.551795230742126    0.5124661290240351    0.4742212004169469    
  0.4470294445915518    0.4372596798239427    0.507904258954687    0.5140877778585023    0.5307885972456245    
  0.5528217586691513    0.5729195095175285    0.5839031475685499    0.5810224674123877    0.5632225049404131    
  0.5327448952064603    0.493656722466519    0.4503557025891955    0.40661560675341163    0.3651557818827787    
  0.32758240597625526    0.2946087729369819    0.2664045160270363    0.2428629238670107    0.22370214030480118    
  0.20850442085061466    0.19681066585315868    0.1882496240521515    0.18260581204549614    0.17979405642480228    
  0.17979405642480228    0.18260581204549606    0.1882496240521515    0.1968106658531586    0.20850442085061466    
  0.22370214030480123    0.2428629238670107    0.26640451602703635    0.29460877293698196    0.3275824059762552    
  0.3651557818827787    0.40661560675341163    0.4503557025891955    0.49365672246651904    0.5327448952064603    
  0.5632225049404131    0.5810224674123877    0.5839031475685498    0.5729195095175285    0.5528217586691514    
  0.5307885972456247    0.5140877778585025    0.507904258954687    0.5303335053228158    0.5335778980887419    
  0.5420369198825159    0.5522716476474996    0.5597558135410532    0.560331797350293    0.5514604853747419    
  0.5327448952064602    0.5056673370149806    0.4728879038196399    0.4374636974458469    0.40216181296638065    
  0.3689805069538372    0.3390118502862659    0.3126506010813185    0.28993367859280367    0.27075564465695356    
  0.2549089236884166    0.2420895648271473    0.23198164250026662    0.2243798726230188    0.2192427457883827    
  0.21663820745862833    0.21663820745862833    0.21924274578838257    0.22437987262301887    0.23198164250026657    
  0.2420895648271473    0.25490892368841667    0.2707556446569535    0.28993367859280367    0.3126506010813184    
  0.33901185028626585    0.3689805069538372    0.40216181296638065    0.4374636974458468    0.4728879038196399    
  0.5056673370149806    0.5327448952064603    0.5514604853747419    0.560331797350293    0.5597558135410532    
  0.5522716476474997    0.5420369198825159    0.533577898088742    0.5303335053228158    0.509642182430537    
  0.5111876914933283    0.5150469472886988    0.5191657231655326    0.5209289298766372    0.5180074158809619    
  0.5089930923872944    0.493656722466519    0.4728879038196399    0.44842929337391696    0.4224378383126162    
  0.39692730477572163    0.373297383331254    0.3521887893467097    0.33368824247276124    0.31765193457821095    
  0.3038995227836549    0.2922402247165113    0.2824658525473054    0.274415559796214    0.268076971094813    
  0.26361733664306614    0.26129350333054857    0.2612935033305486    0.26361733664306614    0.26807697109481304    
  0.2744155597962139    0.28246585254730533    0.2922402247165113    0.3038995227836549    0.317651934578211    
  0.3336882424727613    0.35218878934670966    0.373297383331254    0.39692730477572163    0.42243783831261617    
  0.44842929337391685    0.4728879038196399    0.493656722466519    0.5089930923872944    0.5180074158809619    
  0.5209289298766372    0.5191657231655327    0.5150469472886988    0.5111876914933284    0.509642182430537    
  0.46178364128865274    0.4626698778656678    0.46485204138522124    0.4670887882588434    0.46783441602988135    
  0.4657341640839878    0.45995986488078244    0.4503557025891955    0.4374636974458468    0.4224378383126162    
  0.40677613421700654    0.3918842023575872    0.37866739807368627    0.3673863886641194    0.35782199809334986    
  0.34957269220083903    0.34227128391328443    0.33565524583332335    0.3295744976669952    0.324030049805137    
  0.319235105398458    0.315607587943131    0.3136307667563741    0.3136307667563741    0.3156075879431309    
  0.31923510539845795    0.32403004980513694    0.3295744976669952    0.33565524583332335    0.34227128391328443    
  0.34957269220083903    0.3578219980933499    0.3673863886641194    0.3786673980736863    0.39188420235758725    
  0.4067761342170065    0.4224378383126162    0.4374636974458468    0.4503557025891955    0.45995986488078244    
  0.4657341640839878    0.46783441602988135    0.4670887882588435    0.46485204138522135    0.4626698778656678    
  0.46178364128865274    0.40243113871906766    0.4032290155456608    0.40530689042490264    0.4078560854928068    
  0.40990155433503145    0.41062522103217536    0.40955291904073154    0.40661560675341163    0.40216181296638087    
  0.3969273047757217    0.39188420235758725    0.38793972387819076    0.3856016569897468    0.3848035241804076    
  0.38499240936667317    0.3854066837517403    0.38536526428681    0.3844360835966468    0.38248594486508986    
  0.379691974731491    0.3765443217753281    0.3737745068272428    0.37214375828087043    0.37214375828087043    
  0.37377450682724267    0.376544321775328    0.37969197473149097    0.3824859448650898    0.3844360835966469    
  0.38536526428681    0.38540668375174036    0.3849924093666733    0.3848035241804076    0.38560165698974685    
  0.38793972387819076    0.39188420235758725    0.39692730477572175    0.40216181296638076    0.40661560675341163    
  0.4095529190407316    0.41062522103217536    0.4099015543350315    0.4078560854928068    0.4053068904249027    
  0.4032290155456608    0.40243113871906766    0.34205013076149504    0.3429757652667148    0.345536518003523    
  0.3491911526947402    0.3533210546502066    0.35745984371252093    0.36139479293356475    0.3651557818827788    
  0.3689805069538372    0.3732973833312541    0.3786673980736863    0.3856016569897468    0.39427415349751593    
  0.4042897559002321    0.41469206415802135    0.42424732836166035    0.43184239787591244    0.43678237747520726    
  0.43890866307573334    0.4386025590719859    0.43672770720930243    0.43446209049286016    0.4329658098576067    
  0.4329658098576068    0.43446209049286005    0.43672770720930243    0.4386025590719858    0.43890866307573334    
  0.43678237747520726    0.43184239787591244    0.42424732836166035    0.41469206415802135    0.40428975590023203    
  0.394274153497516    0.3856016569897468    0.37866739807368627    0.37329738333125406    0.3689805069538372    
  0.3651557818827787    0.36139479293356475    0.3574598437125209    0.3533210546502066    0.34919115269474016    
  0.345536518003523    0.3429757652667148    0.34205013076149504    0.28627695192339775    0.28737305414825703    
  0.29052383214706295    0.2953956743960163    0.30164147549009374    0.3090642397337718    0.3176652520185924    
  0.3275824059762552    0.33901185028626585    0.3521887893467098    0.36738638866411943    0.38480352418040753    
  0.40428975590023203    0.4250600704893917    0.4456562747427142    0.4642617565450792    0.47920806278629746    
  0.48941087453931936    0.494611934821119    0.49545473384764155    0.49339899115531854    0.49039714100200654    
  0.48832165526710763    0.4883216552671077    0.4903971410020066    0.49339899115531843    0.49545473384764144    
  0.494611934821119    0.48941087453931936    0.47920806278629746    0.46426175654507923    0.4456562747427143    
  0.4250600704893917    0.4042897559002321    0.38480352418040753    0.3673863886641194    0.3521887893467097    
  0.33901185028626585    0.3275824059762552    0.31766525201859236    0.30906423973377173    0.30164147549009374    
  0.2953956743960163    0.290523832147063    0.28737305414825703    0.28627695192339775    0.23766113578101664    
  0.23890726640266824    0.24257528693755112    0.24850645336210334    0.2565779741370894    0.2668148861965488    
  0.27940510390655116    0.29460877293698207    0.3126506010813184    0.33368824247276124    0.3578219980933498    
  0.38499240936667317    0.41469206415802135    0.4456562747427143    0.4758154384180669    0.502628850868963    
  0.5236624620575375    0.5371996317734347    0.5427640127022187    0.5414442644791047    0.5358134497274931    
  0.5292874686296156    0.5250646055960388    0.525064605596039    0.5292874686296156    0.535813449727493    
  0.5414442644791047    0.5427640127022187    0.5371996317734347    0.5236624620575375    0.502628850868963    
  0.475815438418067    0.4456562747427142    0.41469206415802135    0.38499240936667317    0.3578219980933498    
  0.3336882424727612    0.31265060108131837    0.294608772936982    0.27940510390655116    0.26681488619654886    
  0.2565779741370894    0.24850645336210328    0.24257528693755123    0.2389072664026682    0.23766113578101664    
  0.19692435685166473    0.19828483444383635    0.20235089045426988    0.20910748060955506    0.21861786804930475    
  0.23109505021260507    0.2468936027566138    0.2664045160270363    0.28993367859280367    0.31765193457821106    
  0.34957269220083914    0.38540668375174036    0.42424732836166046    0.46426175654507923    0.5026288508689629    
  0.5358264749027556    0.5602563424921989    0.5731940449218379    0.5739169869245807    0.564497965055672    
  0.549605361229946    0.535152172160261    0.5264051497454596    0.5264051497454597    0.535152172160261    
  0.5496053612299459    0.5644979650556718    0.5739169869245807    0.5731940449218379    0.5602563424921989    
  0.5358264749027556    0.502628850868963    0.4642617565450792    0.42424732836166046    0.3854066837517404    
  0.34957269220083903    0.317651934578211    0.28993367859280367    0.2664045160270363    0.24689360275661387    
  0.2310950502126051    0.21861786804930464    0.20910748060955506    0.2023508904542699    0.1982848344438363    
  0.19692435685166473    0.16378139649125067    0.16522431883396638    0.1695795903051229    0.1769441806282996    
  0.18753193713390415    0.20171309236999202    0.21998537256134762    0.2428629238670107    0.2707556446569536    
  0.3038995227836549    0.3422712839132843    0.38536526428680995    0.43184239787591233    0.4792080627862975    
  0.5236624620575374    0.5602563424921989    0.5836577822913528    0.5898322507000598    0.5782250520855583    
  0.5530527508221428    0.5224300349858342    0.4956368999034501    0.48021182828484893    0.480211828284849    
  0.4956368999034501    0.5224300349858341    0.5530527508221427    0.5782250520855583    0.5898322507000598    
  0.5836577822913529    0.5602563424921989    0.5236624620575374    0.47920806278629746    0.43184239787591233    
  0.38536526428681    0.3422712839132843    0.3038995227836549    0.2707556446569535    0.2428629238670107    
  0.21998537256134768    0.20171309236999196    0.1875319371339041    0.17694418062829956    0.16957959030512285    
  0.16522431883396632    0.16378139649125067    0.13753622969460097    0.1390374121560984    0.14359714804769325    
  0.1513949752431013    0.16276171884182003    0.17819322104155277    0.19830115053447772    0.22370214030480118    
  0.2549089236884166    0.2922402247165114    0.33565524583332323    0.3844360835966469    0.43678237747520726    
  0.48941087453931925    0.5371996317734345    0.5731940449218379    0.58983225070006    0.5819637306122551    
  0.5504293916264675    0.503328652886266    0.45333029161187116    0.41285712915394346    0.39057565890296153    
  0.39057565890296164    0.4128571291539435    0.45333029161187116    0.503328652886266    0.5504293916264675    
  0.5819637306122553    0.58983225070006    0.5731940449218379    0.5371996317734345    0.48941087453931925    
  0.43678237747520726    0.3844360835966468    0.3356552458333233    0.2922402247165114    0.2549089236884166    
  0.22370214030480118    0.19830115053447778    0.17819322104155283    0.16276171884182003    0.15139497524310136    
  0.14359714804769333    0.13903741215609833    0.13753622969460097    0.11739748222893723    0.11893651408104079    
  0.1236300973138554    0.13171678237940404    0.14361500946101488    0.1599154910909808    0.18131372081932634    
  0.20850442085061477    0.24208956482714739    0.2824658525473053    0.3295744976669952    0.38248594486508986    
  0.43890866307573334    0.494611934821119    0.5427640127022187    0.5739169869245807    0.5782250520855584    
  0.5504293916264675    0.49472459392888335    0.4247553603389402    0.35770495044400297    0.30727021166731316    
  0.2807930384879549    0.280793038487955    0.30727021166731316    0.3577049504440029    0.4247553603389402    
  0.49472459392888335    0.5504293916264676    0.5782250520855584    0.5739169869245808    0.5427640127022189    
  0.494611934821119    0.43890866307573334    0.3824859448650898    0.3295744976669952    0.2824658525473053    
  0.2420895648271473    0.20850442085061474    0.18131372081932645    0.15991549109098074    0.14361500946101488    
  0.131716782379404    0.12363009731385545    0.11893651408104079    0.11739748222893723    0.10255804829992009    
  0.10411553138960933    0.10887911981526872    0.11713084804757772    0.129354139675921    0.14620765176951883    
  0.16844339040252473    0.19681066585315854    0.23198164250026662    0.274415559796214    0.32403004980513705    
  0.37969197473149097    0.4386025590719858    0.4954547338476416    0.5414442644791048    0.5644979650556718    
  0.5530527508221427    0.503328652886266    0.4247553603389402    0.3371179847142106    0.260557875045732    
  0.20722801598419638    0.18070107781715514    0.18070107781715522    0.20722801598419643    0.2605578750457319    
  0.33711798471421056    0.4247553603389402    0.503328652886266    0.5530527508221428    0.564497965055672    
  0.5414442644791048    0.49545473384764155    0.4386025590719858    0.37969197473149097    0.32403004980513705    
  0.27441555979621407    0.2319816425002665    0.1968106658531586    0.1684433904025248    0.14620765176951875    
  0.1293541396759209    0.11713084804757777    0.10887911981526872    0.10411553138960933    0.10255804829992009    
  0.09223194417650887    0.09379197984829829    0.09857497327818714    0.10689693285700914    0.11928926363209585    
  0.13645597877925092    0.1591820534028982    0.18824962405215145    0.2243798726230188    0.26807697109481304    
  0.31923510539845795    0.37654432177532804    0.43672770720930243    0.4933989911553186    0.5358134497274929    
  0.5496053612299457    0.5224300349858342    0.45333029161187116    0.35770495044400297    0.2605578750457319    
  0.18269577281727195    0.1325857146945023    0.10909818785244554    0.10909818785244578    0.13258571469450234    
  0.1826957728172719    0.26055787504573186    0.35770495044400297    0.45333029161187105    0.5224300349858342    
  0.5496053612299459    0.5358134497274929    0.49339899115531854    0.43672770720930243    0.37654432177532804    
  0.31923510539845795    0.26807697109481304    0.2243798726230188    0.18824962405215143    0.1591820534028983    
  0.13645597877925086    0.11928926363209581    0.10689693285700914    0.09857497327818723    0.09379197984829823    
  0.09223194417650887    0.08574370100380775    0.08729799638925292    0.09207302262635847    0.10041029050145453    
  0.11287413071613274    0.130195218454351    0.15317336813640783    0.18260581204549606    0.21924274578838274    
  0.26361733664306614    0.31560758794313093    0.37377450682724267    0.43446209049286016    0.49039714100200654    
  0.5292874686296156    0.535152172160261    0.49563689990345    0.4128571291539435    0.3072702116673131    
  0.20722801598419652    0.13258571469450225    0.08784013871703146    0.06802149791599647    0.0680214979159966    
  0.08784013871703147    0.13258571469450223    0.20722801598419643    0.3072702116673131    0.41285712915394346    
  0.4956368999034501    0.535152172160261    0.5292874686296156    0.49039714100200643    0.43446209049286016    
  0.37377450682724267    0.31560758794313093    0.26361733664306614    0.21924274578838257    0.18260581204549609    
  0.15317336813640792    0.130195218454351    0.11287413071613274    0.10041029050145453    0.09207302262635854    
  0.08729799638925292    0.08574370100380775    0.08261835527642217    0.08416712060080268    0.08893090438505522    
  0.09726542410880801    0.1097520577974382    0.12713335017121025    0.15021344224857974    0.1797940564248023    
  0.21663820745862838    0.26129350333054857    0.31363076675637414    0.3721437582808705    0.4329658098576067    
  0.4883216552671077    0.5250646055960388    0.5264051497454595    0.480211828284849    0.39057565890296175    
  0.2807930384879549    0.18070107781715514    0.10909818785244564    0.0680214979159964    0.050484564942341534    
  0.05048456494234172    0.06802149791599643    0.10909818785244561    0.18070107781715508    0.2807930384879549    
  0.3905756589029617    0.480211828284849    0.5264051497454596    0.5250646055960388    0.48832165526710763    
  0.4329658098576068    0.37214375828087043    0.31363076675637414    0.2612935033305487    0.21663820745862833    
  0.17979405642480237    0.15021344224857983    0.12713335017121014    0.10975205779743813    0.09726542410880801    
  0.08893090438505528    0.08416712060080268    0.08261835527642217    0.08261835527642222    0.08416712060080264    
  0.08893090438505528    0.09726542410880802    0.10975205779743813    0.1271333501712102    0.15021344224857974    
  0.17979405642480223    0.21663820745862833    0.2612935033305486    0.31363076675637414    0.3721437582808705    
  0.4329658098576068    0.4883216552671077    0.5250646055960388    0.5264051497454596    0.480211828284849    
  0.39057565890296164    0.2807930384879549    0.18070107781715516    0.10909818785244571    0.06802149791599643    
  0.050484564942341624    0.05048456494234177    0.06802149791599647    0.10909818785244561    0.18070107781715514    
  0.2807930384879549    0.3905756589029616    0.480211828284849    0.5264051497454596    0.5250646055960388    
  0.48832165526710763    0.4329658098576068    0.3721437582808705    0.31363076675637414    0.2612935033305487    
  0.21663820745862833    0.1797940564248023    0.1502134422485798    0.12713335017121014    0.10975205779743809    
  0.09726542410880809    0.08893090438505526    0.08416712060080268    0.08261835527642222    0.08574370100380785    
  0.08729799638925287    0.09207302262635854    0.10041029050145453    0.11287413071613268    0.130195218454351    
  0.15317336813640783    0.18260581204549609    0.21924274578838265    0.2636173366430662    0.31560758794313093    
  0.37377450682724267    0.43446209049286016    0.4903971410020066    0.5292874686296156    0.535152172160261    
  0.4956368999034501    0.4128571291539435    0.30727021166731316    0.20722801598419652    0.13258571469450228    
  0.08784013871703147    0.0680214979159964    0.0680214979159965    0.08784013871703146    0.13258571469450223    
  0.20722801598419638    0.3072702116673133    0.4128571291539435    0.4956368999034501    0.5351521721602611    
  0.5292874686296155    0.49039714100200654    0.43446209049286016    0.37377450682724267    0.31560758794313093    
  0.2636173366430662    0.21924274578838257    0.18260581204549606    0.15317336813640792    0.13019521845435095    
  0.11287413071613268    0.10041029050145457    0.0920730226263585    0.0872979963892529    0.08574370100380785    
  0.09223194417650887    0.09379197984829829    0.09857497327818718    0.10689693285700916    0.1192892636320959    
  0.13645597877925092    0.1591820534028982    0.18824962405215157    0.2243798726230188    0.2680769710948131    
  0.31923510539845795    0.3765443217753281    0.43672770720930243    0.4933989911553186    0.5358134497274929    
  0.5496053612299457    0.5224300349858342    0.45333029161187116    0.35770495044400297    0.2605578750457319    
  0.18269577281727203    0.13258571469450223    0.10909818785244552    0.10909818785244564    0.13258571469450223    
  0.18269577281727192    0.2605578750457319    0.3577049504440029    0.45333029161187105    0.5224300349858341    
  0.5496053612299459    0.5358134497274929    0.4933989911553186    0.43672770720930243    0.37654432177532804    
  0.31923510539845795    0.2680769710948131    0.2243798726230188    0.18824962405215157    0.1591820534028982    
  0.13645597877925086    0.11928926363209585    0.10689693285700916    0.0985749732781872    0.09379197984829829    
  0.09223194417650887    0.10255804829992014    0.10411553138960937    0.10887911981526872    0.11713084804757772    
  0.12935413967592094    0.14620765176951883    0.1684433904025248    0.19681066585315865    0.23198164250026662    
  0.274415559796214    0.324030049805137    0.37969197473149097    0.4386025590719858    0.4954547338476416    
  0.5414442644791048    0.5644979650556718    0.5530527508221427    0.503328652886266    0.4247553603389402    
  0.3371179847142106    0.26055787504573197    0.2072280159841964    0.18070107781715508    0.18070107781715516    
  0.20722801598419643    0.26055787504573186    0.33711798471421056    0.4247553603389402    0.503328652886266    
  0.5530527508221427    0.5644979650556718    0.5414442644791048    0.49545473384764155    0.4386025590719858    
  0.37969197473149097    0.32403004980513694    0.274415559796214    0.23198164250026657    0.1968106658531586    
  0.1684433904025248    0.14620765176951883    0.1293541396759209    0.11713084804757772    0.10887911981526882    
  0.10411553138960929    0.10255804829992014    0.11739748222893723    0.11893651408104079    0.1236300973138554    
  0.131716782379404    0.14361500946101488    0.1599154910909808    0.18131372081932634    0.2085044208506148    
  0.24208956482714739    0.2824658525473053    0.3295744976669952    0.38248594486508986    0.43890866307573334    
  0.494611934821119    0.5427640127022187    0.5739169869245807    0.5782250520855584    0.5504293916264675    