#     DFTpy    
  CRYSTAL 
    
  PRIMVEC    
  5.692137931034481    0.0    0.0    
  0.0    5.692137931034481    0.0    
  0.0    0.0    5.692137931034481    
  PRIMCOORD    
  8    1    
  Si    0.0    0.0    0.0    
  Si    1.4230344827586205    1.4230344827586205    1.4230344827586205    
  Si    0.0    2.846068965517241    2.846068965517241    
  Si    1.4230344827586205    4.269103448275861    4.269103448275861    
  Si    2.846068965517241    0.0    2.846068965517241    
  Si    4.269103448275861    1.4230344827586205    4.269103448275861    
  Si    2.846068965517241    2.846068965517241    0.0    
  Si    4.269103448275861    4.269103448275861    1.4230344827586205    
  BEGIN_BLOCK_DATAGRID_3D    
  3d_datagrid_density    
  BEGIN_DATAGRID_3D#0    
  55    55    55    
  0.0    0.0    0.0    
  5.692137952266264    0.0    0.0    
  0.0    5.692137952266264    0.0    
  0.0    0.0    5.692137952266264    
  0.04695600855402165    0.0547673209262731    0.08102015746762264    0.13118965938106475    0.20459132906777863    
  0.28581050674952285    0.34886265648622367    0.37435900199664746    0.3615293482916457    0.3235915689833643    
  0.2756760262772855    0.2278894252704278    0.18509947151857953    0.14895891996995783    0.11944582214123328    
  0.09577218595665632    0.076970070058683    0.0621629769815479    0.0505893599028032    0.0415828063200616    
  0.034597507390412306    0.029219934843359954    0.025135189590675396    0.02209276705760268    0.019900174705597427    
  0.018422800164351376    0.01757225569644381    0.017294996542314027    0.017572255696443904    0.018422800164351306    
  0.01990017470559738    0.02209276705760263    0.025135189590675445    0.02921993484336    0.03459750739041235    
  0.041582806320061526    0.05058935990280318    0.06216297698154786    0.07697007005868303    0.09577218595665639    
  0.11944582214123328    0.14895891996995778    0.18509947151857947    0.2278894252704278    0.2756760262772855    
  0.3235915689833643    0.36152934829164557    0.3743590019966475    0.3488626564862236    0.28581050674952285    
  0.2045913290677786    0.13118965938106475    0.08102015746762263    0.05476732092627317    0.04695600855402165    
  0.05476732092627308    0.06309928102018855    0.09064161195724771    0.14197923012932975    0.2151720333952017    
  0.29418322302219285    0.35380063285242436    0.37615065318106855    0.3614154261463796    0.3227789016410141    
  0.2748675786613853    0.22735034166633433    0.18486526346372067    0.1489744423633236    0.11963274744173161    
  0.09606228214557391    0.07731669051113647    0.06253696471933207    0.05097120841477662    0.041958964374304054    
  0.034959845434646336    0.029564987906012547    0.02546260942601384    0.022403978650717207    0.020197588295277593    
  0.018709474666401712    0.017851950189067937    0.01757224233270598    0.01785195018906803    0.01870947466640176    
  0.020197588295277548    0.022403978650717134    0.02546260942601384    0.02956498790601257    0.03495984543464636    
  0.04195896437430401    0.05097120841477662    0.06253696471933205    0.07731669051113652    0.09606228214557397    
  0.11963274744173161    0.14897444236332355    0.18486526346372062    0.2273503416663344    0.2748675786613852    
  0.3227789016410141    0.36141542614637956    0.37615065318106855    0.3538006328524243    0.2941832230221928    
  0.2151720333952017    0.14197923012932978    0.0906416119572477    0.06309928102018864    0.05476732092627308    
  0.08102015746762264    0.09064161195724774    0.12117162224168936    0.1745732163841673    0.24564316442380593    
  0.31720325292935286    0.3666210573022144    0.3801763445114474    0.3603685991374124    0.3200363414418125    
  0.2723243261771547    0.22568845386622233    0.1841442305087766    0.14901100958627686    0.12018614709154538    
  0.09692691546561318    0.07835284964679716    0.06365729375296417    0.05211743650161693    0.04309093672505997    
  0.036053498106860524    0.030609770357678468    0.02645700820361052    0.023351815551174188    0.021105776246859605    
  0.019586893458137043    0.0187094355579121    0.018422747785825453    0.01870943555791217    0.01958689345813702    
  0.021105776246859536    0.023351815551174118    0.026457008203610473    0.030609770357678538    0.036053498106860545    
  0.0430909367250599    0.05211743650161693    0.06365729375296415    0.0783528496467972    0.09692691546561323    
  0.12018614709154538    0.14901100958627683    0.1841442305087765    0.22568845386622238    0.2723243261771547    
  0.3200363414418125    0.3603685991374124    0.3801763445114474    0.3666210573022143    0.3172032529293528    
  0.2456431644238059    0.17457321638416726    0.12117162224168936    0.0906416119572478    0.08102015746762264    
  0.13118965938106475    0.14197923012932978    0.17457321638416734    0.22716771345227957    0.2908460323944986    
  0.3484054989121512    0.38182588930928396    0.3829498028965471    0.3566504449249492    0.3146402153272613    
  0.26777068186752645    0.22279278298658028    0.18287863981064081    0.14902668467519553    0.12107196603043449    
  0.09834192087560233    0.08006604877203799    0.06552239005034527    0.05403618112856576    0.04499609183255384    
  0.037904558780130895    0.03238784185189909    0.02815777539183148    0.024980185735263713    0.022672351715240444    
  0.021105715102478467    0.02019748878874729    0.01990006232219965    0.020197488788747407    0.021105715102478467    
  0.022672351715240395    0.024980185735263668    0.028157775391831525    0.0323878418518992    0.03790455878013094    
  0.04499609183255377    0.05403618112856576    0.0655223900503452    0.08006604877203802    0.0983419208756024    
  0.12107196603043446    0.14902668467519545    0.18287863981064076    0.22279278298658028    0.26777068186752645    
  0.3146402153272613    0.3566504449249492    0.3829498028965471    0.38182588930928396    0.3484054989121511    
  0.2908460323944986    0.22716771345227946    0.17457321638416734    0.14197923012932986    0.13118965938106475    
  0.20459132906777863    0.2151720333952018    0.2456431644238059    0.2908460323944986    0.33980673615945256    
  0.3775985083022776    0.392112248049111    0.3803662469242751    0.3484109724985345    0.30589093310669907    
  0.2609547562592189    0.2185445205436406    0.18097471104640137    0.1489300553355012    0.12221030728391966    
  0.10025276993812199    0.08243234550715482    0.0681355876830527    0.056752422623838276    0.04771666935939385    
  0.04056905082381333    0.03496560381880725    0.030638647714716336    0.02736801104718109    0.024980110217888863    
  0.02335168116433943    0.022403808200277334    0.02209258465806453    0.02240380820027745    0.023351681164339406    
  0.024980110217888814    0.027368011047181066    0.030638647714716336    0.03496560381880732    0.04056905082381338    
  0.04771666935939385    0.056752422623838276    0.06813558768305264    0.08243234550715484    0.100252769938122    
  0.12221030728391966    0.1489300553355011    0.18097471104640134    0.2185445205436406    0.2609547562592188    
  0.30589093310669907    0.3484109724985344    0.38036624692427506    0.39211224804911093    0.3775985083022776    
  0.3398067361594525    0.2908460323944985    0.2456431644238059    0.21517203339520174    0.20459132906777863    
  0.28581050674952285    0.2941832230221928    0.3172032529293528    0.34840549891215106    0.3775985083022776    
  0.3940444756618837    0.391232023610853    0.36953904529178144    0.33462000247608553    0.29351814936875553    
  0.25181347086893424    0.21288296848173147    0.17832735085776927    0.1485886216171665    0.12347822234519956    
  0.10257514781484471    0.08541551297152696    0.07150381716535506    0.0603074212872944    0.05132079446208933    
  0.044135916866878656    0.03844749444590718    0.03401514586133465    0.03063856814967646    0.028157625759660646    
  0.026456806358204733    0.025462376503876533    0.025134946528130083    0.025462376503876557    0.026456806358204757    
  0.028157625759660576    0.03063856814967644    0.03401514586133472    0.03844749444590722    0.044135916866878656    
  0.05132079446208931    0.0603074212872944    0.07150381716535498    0.08541551297152696    0.10257514781484474    
  0.1234782223451995    0.14858862161716643    0.1783273508577692    0.21288296848173147    0.25181347086893424    
  0.29351814936875553    0.33462000247608553    0.36953904529178144    0.3912320236108529    0.3940444756618837    
  0.37759850830227754    0.3484054989121511    0.3172032529293528    0.29418322302219285    0.28581050674952285    
  0.34886265648622367    0.35380063285242436    0.3666210573022143    0.38182588930928396    0.39211224804911093    
  0.391232023610853    0.37661478688275923    0.3499387708892285    0.31547241879890936    0.2778140619921452    
  0.24052929907108345    0.20584744055652404    0.17486194748111564    0.14786955053632245    0.1247424148122848    
  0.10521355873792922    0.08897127270361094    0.07563232936391451    0.06474999472709299    0.05589466594610518    
  0.048722316036009565    0.042975124671017814    0.03844742072851942    0.034965461247371835    0.03238764413989285    
  0.03060953433403668    0.029564730208079308    0.02921967027327597    0.029564730208079332    0.030609534334036657    
  0.03238764413989277    0.03496546124737181    0.03844742072851942    0.04297512467101786    0.048722316036009614    
  0.055894665946105156    0.06474999472709295    0.07563232936391444    0.08897127270361092    0.10521355873792924    
  0.1247424148122848    0.14786955053632242    0.17486194748111558    0.20584744055652407    0.2405292990710834    
  0.2778140619921452    0.31547241879890936    0.34993877088922853    0.37661478688275923    0.3912320236108529    
  0.39211224804911093    0.38182588930928396    0.3666210573022143    0.35380063285242436    0.34886265648622367    
  0.37435900199664746    0.37615065318106855    0.3801763445114474    0.3829498028965471    0.38036624692427506    
  0.36953904529178144    0.34993877088922853    0.3232222662868149    0.2921489584335127    0.2594974581483868    
  0.2274828002323562    0.19758338337135856    0.17057167715527388    0.14668937534934792    0.1259036618887441    
  0.10808995662887913    0.09305961915900714    0.08052615414998536    0.0701328555366309    0.061537252167715495    
  0.05446819546223412    0.048722257553599706    0.04413580274053491    0.04056889505610897    0.037904376743492285    
  0.03605330224554899    0.0349596438743259    0.0345973044444877    0.0349596438743259    0.03605330224554902    
  0.037904376743492216    0.04056889505610895    0.04413580274053499    0.04872225755359973    0.05446819546223412    
  0.061537252167715446    0.0701328555366309    0.08052615414998529    0.0930596191590071    0.1080899566288792    
  0.1259036618887441    0.14668937534934784    0.17057167715527385    0.19758338337135858    0.22748280023235617    
  0.2594974581483868    0.2921489584335127    0.32322226628681494    0.3499387708892285    0.36953904529178144    
  0.38036624692427506    0.3829498028965471    0.38017634451144744    0.37615065318106855    0.37435900199664746    
  0.3615293482916457    0.3614154261463796    0.3603685991374124    0.3566504449249492    0.3484109724985346    
  0.3346200024760855    0.31547241879890936    0.29214895843351274    0.2662779025015524    0.23949047172281065    
  0.21317185115859927    0.18832609017471974    0.16553518648508056    0.14504668484925987    0.12692979675006832    
  0.11116974045298941    0.09766321919686125    0.08620251990581855    0.07652019027189211    0.068363892358028    
  0.06153721891390085    0.05589460254474336    0.05132071964199128    0.04771660284964378    0.04499604666323092    
  0.04309091638255234    0.04195896319762787    0.04158281227998277    0.04195896319762787    0.043090916382552365    
  0.04499604666323085    0.04771660284964378    0.05132071964199132    0.055894602544743405    0.06153721891390085    
  0.06836389235802796    0.07652019027189211    0.08620251990581852    0.09766321919686125    0.11116974045298945    
  0.12692979675006832    0.1450466848492598    0.16553518648508053    0.18832609017471974    0.21317185115859932    
  0.23949047172281065    0.2662779025015524    0.2921489584335128    0.3154724187989093    0.3346200024760855    
  0.34841097249853453    0.3566504449249492    0.3603685991374124    0.3614154261463796    0.3615293482916457    
  0.3235915689833642    0.3227789016410141    0.3200363414418125    0.3146402153272612    0.30589093310669907    
  0.29351814936875553    0.2778140619921452    0.25949745814838676    0.23949047172281065    0.2187489616254921    
  0.19814671563171649    0.17837918800481864    0.1599150906334015    0.14302804736325947    0.12786390785033225    
  0.11447234675446598    0.10280075639565944    0.0927053125354797    0.08400157655848671    0.07652019107342285    
  0.07013286477811483    0.06475004147757114    0.06030753605180208    0.05675262583390548    0.054036477911674374    
  0.052117815224710436    0.05097164271443441    0.05058981380445615    0.05097164271443441    0.05211781522471041    
  0.054036477911674305    0.05675262583390545    0.0603075360518021    0.06475004147757117    0.07013286477811477    
  0.07652019107342285    0.08400157655848671    0.09270531253547963    0.10280075639565942    0.11447234675446603    
  0.12786390785033222    0.1430280473632594    0.15991509063340148    0.17837918800481864    0.1981467156317165    
  0.2187489616254921    0.23949047172281065    0.2594974581483868    0.2778140619921452    0.2935181493687555    
  0.30589093310669907    0.31464021532726116    0.3200363414418125    0.3227789016410141    0.3235915689833642    
  0.2756760262772855    0.2748675786613852    0.2723243261771547    0.26777068186752645    0.2609547562592189    
  0.25181347086893424    0.24052929907108345    0.22748280023235617    0.21317185115859927    0.19814671563171649    
  0.18295576954270543    0.16808977593076627    0.15394031064070504    0.14078745585510571    0.12880382593866915    
  0.11805793179540343    0.10852391288589353    0.10011108442033315    0.09270535359262931    0.0862026186724193    
  0.08052635788430235    0.07563268923924618    0.07150437031934233    0.06813634896669535    0.06552334928732652    
  0.06365841584383379    0.06253819349114798    0.062164242803397794    0.06253819349114798    0.06365841584383382    
  0.06552334928732646    0.06813634896669532    0.07150437031934237    0.07563268923924621    0.08052635788430235    
  0.0862026186724193    0.09270535359262931    0.10011108442033312    0.1085239128858935    0.11805793179540346    
  0.12880382593866915    0.1407874558551057    0.15394031064070504    0.16808977593076627    0.18295576954270543    
  0.19814671563171649    0.21317185115859927    0.22748280023235617    0.2405292990710834    0.25181347086893424    
  0.2609547562592189    0.2677706818675264    0.2723243261771547    0.2748675786613852    0.2756760262772855    
  0.2278894252704278    0.2273503416663344    0.22568845386622244    0.22279278298658023    0.2185445205436406    
  0.2128829684817314    0.20584744055652407    0.19758338337135864    0.18832609017471974    0.17837918800481867    
  0.16808977593076635    0.15781334029046387    0.14786972340838564    0.13850295938742166    0.12986008040551808    
  0.12199632243388453    0.11490051704205627    0.10852399694754337    0.10280095476257986    0.09766360392814548    
  0.09306027390014067    0.08897226617364903    0.08541688298163916    0.0824340934629362    0.08006813944874938    
  0.07835521355091336    0.07731923014646626    0.07697267023368277    0.07731923014646626    0.07835521355091339    
  0.08006813944874933    0.08243409346293616    0.08541688298163916    0.08897226617364903    0.09306027390014064    
  0.09766360392814546    0.10280095476257985    0.10852399694754332    0.11490051704205621    0.12199632243388457    
  0.12986008040551805    0.13850295938742163    0.14786972340838564    0.1578133402904639    0.16808977593076627    
  0.17837918800481867    0.18832609017471974    0.19758338337135867    0.20584744055652407    0.2128829684817314    
  0.2185445205436406    0.22279278298658028    0.22568845386622244    0.2273503416663344    0.2278894252704278    
  0.18509947151857944    0.18486526346372065    0.1841442305087766    0.18287863981064076    0.18097471104640134    
  0.17832735085776916    0.1748619474811156    0.1705716771552738    0.16553518648508053    0.15991509063340142    
  0.15394031064070504    0.14786972340838564    0.14194096775096643    0.13632555168254643    0.1311149700369359    
  0.1263397584219842    0.12199644515258745    0.11805822818257042    0.11447291998916817    0.11117071608251278    
  0.10809145102296855    0.10521565295071654    0.1025778730762682    0.10025610429764957    0.09834579185091732    
  0.09693120572844506    0.09606683889546858    0.09577683404206584    0.09606683889546855    0.09693120572844507    
  0.09834579185091727    0.10025610429764956    0.1025778730762682    0.10521565295071657    0.1080914510229685    
  0.11117071608251278    0.11447291998916817    0.11805822818257036    0.12199644515258745    0.12633975842198425    
  0.1311149700369359    0.13632555168254637    0.14194096775096643    0.14786972340838564    0.15394031064070504    
  0.15991509063340145    0.16553518648508053    0.1705716771552738    0.17486194748111555    0.17832735085776916    
  0.18097471104640134    0.18287863981064076    0.1841442305087766    0.18486526346372067    0.18509947151857944    
  0.14895891996995786    0.14897444236332366    0.14901100958627692    0.1490266846751955    0.14893005533550116    
  0.1485886216171665    0.1478695505363225    0.14668937534934784    0.14504668484925984    0.14302804736325947    
  0.14078745585510571    0.13850295938742163    0.13632555168254648    0.13434769623313855    0.13260787855701325    
  0.1311151184925271    0.1298604542555001    0.12880456683278282    0.12786519240027652    0.12693180274624882    
  0.1259065353133947    0.12474624394235999    0.123483023962459    0.12221602488123633    0.12107847574924611    
  0.12019326768443621    0.11964025334431534    0.11945345968750413    0.11964025334431534    0.12019326768443622    
  0.12107847574924607    0.1222160248812363    0.123483023962459    0.12474624394235999    0.1259065353133947    
  0.12693180274624882    0.1278651924002765    0.12880456683278282    0.1298604542555001    0.13111511849252713    
  0.13260787855701325    0.13434769623313852    0.13632555168254648    0.13850295938742163    0.1407874558551057    
  0.14302804736325947    0.14504668484925984    0.14668937534934784    0.14786955053632247    0.14858862161716652    
  0.14893005533550116    0.14902668467519553    0.14901100958627692    0.14897444236332366    0.14895891996995786    
  0.11944582214123334    0.11963274744173163    0.1201861470915454    0.12107196603043449    0.12221030728391966    
  0.12347822234519956    0.1247424148122848    0.12590366188874413    0.12692979675006835    0.1278639078503323    
  0.12880382593866915    0.12986008040551808    0.13111497003693587    0.1326078785570133    0.13434785340121663    
  0.13632596682771306    0.13850381393922792    0.1407889847086433    0.14303050266381329    0.14505029769292563    
  0.1466943209294117    0.14787592152793647    0.14859641373250165    0.14893916615859412    0.14903692296423535    
  0.14902211032650953    0.1489860845037391    0.1489707467137801    0.14898608450373912    0.14902211032650958    
  0.14903692296423532    0.1489391661585941    0.14859641373250165    0.14787592152793647    0.1466943209294117    
  0.14505029769292566    0.14303050266381329    0.1407889847086433    0.13850381393922795    0.13632596682771309    
  0.1343478534012166    0.13260787855701325    0.13111497003693587    0.1298600804055181    0.12880382593866915    
  0.1278639078503323    0.12692979675006835    0.12590366188874416    0.12474241481228478    0.12347822234519956    
  0.12221030728391966    0.12107196603043452    0.12018614709154543    0.11963274744173166    0.11944582214123334    
  0.09577218595665629    0.09606228214557393    0.09692691546561323    0.09834192087560234    0.10025276993812199    
  0.10257514781484471    0.10521355873792929    0.10808995662887917    0.11116974045298941    0.11447234675446598    
  0.11805793179540348    0.12199632243388454    0.12633975842198425    0.13111511849252713    0.13632596682771306    
  0.141941861850313    0.1478713856560672    0.15394307344812236    0.15991928693477805    0.16554110625012058    
  0.17057952879219723    0.1748718280845883    0.1783392291356122    0.18098842578676136    0.18289391280319162    
  0.1841606882451113    0.18488246178527293    0.1851169218288143    0.18488246178527296    0.18416068824511134    
  0.18289391280319156    0.1809884257867613    0.17833922913561223    0.17487182808458823    0.1705795287921972    
  0.1655411062501206    0.15991928693477805    0.15394307344812236    0.14787138565606717    0.14194186185031302    
  0.13632596682771306    0.1311151184925271    0.12633975842198425    0.12199632243388454    0.11805793179540343    
  0.11447234675446598    0.11116974045298941    0.1080899566288792    0.10521355873792924    0.10257514781484471    
  0.10025276993812197    0.09834192087560237    0.09692691546561326    0.09606228214557394    0.09577218595665629    
  0.07697007005868294    0.07731669051113647    0.07835284964679712    0.08006604877203793    0.08243234550715486    
  0.08541551297152694    0.08897127270361092    0.0930596191590071    0.0976632191968612    0.10280075639565944    
  0.1085239128858935    0.1149005170420562    0.12199644515258745    0.12986045425550005    0.13850381393922795    
  0.14787138565606714    0.15781621205856283    0.16809429470491036    0.17838577784260073    0.18833511031980446    
  0.1975950815605504    0.20586191678108218    0.21290015398152667    0.2185641761441182    0.22281451751158088    
  0.22571175644302985    0.22737461789958674    0.2279140315198927    0.22737461789958668    0.22571175644302985    
  0.22281451751158088    0.21856417614411824    0.21290015398152662    0.20586191678108215    0.19759508156055036    
  0.18833511031980443    0.17838577784260073    0.16809429470491033    0.15781621205856283    0.14787138565606717    
  0.13850381393922792    0.12986045425550005    0.12199644515258748    0.1149005170420562    0.1085239128858935    
  0.10280075639565946    0.09766321919686122    0.0930596191590071    0.08897127270361094    0.08541551297152696    
  0.08243234550715485    0.08006604877203793    0.07835284964679715    0.0773166905111365    0.07697007005868294    
  0.06216297698154786    0.06253696471933208    0.06365729375296415    0.06552239005034524    0.0681355876830527    
  0.07150381716535503    0.07563232936391448    0.0805261541499853    0.08620251990581852    0.09270531253547967    
  0.10011108442033312    0.10852399694754332    0.11805822818257036    0.1288045668327828    0.14078898470864332    
  0.1539430734481223    0.16809429470491036    0.1829625990256816    0.19815638565643615    0.21318480141455662    
  0.22749931940650783    0.2405494791253131    0.2518371820408985    0.2609816475634075    0.26780021124582776    
  0.27235581401372466    0.27490026534901096    0.27570911584006563    0.27490026534901096    0.27235581401372466    
  0.26780021124582776    0.2609816475634075    0.2518371820408985    0.2405494791253131    0.22749931940650783    
  0.21318480141455656    0.19815638565643615    0.1829625990256816    0.16809429470491036    0.15394307344812233    
  0.1407889847086433    0.1288045668327828    0.11805822818257036    0.10852399694754337    0.10011108442033312    
  0.09270531253547967    0.08620251990581858    0.08052615414998533    0.07563232936391447    0.07150381716535503    
  0.0681355876830527    0.06552239005034526    0.06365729375296422    0.06253696471933208    0.06216297698154786    
  0.05058935990280318    0.05097120841477664    0.05211743650161695    0.05403618112856576    0.0567524226238383    
  0.06030742128729435    0.06474999472709295    0.07013285553663096    0.07652019027189211    0.08400157655848671    
  0.09270535359262932    0.10280095476257989    0.11447291998916817    0.1278651924002765    0.14303050266381342    
  0.15991928693477808    0.17838577784260082    0.19815638565643623    0.21876236097239535    0.23950812506825903    
  0.2595196840488202    0.2778409131945444    0.29354938205707404    0.3059260155811412    0.31467838947448695    
  0.3200767262696154    0.32282059334760693    0.3236336905421038    0.3228205933476069    0.3200767262696154    
  0.3146783894744869    0.30592601558114113    0.293549382057074    0.27784091319454435    0.2595196840488202    
  0.23950812506825903    0.21876236097239535    0.19815638565643617    0.17838577784260082    0.15991928693477808    
  0.14303050266381342    0.1278651924002765    0.11447291998916817    0.10280095476257987    0.09270535359262932    
  0.08400157655848671    0.07652019027189211    0.07013285553663093    0.06474999472709299    0.06030742128729435    
  0.056752422623838276    0.05403618112856576    0.05211743650161698    0.05097120841477662    0.05058935990280318    
  0.041582806320061526    0.041958964374304034    0.043090936725059925    0.04499609183255377    0.04771666935939383    
  0.05132079446208926    0.055894665946105156    0.061537252167715495    0.06836389235802798    0.07652019107342282    
  0.08620261867241928    0.09766360392814555    0.1111707160825128    0.1269318027462488    0.1450502976929257    
  0.1655411062501206    0.1883351103198045    0.21318480141455662    0.23950812506825903    0.26630085811501597    
  0.29217752863333724    0.31550654177963583    0.33465919963574925    0.3484543862766816    0.35669698609904343    
  0.36041716389402867    0.3614650710433415    0.3615793249629826    0.3614650710433415    0.3604171638940288    
  0.35669698609904343    0.34845438627668157    0.33465919963574925    0.31550654177963583    0.2921775286333373    
  0.26630085811501597    0.23950812506825903    0.21318480141455662    0.18833511031980443    0.16554110625012067    
  0.14505029769292568    0.12693180274624882    0.11117071608251283    0.09766360392814552    0.08620261867241925    
  0.07652019107342282    0.06836389235802796    0.061537252167715495    0.055894665946105135    0.05132079446208928    
  0.04771666935939381    0.04499609183255377    0.043090936725059995    0.041958964374303985    0.041582806320061526    
  0.03459750739041235    0.034959845434646315    0.036053498106860496    0.03790455878013087    0.04056905082381331    
  0.044135916866878656    0.04872231603600964    0.05446819546223412    0.06153721891390087    0.0701328647781148    
  0.08052635788430235    0.09306027390014061    0.10809145102296848    0.1259065353133947    0.1466943209294117    
  0.17057952879219715    0.19759508156055045    0.2274993194065079    0.25951968404882014    0.29217752863333724    
  0.32325740164802874    0.34998013155006236    0.36958567665017994    0.3804167120963715    0.3830025300847129    
  0.3802300498408133    0.3762046018153023    0.3744129647304754    0.3762046018153022    0.38023004984081343    
  0.3830025300847129    0.3804167120963715    0.36958567665017994    0.34998013155006236    0.32325740164802874    
  0.29217752863333724    0.25951968404882014    0.22749931940650783    0.19759508156055047    0.1705795287921972    
  0.1466943209294117    0.1259065353133947    0.10809145102296852    0.09306027390014061    0.08052635788430232    
  0.0701328647781148    0.06153721891390085    0.05446819546223412    0.04872231603600964    0.044135916866878656    
  0.04056905082381333    0.03790455878013087    0.036053498106860524    0.03495984543464629    0.03459750739041235    
  0.02921993484335998    0.029564987906012592    0.030609770357678538    0.03238784185189911    0.0349656038188073    
  0.03844749444590715    0.04297512467101786    0.04872225755359975    0.055894602544743384    0.06475004147757113    
  0.07563268923924621    0.08897226617364906    0.10521565295071654    0.12474624394236002    0.1478759215279365    
  0.1748718280845883    0.20586191678108215    0.24054947912531316    0.2778409131945444    0.3155065417796358    
  0.3499801315500624    0.3766624819469363    0.39128425824442825    0.3921667081691644    0.38188045103749224    
  0.366674463902637    0.35385275242211206    0.34891423880454797    0.353852752422112    0.3666744639026371    
  0.38188045103749224    0.3921667081691644    0.3912842582444282    0.3766624819469363    0.3499801315500624    
  0.31550654177963583    0.2778409131945444    0.24054947912531316    0.20586191678108215    0.17487182808458826    
  0.1478759215279365    0.12474624394236004    0.10521565295071657    0.08897226617364905    0.07563268923924618    
  0.06475004147757117    0.055894602544743384    0.04872225755359973    0.04297512467101786    0.03844749444590718    
  0.03496560381880725    0.03238784185189911    0.030609770357678562    0.029564987906012523    0.02921993484335998    
  0.025135189590675396    0.02546260942601391    0.026457008203610546    0.02815777539183157    0.030638647714716385    
  0.0340151458613347    0.03844742072851947    0.04413580274053501    0.05132071964199132    0.06030753605180215    
  0.07150437031934237    0.08541688298163923    0.1025778730762682    0.12348302396245903    0.14859641373250168    
  0.1783392291356122    0.21290015398152662    0.2518371820408985    0.293549382057074    0.33465919963574925    
  0.36958567665017994    0.39128425824442825    0.39409931886545224    0.37765263346360806    0.3484564381119736    
  0.3172502054063468    0.2942270578471847    0.2858531827668405    0.29422705784718467    0.31725020540634685    