#     DFTpy    
  CRYSTAL 
    
  PRIMVEC    
  5.355103448275861    0.0    0.0    
  0.0    5.355103448275861    0.0    
  0.0    0.0    5.355103448275861    
  PRIMCOORD    
  8    1    
  Si    0.0    0.0    0.0    
  Si    1.3387758620689705    1.3387758620689705    1.3387758620689705    
  Si    0.0    2.6775517241379303    2.6775517241379303    
  Si    1.3387758620689705    4.016327586206901    4.016327586206901    
  Si    2.6775517241379303    0.0    2.6775517241379303    
  Si    4.016327586206901    1.3387758620689705    4.016327586206901    
  Si    2.6775517241379303    2.6775517241379303    0.0    
  Si    4.016327586206901    4.016327586206901    1.3387758620689705    
  BEGIN_BLOCK_DATAGRID_3D    
  3d_datagrid_density    
  BEGIN_DATAGRID_3D#0    
  51    51    51    
  0.0    0.0    0.0    
  5.3551034682504985    0.0    0.0    
  0.0    5.3551034682504985    0.0    
  0.0    0.0    5.3551034682504985    
  0.044656300374752184    0.05272726245654166    0.08015211160128932    0.13331307960004357    0.2119305106804175    
  0.29933026213665853    0.36711743375849104    0.39444492953308    0.38101700879161954    0.3413641065613831    
  0.29150327435988593    0.24181050220359035    0.1971582899221355    0.1591828902612344    0.12790387992921348    
  0.10265031171092157    0.08259501159101973    0.06693092889937774    0.05486054612285501    0.045632497276557396    
  0.03863484454843552    0.033426365932159766    0.0296908396573182    0.02719092529703676    0.0257571498094258    
  0.02528997818179513    0.025757149809425846    0.027190925297036782    0.0296908396573182    0.033426365932159766    
  0.03863484454843547    0.04563249727655742    0.054860546122855035    0.0669309288993777    0.0825950115910198    
  0.10265031171092161    0.1279038799292136    0.15918289026123433    0.1971582899221354    0.24181050220359035    
  0.2915032743598858    0.3413641065613831    0.3810170087916194    0.39444492953308014    0.36711743375849115    
  0.29933026213665853    0.21193051068041738    0.1333130796000436    0.08015211160128928    0.05272726245654168    
  0.044656300374752184    0.05272726245654172    0.06139701661394683    0.09032737272722234    0.14492029509562301    
  0.22347443528211972    0.30859241246707314    0.3727414615098588    0.39676304750822977    0.3813812607187592    
  0.34103821649770166    0.29117848303400573    0.24171944106720908    0.19731840852618687    0.15953992136870407    
  0.1283889834982518    0.10320367554681237    0.08317400017132111    0.06750840158981306    0.05542122582066714    
  0.04617073753530225    0.039151714918600956    0.03392563242498816    0.030176351868630387    0.02766634824974243    
  0.02622639525846027    0.025757157194418907    0.026226395258460315    0.0276663482497425    0.030176351868630387    
  0.03392563242498814    0.039151714918600866    0.04617073753530232    0.055421225820667164    0.06750840158981301    
  0.08317400017132123    0.10320367554681242    0.12838898349825187    0.159539921368704    0.19731840852618684    
  0.24171944106720916    0.29117848303400573    0.34103821649770166    0.3813812607187592    0.3967630475082298    
  0.37274146150985893    0.30859241246707314    0.22347443528211966    0.14492029509562313    0.09032737272722231    
  0.06139701661394688    0.05272726245654172    0.08015211160128938    0.09032737272722235    0.122814958105055    
  0.18010410160558404    0.25679251751388965    0.3341460143419712    0.3875077072804238    0.40231573882282806    
  0.38174160043107014    0.3397141881947806    0.2900199840929193    0.24132140841372562    0.19770019418367948    
  0.16053150660992477    0.12978485775712745    0.10482694270670392    0.08489695527665475    0.06924649691480136    
  0.057123434038695915    0.04781444516065457    0.04073519894879399    0.03545694466599399    0.031665780843856184    
  0.029124976613255603    0.027666369409248895    0.02719095380922559    0.02766636940924892    0.029124976613255582    
  0.03166578084385616    0.035456944665993945    0.04073519894879394    0.0478144451606546    0.057123434038695936    
  0.0692464969148013    0.08489695527665485    0.10482694270670395    0.1297848577571275    0.16053150660992474    
  0.1977001941836794    0.24132140841372562    0.29001998409291924    0.33971418819478066    0.38174160043107014    
  0.4023157388228281    0.3875077072804239    0.33414601434197116    0.25679251751388965    0.1801041016055841    
  0.12281495810505494    0.09032737272722235    0.08015211160128938    0.13331307960004363    0.14492029509562301    
  0.18010410160558413    0.23712983264719478    0.30637735697218    0.3690290472236493    0.40553589359897535    
  0.40740037611301255    0.38020898858168667    0.3364962362670473    0.2875458850041171    0.2402929043484806    
  0.19805493394192764    0.16196143521040313    0.1319466441963018    0.10743108230055379    0.0877309020210319    
  0.07216144020763873    0.06002121755712568    0.050642757206839334    0.0434778873695083    0.03811801858915825    
  0.03425793275624201    0.031665813292589724    0.0301764051849381    0.029690900174899757    0.03017640518493819    
  0.031665813292589724    0.03425793275624201    0.03811801858915825    0.04347788736950825    0.0506427572068394    
  0.06002121755712568    0.07216144020763866    0.08773090202103206    0.10743108230055382    0.13194664419630187    
  0.16196143521040313    0.19805493394192758    0.2402929043484806    0.28754588500411704    0.3364962362670473    
  0.3802089885816866    0.4074003761130126    0.40553589359897535    0.3690290472236493    0.30637735697218    
  0.23712983264719487    0.18010410160558404    0.14492029509562307    0.13331307960004363    0.2119305106804175    
  0.22347443528211972    0.2567925175138896    0.30637735697217994    0.3602668691347547    0.4021259638280797    
  0.418856852085609    0.40745587782567116    0.37455449942393076    0.330318612464737    0.28316653596374974    
  0.23824080808770232    0.1980909908450512    0.16360723794177318    0.1347143049328293    0.11092131306828291    
  0.09164670241557873    0.07628403972383906    0.06419548809422705    0.054774597089021666    0.04752394369547377    
  0.04206725151259754    0.03811805895786307    0.03545701657402702    0.0339257242499184    0.033426464566105915    
  0.033925724249918444    0.03545701657402704    0.03811805895786304    0.04206725151259747    0.04752394369547372    
  0.05477459708902169    0.06419548809422708    0.07628403972383896    0.09164670241557883    0.11092131306828297    
  0.1347143049328294    0.16360723794177318    0.19809099084505113    0.23824080808770232    0.2831665359637497    
  0.330318612464737    0.37455449942393065    0.4074558778256712    0.4188568520856091    0.4021259638280797    
  0.3602668691347547    0.30637735697218    0.2567925175138896    0.22347443528211972    0.2119305106804175    
  0.29933026213665853    0.30859241246707314    0.33414601434197133    0.36902904722364926    0.40212596382807964    
  0.42165155461424364    0.4204723162089953    0.39898502708902484    0.3631867013654917    0.32041004311142596    
  0.27642834549385276    0.23485123547081577    0.19757317876028505    0.16529093868120942    0.1379655426780007    
  0.11523598469623567    0.09664510309365319    0.08167484676386323    0.06976131039765929    0.06037130162236069    
  0.053069758444512276    0.04752398753288461    0.043477969542091106    0.040735310074496565    0.03915184391190131    
  0.03863497957507996    0.03915184391190129    0.040735310074496565    0.043477969542091134    0.04752398753288459    
  0.053069758444512234    0.06037130162236074    0.06976131039765932    0.08167484676386319    0.09664510309365323    
  0.11523598469623567    0.1379655426780008    0.16529093868120942    0.197573178760285    0.2348512354708158    
  0.2764283454938527    0.32041004311142596    0.3631867013654917    0.3989850270890249    0.42047231620899533    
  0.42165155461424364    0.40212596382807964    0.36902904722364926    0.33414601434197133    0.30859241246707314    
  0.29933026213665853    0.3671174337584911    0.3727414615098588    0.3875077072804239    0.40553589359897535    
  0.418856852085609    0.42047231620899533    0.40731060867232366    0.3809463052483063    0.3457919506335388    
  0.3066306834266838    0.267209998879674    0.2299954978400493    0.19637091447869645    0.16690020086292431    
  0.14163035832835993    0.12036230088991692    0.10277400437202462    0.0884409386775389    0.07688205468542877    
  0.06764708365148478    0.060371343233776846    0.05477467865172977    0.05064287168250964    0.04781458342360144    
  0.04617089001001003    0.045632654463112036    0.046170890010010075    0.04781458342360153    0.05064287168250959    
  0.05477467865172977    0.06037134323377678    0.06764708365148482    0.07688205468542882    0.0884409386775388    
  0.10277400437202469    0.12036230088991696    0.14163035832835996    0.16690020086292431    0.19637091447869645    
  0.22999549784004933    0.26720999887967395    0.30663068342668387    0.3457919506335388    0.3809463052483064    
  0.4073106086723238    0.4204723162089953    0.418856852085609    0.4055358935989754    0.3875077072804238    
  0.37274146150985893    0.3671174337584911    0.39444492953308    0.39676304750822977    0.40231573882282806    
  0.4074003761130125    0.4074558778256711    0.3989850270890248    0.38094630524830625    0.354784590746761    
  0.32332448064370567    0.2895228766507437    0.2557763981559229    0.22375350974081473    0.19445797835074546    
  0.16838076838781832    0.1456848826836198    0.12633384394832634    0.1101302544049362    0.09674201529450126    
  0.08577917808731912    0.0768820877180051    0.06976137848452175    0.0641955862900272    0.06002133832583531    
  0.057123569797140804    0.05542136991508237    0.054860692861256964    0.05542136991508235    0.057123569797140825    
  0.06002133832583531    0.06419558629002724    0.0697613784845217    0.07688208771800516    0.08577917808731918    
  0.09674201529450117    0.1101302544049362    0.12633384394832636    0.14568488268361984    0.1683807683878183    
  0.19445797835074544    0.22375350974081473    0.2557763981559229    0.2895228766507437    0.32332448064370567    
  0.354784590746761    0.38094630524830636    0.3989850270890248    0.4074558778256711    0.4074003761130126    
  0.40231573882282806    0.39676304750822977    0.39444492953308    0.3810170087916195    0.3813812607187592    
  0.3817416004310702    0.3802089885816866    0.37455449942393065    0.3631867013654916    0.34579195063353857    
  0.3233244806437057    0.2974817261444781    0.27008391965120426    0.24267005980788545    0.21635997130817664    
  0.19189252251935007    0.16973202206631421    0.15014722787017748    0.13322270501627598    0.1188529888739652    
  0.10679079807362543    0.09674203351340677    0.08844097983090596    0.08167490696364438    0.07628411194936802    
  0.07216151799658557    0.06924657600637898    0.06750848016252659    0.06693100704895248    0.06750848016252663    
  0.06924657600637901    0.07216151799658557    0.07628411194936803    0.08167490696364438    0.08844097983090601    
  0.09674203351340678    0.10679079807362533    0.11885298887396521    0.13322270501627595    0.15014722787017748    
  0.16973202206631421    0.19189252251935002    0.21635997130817664    0.24267005980788545    0.27008391965120426    
  0.2974817261444781    0.3233244806437057    0.3457919506335387    0.3631867013654917    0.37455449942393065    
  0.38020898858168667    0.38174160043107014    0.3813812607187592    0.3810170087916195    0.3413641065613831    
  0.34103821649770166    0.3397141881947806    0.3364962362670472    0.33031861246473704    0.32041004311142596    
  0.3066306834266838    0.2895228766507437    0.27008391965120426    0.24942697109203582    0.22852436355888148    
  0.20812569708608586    0.18880498067735418    0.17101697219073056    0.15508305058359026    0.1411371782921414    
  0.12912023444407966    0.11885298711723147    0.11013025619976707    0.10277400493610349    0.09664509394298319    
  0.09164667632516019    0.0877308557897393    0.08489689034332466    0.08317392204670288    0.08259492870292699    
  0.08317392204670289    0.08489689034332466    0.08773085578973923    0.09164667632516021    0.09664509394298315    
  0.10277400493610353    0.11013025619976712    0.1188529871172314    0.12912023444407972    0.14113717829214142    
  0.15508305058359032    0.1710169721907305    0.18880498067735418    0.20812569708608586    0.22852436355888148    
  0.24942697109203582    0.27008391965120426    0.2895228766507437    0.3066306834266839    0.32041004311142596    
  0.3303186124647371    0.3364962362670473    0.33971418819478055    0.3410382164977017    0.3413641065613831    
  0.2915032743598858    0.2911784830340057    0.29001998409291924    0.287545885004117    0.28316653596374963    
  0.27642834549385265    0.26720999887967395    0.25577639815592285    0.2426700598078854    0.22852436355888142    
  0.21392690064530887    0.19939401589843453    0.18540164730169553    0.17237453097295094    0.16061103631544918    
  0.15021911795551524    0.1411371539122379    0.13322265876054204    0.12633376690635648    0.12036218001226213    
  0.11523580895551921    0.11092107763821103    0.107430790143817    0.10482660404686577    0.10320330638198849    
  0.10264993190996478    0.10320330638198849    0.10482660404686579    0.10743079014381694    0.11092107763821103    
  0.1152358089555192    0.12036218001226218    0.12633376690635648    0.13322265876054196    0.14113715391223797    
  0.15021911795551526    0.16061103631544918    0.1723745309729509    0.18540164730169556    0.1993940158984345    
  0.21392690064530887    0.22852436355888142    0.24267005980788545    0.2557763981559229    0.26720999887967395    
  0.2764283454938527    0.2831665359637497    0.28754588500411704    0.2900199840929192    0.2911784830340057    
  0.2915032743598858    0.2418105022035904    0.24171944106720916    0.24132140841372568    0.2402929043484806    
  0.23824080808770234    0.23485123547081577    0.22999549784004933    0.22375350974081473    0.21635997130817664    
  0.20812569708608586    0.19939401589843456    0.19054031101060065    0.18196108494014615    0.1740058052693327    
  0.1668814759889922    0.16061099058305905    0.15508295471068212    0.15014706450530685    0.14568462966975787    
  0.14162999626351566    0.13796506067299852    0.13471370372742061    0.13194593644260838    0.12978406625790279    
  0.12838813860087325    0.12790301669079537    0.12838813860087325    0.12978406625790284    0.13194593644260844    
  0.13471370372742061    0.13796506067299852    0.14162999626351572    0.1456846296697579    0.1501470645053068    
  0.15508295471068217    0.1606109905830591    0.1668814759889922    0.1740058052693327    0.18196108494014615    
  0.19054031101060068    0.19939401589843453    0.20812569708608586    0.21635997130817666    0.22375350974081473    
  0.22999549784004938    0.23485123547081577    0.23824080808770234    0.24029290434848063    0.24132140841372562    
  0.24171944106720916    0.2418105022035904    0.19715828992213544    0.19731840852618687    0.19770019418367937    
  0.19805493394192758    0.19809099084505122    0.19757317876028493    0.19637091447869642    0.19445797835074544    
  0.19189252251935005    0.1888049806773542    0.18540164730169553    0.18196108494014612    0.17878645478903    
  0.1761101868068395    0.1740057440647974    0.1723743935058351    0.17101672834066867    0.16973163519399656    
  0.1683802045211178    0.16689943649355635    0.16528996591574643    0.16360606651507123    0.1619600915075795    
  0.16053003052396275    0.15953836223895793    0.15918130286306265    0.15953836223895787    0.16053003052396275    
  0.16196009150757953    0.16360606651507123    0.16528996591574643    0.1668994364935564    0.1683802045211178    
  0.1697316351939965    0.17101672834066872    0.1723743935058351    0.1740057440647974    0.1761101868068395    
  0.17878645478903    0.18196108494014612    0.18540164730169553    0.1888049806773542    0.19189252251935007    
  0.1944579783507454    0.19637091447869642    0.19757317876028496    0.19809099084505122    0.19805493394192758    
  0.1977001941836794    0.19731840852618684    0.19715828992213544    0.1591828902612344    0.15953992136870407    
  0.1605315066099248    0.16196143521040313    0.16360723794177323    0.16529093868120942    0.16690020086292431    
  0.16838076838781832    0.16973202206631427    0.17101697219073056    0.17237453097295094    0.1740058052693327    
  0.17611018680683954    0.17878638790805335    0.18196092357035515    0.18540134570383796    0.1888044830715587    
  0.19189177356348686    0.194456933476326    0.19636954797914266    0.1975714885523635    0.19808899958097215    
  0.19805268661270764    0.19769775308474605    0.19731584724807963    0.19715568798859523    0.19731584724807963    
  0.19769775308474605    0.1980526866127076    0.19808899958097215    0.19757148855236353    0.19636954797914272    
  0.194456933476326    0.19189177356348683    0.18880448307155873    0.18540134570383798    0.18196092357035518    
  0.17878638790805335    0.17611018680683954    0.17400580526933265    0.17237453097295094    0.17101697219073056    
  0.1697320220663143    0.1683807683878183    0.16690020086292431    0.16529093868120942    0.16360723794177323    
  0.16196143521040313    0.16053150660992477    0.15953992136870404    0.1591828902612344    0.12790387992921357    
  0.12838898349825192    0.1297848577571275    0.13194664419630178    0.13471430493282935    0.1379655426780007    
  0.1416303583283599    0.1456848826836199    0.15014722787017756    0.15508305058359026    0.1606110363154492    
  0.1668814759889922    0.1740057440647974    0.18196092357035512    0.1905399883558413    0.1993934552419884    
  0.20812481674140523    0.21635869710119732    0.22375178685491504    0.2299932999753346    0.23484856991537179    
  0.2382377158307811    0.24028945526783127    0.24131769314916765    0.24171556244009976    0.24180656862246183    
  0.24171556244009973    0.2413176931491676    0.24028945526783127    0.23823771583078115    0.23484856991537179    
  0.22999329997533463    0.22375178685491504    0.2163586971011973    0.20812481674140523    0.19939345524198843    
  0.19053998835584132    0.18196092357035512    0.17400574406479744    0.16688147598899225    0.1606110363154492    
  0.15508305058359026    0.15014722787017756    0.14568488268361984    0.14163035832835988    0.13796554267800068    
  0.13471430493282935    0.1319466441963018    0.12978485775712748    0.1283889834982519    0.12790387992921357    
  0.10265031171092165    0.10320367554681244    0.10482694270670401    0.10743108230055382    0.11092131306828301    
  0.11523598469623561    0.120362300889917    0.12633384394832645    0.13322270501627598    0.14113717829214145    
  0.15021911795551526    0.1606109905830591    0.17237439350583514    0.18540134570383793    0.1993934552419884    
  0.21392597267288468    0.22852295969442418    0.2426680860316532    0.25577378957012703    0.26720673138950823    
  0.2764244417693445    0.28316206355982115    0.28754094691687765    0.29001470531202284    0.2911729983274707    
  0.29149772096273346    0.2911729983274707    0.29001470531202284    0.28754094691687765    0.28316206355982115    
  0.2764244417693445    0.2672067313895083    0.2557737895701271    0.2426680860316532    0.22852295969442418    
  0.21392597267288474    0.1993934552419884    0.18540134570383798    0.17237439350583514    0.1606109905830591    
  0.1502191179555153    0.14113717829214145    0.133222705016276    0.1263338439483264    0.12036230088991696    
  0.11523598469623561    0.11092131306828301    0.10743108230055386    0.10482694270670401    0.10320367554681242    
  0.10265031171092165    0.0825950115910197    0.08317400017132123    0.08489695527665479    0.08773090202103194    
  0.0916467024155788    0.09664510309365319    0.10277400437202469    0.11013025440493626    0.11885298887396531    
  0.12912023444407966    0.14113715391223794    0.1550829547106821    0.17101672834066872    0.18880448307155867    
  0.2081248167414053    0.22852295969442418    0.24942490677537424    0.27008108046400325    0.2895191899524153    
  0.3066261340387207    0.3204046802257204    0.3303125437606667    0.3364896097896219    0.33970716890405417    
  0.341030967618288    0.34135678262066604    0.34103096761828794    0.33970716890405417    0.33648960978962184    
  0.33031254376066665    0.3204046802257204    0.3066261340387207    0.28951918995241543    0.27008108046400325    
  0.2494249067753743    0.22852295969442418    0.20812481674140526    0.1888044830715587    0.17101672834066872    
  0.15508295471068212    0.14113715391223797    0.12912023444407966    0.11885298887396534    0.11013025440493623    
  0.10277400437202468    0.09664510309365319    0.09164670241557883    0.08773090202103202    0.08489695527665482    
  0.0831740001713212    0.0825950115910197    0.06693092889937786    0.0675084015898131    0.0692464969148013    
  0.0721614402076387    0.07628403972383895    0.08167484676386323    0.08844093867753887    0.09674201529450131    
  0.1067907980736254    0.11885298711723151    0.13322265876054198    0.1501470645053068    0.16973163519399653    
  0.19189177356348686    0.2163586971011973    0.24266808603165316    0.27008108046400314    0.29747788909010037    
  0.3233195730534097    0.3457859810427496    0.3631797673810301    0.3745467740010916    0.3802006845158802    
  0.3817329265523155    0.3813723910899884    0.3810080792795784    0.3813723910899883    0.3817329265523155    
  0.3802006845158801    0.3745467740010916    0.36317976738103014    0.3457859810427497    0.32331957305340975    
  0.29747788909010037    0.2700810804640032    0.2426680860316532    0.21635869710119723    0.19189177356348688    
  0.16973163519399656    0.15014706450530682    0.133222658760542    0.11885298711723148    0.10679079807362538    
  0.09674201529450126    0.0884409386775388    0.0816748467638633    0.07628403972383895    0.07216144020763873    
  0.06924649691480132    0.06750840158981301    0.06693092889937786    0.05486054612285501    0.055421225820667115    
  0.05712343403869584    0.06002121755712564    0.06419548809422705    0.06976131039765916    0.07688205468542877    
  0.08577917808731919    0.0967420335134067    0.11013025619976714    0.12633376690635645    0.14568462966975781    
  0.1683802045211178    0.1944569334763259    0.22375178685491498    0.25577378957012703    0.28951918995241527    
  0.3233195730534098    0.3547784063286417    0.3809389055745723    0.39897659966449867    0.40744670476227196    
  0.4073907627355654    0.4023059324801024    0.396753190186037    0.3944350677872553    0.39675319018603694    
  0.4023059324801024    0.4073907627355654    0.40744670476227196    0.3989765996644987    0.38093890557457233    
  0.3547784063286419    0.3233195730534097    0.28951918995241527    0.25577378957012714    0.22375178685491492    
  0.19445693347632592    0.16838020452111782    0.14568462966975784    0.12633376690635648    0.11013025619976712    
  0.0967420335134067    0.08577917808731919    0.07688205468542868    0.06976131039765916    0.06419548809422705    
  0.06002121755712566    0.05712343403869582    0.055421225820667074    0.05486054612285501    0.04563249727655725    
  0.04617073753530234    0.04781444516065464    0.050642757206839355    0.054774597089021666    0.060371301622360575    
  0.06764708365148478    0.07688208771800517    0.08844097983090601    0.10277400493610349    0.12036218001226213    
  0.14162999626351572    0.1668994364935564    0.19636954797914266    0.2299932999753346    0.26720673138950823    
  0.30662613403872074    0.34578598104274966    0.3809389055745723    0.4073019428285455    0.4204627254858658    
  0.4188467833912239    0.40552576287185843    0.3874977677788283    0.3727317515096178    0.36710782128001723    
  0.3727317515096177    0.3874977677788283    0.40552576287185843    0.4188467833912239    0.42046272548586583    
  0.4073019428285456    0.38093890557457233    0.3457859810427497    0.30662613403872074    0.2672067313895082    
  0.22999329997533455    0.19636954797914266    0.16689943649355643    0.14162999626351572    0.12036218001226218    
  0.10277400493610349    0.08844097983090596    0.07688208771800516    0.06764708365148468    0.060371301622360624    
  0.054774597089021645    0.050642757206839285    0.0478144451606546    0.04617073753530234    0.04563249727655725    
  0.03863484454843552    0.039151714918600956    0.04073519894879401    0.04347788736950825    0.04752394369547377    
  0.053069758444512234    0.06037134323377687    0.06976137848452182    0.08167490696364439    0.09664509394298322    
  0.11523580895551913    0.13796506067299852    0.16528996591574643    0.19757148855236348    0.23484856991537179    
  0.27642444176934444    0.3204046802257204    0.3631797673810301    0.3989765996644987    0.4204627254858658    
  0.42164136342365716    0.40211581694702003    0.3690194424888981    0.33413713535039047    0.3085841152996052    
  0.2993221833715681    0.30858411529960517    0.33413713535039047    0.369019442488898    0.40211581694702003    
  0.42164136342365716    0.42046272548586583    0.3989765996644988    0.3631797673810301    0.3204046802257204    
  0.27642444176934444    0.23484856991537173    0.19757148855236348    0.16528996591574643    0.1379650606729986    
  0.11523580895551917    0.09664509394298315    0.08167490696364445    0.06976137848452173    0.06037134323377673    
  0.053069758444512186    0.04752394369547384    0.0434778873695083    0.04073519894879404    0.039151714918600956    
  0.03863484454843552    0.033426365932159766    0.03392563242498814    0.03545694466599404    0.03811801858915825    
  0.04206725151259749    0.04752398753288445    0.05477467865172972    0.06419558629002736    0.07628411194936806    
  0.09164667632516016    0.1109210776382109    0.13471370372742056    0.16360606651507129    0.19808899958097215    
  0.2382377158307811    0.2831620635598211    0.33031254376066665    0.3745467740010916    0.40744670476227196    
  0.418846783391224    0.40211581694702003    0.3602574553620049    0.306369160378231    0.25678555084243665    
  0.22346833239135638    0.21192471268437807    0.22346833239135633    0.2567855508424366    0.306369160378231    
  0.3602574553620049    0.4021158169470201    0.418846783391224    0.40744670476227207    0.3745467740010916    
  0.3303125437606666    0.2831620635598211    0.23823771583078102    0.19808899958097217    0.16360606651507126    
  0.1347137037274206    0.11092107763821096    0.09164667632516015    0.07628411194936809    0.0641955862900273    
  0.05477467865172965    0.04752398753288447    0.04206725151259747    0.03811801858915822    0.03545694466599413    
  0.03392563242498814    0.033426365932159766    0.029690839657318176    0.030176351868630363    0.031665780843856045    
  0.03425793275624196    0.03811805895786316    0.043477969542091065    0.05064287168250971    0.06002133832583531    
  0.07216151799658554    0.0877308557897393    0.1074307901438169    0.1319459364426084    0.16196009150757945    
  0.19805268661270756    0.24028945526783121    0.28754094691687765    0.33648960978962184    0.38020068451588024    
  0.40739076273556535    0.4055257628718584    0.36901944248889806    0.30636916037823086    0.23712339182227532    
  0.18009918839929356    0.1449163500097723    0.13330945730967866    0.14491635000977215    0.1800991883992936    
  0.23712339182227532    0.30636916037823086    0.3690194424888981    0.40552576287185843    0.40739076273556546    
  0.3802006845158802    0.3364896097896219    0.28754094691687765    0.24028945526783113    0.19805268661270756    
  0.16196009150757953    0.13194593644260846    0.10743079014381694    0.08773085578973924    0.07216151799658561    
  0.06002133832583531    0.05064287168250959    0.043477969542091065    0.03811805895786316    0.03425793275624199    
  0.031665780843856114    0.030176351868630363    0.029690839657318176    0.02719092529703676    0.027666348249742408    
  0.029124976613255582    0.031665813292589745    0.03545701657402697    0.040735310074496565    0.04781458342360156    
  0.05712356979714087    0.06924657600637898    0.08489689034332473    0.10482660404686574    0.12978406625790284    
  0.1605300305239628    0.19769775308474605    0.24131769314916765    0.29001470531202284    0.3397071689040541    
  0.3817329265523156    0.40230593248010244    0.3874977677788283    0.3341371353503905    0.2567855508424366    
  0.18009918839929356    0.12281163746686166    0.09032496862538422    0.08014999538518901    0.09032496862538408    
  0.12281163746686166    0.18009918839929354    0.2567855508424366    0.3341371353503905    0.38749776777882833    
  0.4023059324801025    0.38173292655231555    0.3397071689040541    0.29001470531202284    0.24131769314916757    
  0.197697753084746    0.16053003052396284    0.12978406625790284    0.10482660404686582    0.0848968903433247    
  0.06924657600637903    0.05712356979714085    0.04781458342360144    0.040735310074496565    0.03545701657402697    
  0.031665813292589724    0.029124976613255533    0.02766634824974243    0.02719092529703676    0.025757149809425728    
  0.02622639525846034    0.027666369409248846    0.030176405184938075    0.033925724249918354    0.03915184391190115    
  0.04617089001001017    0.05542136991508242    0.06750848016252663    0.08317392204670294    0.10320330638198845    
  0.12838813860087325    0.1595383622389579    0.19731584724807963    0.24171556244009976    0.2911729983274707    
  0.341030967618288    0.3813723910899885    0.396753190186037    0.37273175150961774    0.3085841152996053    