#     DFTpy    
  CRYSTAL 
    
  PRIMVEC    
  4.681034482758621    0.0    0.0    
  0.0    4.681034482758621    0.0    
  0.0    0.0    4.681034482758621    
  PRIMCOORD    
  8    1    
  Si    0.0    0.0    0.0    
  Si    1.1702586206896601    1.1702586206896601    1.1702586206896601    
  Si    0.0    2.3405172413793105    2.3405172413793105    
  Si    1.1702586206896601    3.510775862068971    3.510775862068971    
  Si    2.3405172413793105    0.0    2.3405172413793105    
  Si    3.510775862068971    1.1702586206896601    3.510775862068971    
  Si    2.3405172413793105    2.3405172413793105    0.0    
  Si    3.510775862068971    3.510775862068971    1.1702586206896601    
  BEGIN_BLOCK_DATAGRID_3D    
  3d_datagrid_density    
  BEGIN_DATAGRID_3D#0    
  46    46    46    
  0.0    0.0    0.0    
  4.681034500218969    0.0    0.0    
  0.0    4.681034500218969    0.0    
  0.0    0.0    4.681034500218969    
  0.044458322633282414    0.052888856669294305    0.08179244344838786    0.13903295493207152    0.22712797512081367    
  0.3319172144495224    0.42360271926951554    0.474774937006407    0.4777110266044456    0.4438127135251913    
  0.39074063092508066    0.3323687612880557    0.2766336853372047    0.2272560932120503    0.18551801407908358    
  0.15136411338712089    0.12414140601962029    0.10301341847909    0.08708468590058593    0.07546352560716976    
  0.06738047709158543    0.06227781113675485    0.059809710033621136    0.059809710033621254    0.06227781113675485    
  0.06738047709158554    0.07546352560716976    0.08708468590058593    0.10301341847909    0.12414140601962032    
  0.15136411338712075    0.18551801407908355    0.22725609321205023    0.2766336853372047    0.3323687612880557    
  0.3907406309250805    0.44381271352519136    0.4777110266044456    0.47477493700640705    0.42360271926951565    
  0.3319172144495223    0.22712797512081354    0.13903295493207155    0.0817924434483879    0.052888856669294375    
  0.044458322633282414    0.05288885666929454    0.06199564006847748    0.09267854832644692    0.1519032399102052    
  0.240725376558555    0.3439359146586475    0.432169738116856    0.4796086854293606    0.47987116636862354    
  0.44464966149685464    0.3911869289551204    0.3328638994914526    0.2773202154170985    0.2281440298590688    
  0.18656563823043973    0.15251745853281365    0.12535506403729207    0.10425620369625667    0.08833673577623305    
  0.0767127666198644    0.06862089194119562    0.06350857516359024    0.061034314271649355    0.061034314271649424    
  0.06350857516359026    0.0686208919411958    0.07671276661986436    0.08833673577623305    0.10425620369625671    
  0.1253550640372922    0.1525174585328136    0.18656563823043973    0.22814402985906884    0.2773202154170985    
  0.33286389949145256    0.39118692895512025    0.44464966149685464    0.47987116636862365    0.4796086854293606    
  0.432169738116856    0.3439359146586474    0.24072537655855492    0.1519032399102052    0.0926785483264469    
  0.061995640068477575    0.05288885666929454    0.08179244344838794    0.09267854832644677    0.12783861361887697    
  0.19146939065027396    0.2806546058123342    0.37785057259197347    0.4554844240527437    0.4922689083530274    
  0.48525249554623806    0.44661349921914784    0.39228116941167646    0.33424281002920636    0.27933032655096857    
  0.23078140145197548    0.18969512042822204    0.15597831855756544    0.1290144127348517    0.10802116590777451    
  0.09214543850038968    0.08052545055846928    0.07241600528064811    0.06728050471977089    0.06479061601362787    
  0.06479061601362802    0.06728050471977082    0.07241600528064823    0.08052545055846926    0.09214543850038964    
  0.10802116590777447    0.1290144127348517    0.1559783185575653    0.18969512042822204    0.2307814014519754    
  0.2793303265509686    0.33424281002920636    0.39228116941167634    0.44661349921914784    0.48525249554623806    
  0.4922689083530275    0.4554844240527436    0.3778505725919734    0.28065460581233415    0.19146939065027402    
  0.127838613618877    0.09267854832644684    0.08179244344838794    0.1390329549320715    0.15190323991020513    
  0.19146939065027394    0.25760842874081497    0.3423789728018904    0.42659534100075847    0.486638769611687    
  0.5077284465358255    0.49090367527953654    0.4481913444995292    0.3932816114656865    0.3361297398982966    
  0.2824611061010495    0.23505544762853278    0.19485559999818097    0.16175497012503104    0.1351887781498081    
  0.11443431057824956    0.0986829426079454    0.08710782082448947    0.07899563361073957    0.07383832878410045    
  0.07133063579080988    0.07133063579080995    0.07383832878410045    0.07899563361073977    0.08710782082448947    
  0.09868294260794536    0.11443431057824956    0.13518877814980812    0.161754970125031    0.19485559999818095    
  0.23505544762853278    0.2824611061010496    0.33612973989829653    0.3932816114656864    0.44819134449952924    
  0.49090367527953654    0.5077284465358255    0.486638769611687    0.4265953410007584    0.3423789728018903    
  0.25760842874081497    0.19146939065027394    0.15190323991020516    0.1390329549320715    0.22712797512081362    
  0.2407253765585548    0.2806546058123341    0.34237897280189034    0.4142167275242797    0.47784150255427615    
  0.5155733871300747    0.5193267731837565    0.49301544036965383    0.4473212134831019    0.39302880447574867    
  0.3378284519618826    0.28628673617416533    0.24072525342032455    0.20195422370504174    0.16988776370401318    
  0.14403846780684051    0.12375500084108103    0.1082823069125329    0.09684355890367283    0.08877648151627686    
  0.08361886443231341    0.08110085826074999    0.08110085826075004    0.08361886443231341    0.088776481516277    
  0.09684355890367279    0.1082823069125329    0.12375500084108103    0.14403846780684051    0.16988776370401307    
  0.20195422370504174    0.24072525342032455    0.28628673617416533    0.33782845196188255    0.3930288044757485    
  0.4473212134831019    0.4930154403696539    0.5193267731837566    0.5155733871300747    0.47784150255427615    
  0.4142167275242796    0.3423789728018904    0.28065460581233415    0.24072537655855486    0.22712797512081362    
  0.3319172144495224    0.3439359146586475    0.3778505725919736    0.42659534100075847    0.47784150255427615    
  0.5168196955718399    0.5322606835542112    0.5211401441499567    0.48829424392009113    0.4420757974105006    
  0.3902674923991042    0.33847825145073773    0.290243070548389    0.2474803589918919    0.21090951955801732    
  0.18050220021913538    0.1558649525191396    0.1364203336669287    0.12147553197006875    0.11032661971881692    
  0.10239143758903482    0.09727831609173104    0.09476870372547769    0.09476870372547774    0.09727831609173104    
  0.10239143758903488    0.11032661971881687    0.1214755319700688    0.13642033366692874    0.1558649525191396    
  0.18050220021913535    0.21090951955801737    0.2474803589918919    0.290243070548389    0.3384782514507376    
  0.3902674923991042    0.44207579741050074    0.48829424392009113    0.5211401441499568    0.5322606835542112    
  0.5168196955718399    0.4778415025542762    0.42659534100075847    0.3778505725919736    0.3439359146586475    
  0.3319172144495224    0.42360271926951565    0.432169738116856    0.4554844240527436    0.48663876961168706    
  0.5155733871300747    0.5322606835542112    0.5305571247694472    0.5101146198615487    0.4751136723946956    
  0.4313720212391947    0.38415516087173746    0.3374319796705047    0.2938972370631928    0.2551226851525097    
  0.22176573461007595    0.19387026461959508    0.17113047721035873    0.15303429503408852    0.13896339741037714    
  0.1283210155207141    0.12064565089560311    0.11564800839881303    0.11317881323468632    0.11317881323468632    
  0.11564800839881308    0.12064565089560321    0.12832101552071398    0.13896339741037714    0.15303429503408852    
  0.17113047721035873    0.19387026461959506    0.22176573461007595    0.2551226851525097    0.2938972370631929    
  0.3374319796705047    0.3841551608717374    0.4313720212391947    0.4751136723946957    0.5101146198615488    
  0.5305571247694472    0.5322606835542112    0.5155733871300747    0.48663876961168706    0.4554844240527437    
  0.432169738116856    0.42360271926951565    0.47477493700640705    0.47960868542936047    0.4922689083530275    
  0.5077284465358256    0.5193267731837566    0.5211401441499566    0.5101146198615488    0.48670680471507705    
  0.4538529852085531    0.41533611888207694    0.3746554705174526    0.33460917021520187    0.29721900396510187    
  0.26374476970880684    0.2347803239243893    0.2104173248645139    0.19040200666845314    0.17427038431603228    
  0.16149659999778745    0.15163472413376705    0.14439119501795047    0.13961257032911975    0.13723390889351028    
  0.1372339088935103    0.13961257032911978    0.1443911950179505    0.15163472413376697    0.16149659999778745    
  0.1742703843160323    0.1904020066684531    0.2104173248645138    0.23478032392438936    0.2637447697088068    
  0.2972190039651018    0.3346091702152018    0.3746554705174525    0.41533611888207694    0.4538529852085531    
  0.48670680471507716    0.5101146198615488    0.5211401441499567    0.5193267731837566    0.5077284465358255    
  0.4922689083530275    0.47960868542936047    0.47477493700640705    0.4777110266044456    0.47987116636862354    
  0.485252495546238    0.49090367527953654    0.4930154403696537    0.488294243920091    0.4751136723946956    
  0.4538529852085531    0.4263724802922339    0.3951380655708448    0.3625357913437909    0.33053999523457583    
  0.3006171030783076    0.27372961345413804    0.25037327735107257    0.23062509127317316    0.2142263154832568    
  0.2007398884787048    0.18975130380473992    0.18100738092725968    0.17442532394163854    0.17001471175409746    
  0.1678023480153761    0.16780234801537605    0.1700147117540974    0.17442532394163857    0.1810073809272596    
  0.18975130380473987    0.20073988847870475    0.2142263154832568    0.23062509127317304    0.25037327735107257    
  0.27372961345413804    0.3006171030783075    0.3305399952345757    0.36253579134379077    0.39513806557084485    
  0.426372480292234    0.4538529852085531    0.4751136723946955    0.488294243920091    0.4930154403696537    
  0.49090367527953654    0.485252495546238    0.47987116636862354    0.4777110266044456    0.44381271352519136    
  0.44464966149685464    0.44661349921914784    0.4481913444995291    0.4473212134831018    0.4420757974105006    
  0.4313720212391947    0.41533611888207694    0.39513806557084485    0.3724649435742085    0.3489879597299943    
  0.3260664507065375    0.30469369765529447    0.28553584811838556    0.26893203761188345    0.2548620433199313    
  0.24299720398470553    0.2328989478442668    0.22426702723871506    0.21706303687424364    0.21144303833408906    
  0.207599451314825    0.20565496820846774    0.20565496820846774    0.207599451314825    0.2114430383340891    
  0.21706303687424355    0.2242670272387151    0.2328989478442668    0.24299720398470553    0.2548620433199313    
  0.2689320376118835    0.28553584811838556    0.30469369765529447    0.32606645070653745    0.3489879597299942    
  0.3724649435742085    0.39513806557084497    0.415336118882077    0.4313720212391947    0.44207579741050057    
  0.4473212134831018    0.4481913444995291    0.44661349921914784    0.44464966149685464    0.44381271352519136    
  0.3907406309250806    0.39118692895512036    0.39228116941167634    0.3932816114656865    0.3930288044757485    
  0.3902674923991042    0.38415516087173746    0.3746554705174525    0.3625357913437909    0.3489879597299943    
  0.33516927184496026    0.32195136376570677    0.3099167785433437    0.2994259079182378    0.2905944109679658    
  0.2832206277846314    0.2768353501412043    0.2709470793044913    0.2653363763245769    0.2601694022610126    
  0.2558549480214116    0.2527927677637806    0.2512197696522317    0.25121976965223175    0.2527927677637807    
  0.2558549480214116    0.2601694022610126    0.26533637632457696    0.2709470793044913    0.27683535014120425    
  0.2832206277846313    0.2905944109679658    0.2994259079182378    0.3099167785433437    0.3219513637657067    
  0.3351692718449602    0.3489879597299943    0.36253579134379094    0.3746554705174525    0.38415516087173746    
  0.39026749239910424    0.39302880447574856    0.3932816114656865    0.3922811694116764    0.39118692895512025    
  0.3907406309250806    0.3323687612880556    0.33286389949145256    0.3342428100292064    0.3361297398982966    
  0.3378284519618825    0.3384782514507376    0.3374319796705047    0.33460917021520176    0.3305399952345758    
  0.3260664507065374    0.32195136376570677    0.31867314883726816    0.3164520208476521    0.3153279718394064    
  0.31512974150179607    0.31539198413833286    0.3154200715781157    0.3145850259930602    0.3126749830355293    
  0.31002153933510884    0.3072956719727966    0.3051524964631435    0.3040009435824187    0.3040009435824187    
  0.30515249646314346    0.30729567197279656    0.3100215393351088    0.3126749830355293    0.31458502599306026    
  0.3154200715781157    0.31539198413833286    0.31512974150179607    0.31532797183940636    0.3164520208476521    
  0.3186731488372681    0.3219513637657067    0.3260664507065374    0.33053999523457583    0.33460917021520176    
  0.3374319796705047    0.3384782514507376    0.33782845196188255    0.33612973989829653    0.3342428100292064    
  0.33286389949145256    0.3323687612880556    0.2766336853372047    0.27732021541709856    0.2793303265509686    
  0.2824611061010496    0.2862867361741654    0.29024307054838905    0.2938972370631929    0.2972190039651019    
  0.30061710307830763    0.30469369765529447    0.30991677854334365    0.3164520208476522    0.3241977396320169    
  0.3328594090911706    0.3419178600492982    0.35055668187081035    0.3577559571537309    0.3626425363306441    
  0.36491311653478986    0.36500684003606637    0.36387581019970616    0.3625311486784377    0.361691507434066    
  0.36169150743406603    0.3625311486784377    0.36387581019970616    0.36500684003606637    0.36491311653478986    
  0.3626425363306441    0.3577559571537309    0.3505566818708103    0.3419178600492982    0.3328594090911706    
  0.324197739632017    0.3164520208476522    0.3099167785433437    0.30469369765529447    0.3006171030783077    
  0.2972190039651019    0.29389723706319293    0.29024307054838905    0.2862867361741654    0.2824611061010496    
  0.2793303265509687    0.27732021541709856    0.2766336853372047    0.22725609321205023    0.22814402985906884    
  0.23078140145197543    0.23505544762853287    0.24072525342032455    0.24748035899189186    0.2551226851525097    
  0.2637447697088067    0.273729613454138    0.28553584811838567    0.2994259079182378    0.3153279718394064    
  0.33285940909117057    0.3513766447226404    0.36994460089022446    0.3872974961024114    0.40197732481482207    
  0.4127386191919136    0.4190587406615583    0.4214197466735065    0.42113363968622936    0.41980799737290103    
  0.4187814600628558    0.4187814600628558    0.4198079973729011    0.42113363968622936    0.4214197466735064    
  0.4190587406615583    0.4127386191919136    0.40197732481482207    0.3872974961024114    0.36994460089022446    
  0.35137664472264046    0.33285940909117057    0.31532797183940636    0.29942590791823775    0.28553584811838556    
  0.27372961345413804    0.2637447697088067    0.25512268515250963    0.2474803589918919    0.2407252534203245    
  0.2350554476285328    0.23078140145197554    0.22814402985906884    0.22725609321205023    0.18551801407908358    
  0.18656563823043976    0.18969512042822198    0.19485559999818097    0.2019542237050417    0.21090951955801732    
  0.22176573461007595    0.23478032392438936    0.25037327735107257    0.26893203761188356    0.2905944109679659    
  0.31512974150179607    0.34191786004929825    0.36994460089022446    0.3977753539226226    0.4235678833731218    
  0.44525429568791675    0.46100011119925516    0.4698739581086155    0.4723937860593019    0.47053250795596324    
  0.46706410665619347    0.4645692478300008    0.4645692478300009    0.46706410665619347    0.47053250795596324    
  0.47239378605930177    0.4698739581086155    0.46100011119925516    0.44525429568791675    0.4235678833731219    
  0.3977753539226226    0.36994460089022446    0.34191786004929825    0.31512974150179596    0.2905944109679658    
  0.26893203761188356    0.25037327735107257    0.23478032392438936    0.22176573461007595    0.21090951955801743    
  0.20195422370504176    0.194855599998181    0.18969512042822204    0.18656563823043976    0.18551801407908358    
  0.1513641133871209    0.15251745853281376    0.15597831855756542    0.16175497012503104    0.16988776370401312    
  0.18050220021913543    0.19387026461959508    0.2104173248645139    0.23062509127317324    0.25486204331993145    
  0.28322062778463136    0.31539198413833286    0.35055668187081035    0.38729749610241143    0.4235678833731219    
  0.4567313420446664    0.4837576453275825    0.5018118870279072    0.5093364964679058    0.5071519713283116    
  0.4986953755018285    0.4889654517215512    0.4826946065130346    0.4826946065130346    0.4889654517215512    
  0.4986953755018285    0.5071519713283116    0.5093364964679058    0.5018118870279075    0.4837576453275825    
  0.4567313420446664    0.4235678833731218    0.38729749610241143    0.35055668187081035    0.3153919841383329    
  0.2832206277846314    0.2548620433199314    0.23062509127317324    0.21041732486451384    0.1938702646195951    
  0.18050220021913552    0.16988776370401315    0.16175497012503107    0.15597831855756542    0.15251745853281376    
  0.1513641133871209    0.12414140601962018    0.12535506403729213    0.1290144127348515    0.13518877814980804    
  0.14403846780684046    0.1558649525191396    0.1711304772103588    0.19040200666845308    0.21422631548325677    
  0.24299720398470553    0.27683535014120436    0.3154200715781157    0.35775595715373076    0.4019773248148222    
  0.44525429568791686    0.48375764532758236    0.5128644323142773    0.5281713321997369    0.5275192460184129    
  0.512948445083954    0.4908276028333453    0.46965420425306187    0.45694475735008155    0.45694475735008155    
  0.46965420425306176    0.49082760283334537    0.512948445083954    0.5275192460184129    0.5281713321997369    
  0.5128644323142773    0.48375764532758236    0.44525429568791686    0.4019773248148221    0.35775595715373076    
  0.3154200715781157    0.2768353501412043    0.24299720398470553    0.2142263154832568    0.19040200666845308    
  0.17113047721035884    0.1558649525191396    0.14403846780684051    0.13518877814980798    0.1290144127348516    
  0.12535506403729219    0.12414140601962018    0.1030134184790901    0.10425620369625667    0.10802116590777447    
  0.1144343105782496    0.12375500084108099    0.1364203336669287    0.1530342950340886    0.17427038431603242    
  0.20073988847870483    0.2328989478442668    0.2709470793044914    0.3145850259930603    0.362642536330644    
  0.41273861919191374    0.4610001111992552    0.5018118870279074    0.528171332199737    0.5337458524975751    
  0.5165430022961977    0.48163658174449453    0.4400630025995951    0.4043326330776968    0.38404939090494133    
  0.3840493909049414    0.4043326330776968    0.440063002599595    0.48163658174449453    0.5165430022961977    
  0.5337458524975751    0.528171332199737    0.5018118870279074    0.4610001111992552    0.41273861919191374    
  0.3626425363306441    0.3145850259930602    0.27094707930449136    0.2328989478442668    0.20073988847870486    
  0.1742703843160323    0.1530342950340886    0.1364203336669287    0.12375500084108103    0.1144343105782495    
  0.10802116590777457    0.10425620369625675    0.1030134184790901    0.08708468590058609    0.08833673577623309    
  0.09214543850038959    0.09868294260794536    0.10828230691253295    0.12147553197006884    0.13896339741037717    
  0.16149659999778745    0.18975130380473992    0.22426702723871517    0.26533637632457696    0.3126749830355293    
  0.3649131165347898    0.41905874066155835    0.4698739581086155    0.5093364964679057    0.5275192460184129    
  0.5165430022961977    0.4763749680154812    0.41740939611678    0.3562770228641327    0.30819392472069285    
  0.2823576279336696    0.28235762793366964    0.30819392472069285    0.3562770228641326    0.41740939611677996    
  0.4763749680154812    0.5165430022961978    0.5275192460184129    0.5093364964679058    0.4698739581086155    
  0.4190587406615583    0.3649131165347898    0.31267498303552926    0.26533637632457696    0.2242670272387151    
  0.18975130380473992    0.1614965999977874    0.13896339741037717    0.12147553197006884    0.10828230691253299    
  0.09868294260794531    0.09214543850038964    0.08833673577623323    0.08708468590058609    0.07546352560716976    
  0.0767127666198643    0.08052545055846921    0.08710782082448947    0.09684355890367279    0.11032661971881697    
  0.12832101552071398    0.15163472413376708    0.1810073809272597    0.2170630368742437    0.2601694022610126    
  0.31002153933510884    0.36500684003606637    0.4214197466735065    0.4723937860593019    0.5071519713283116    
  0.5129484450839541    0.48163658174449453    0.41740939611677996    0.33754496484397106    0.26341648174587556    
  0.20999591113824412    0.18298071810116504    0.18298071810116498    0.20999591113824415    0.26341648174587556    
  0.337544964843971    0.41740939611677996    0.4816365817444946    0.512948445083954    0.5071519713283117    
  0.4723937860593019    0.4214197466735065    0.36500684003606637    0.3100215393351088    0.2601694022610126    
  0.21706303687424375    0.1810073809272597    0.151634724133767    0.12832101552071398    0.11032661971881692    
  0.09684355890367283    0.08710782082448947    0.08052545055846931    0.07671276661986433    0.07546352560716976    
  0.06738047709158547    0.0686208919411958    0.07241600528064811    0.07899563361073965    0.0887764815162769    
  0.10239143758903482    0.12064565089560321    0.1443911950179506    0.17442532394163862    0.21144303833408915    
  0.25585494802141173    0.30729567197279667    0.36387581019970605    0.42113363968622936    0.47053250795596324    
  0.4986953755018283    0.4908276028333453    0.440063002599595    0.35627702286413265    0.26341648174587556    
  0.18528001156184107    0.13375036572762716    0.10937384886208025    0.10937384886208025    0.1337503657276272    
  0.18528001156184104    0.26341648174587556    0.3562770228641327    0.4400630025995951    0.4908276028333453    
  0.4986953755018285    0.47053250795596324    0.42113363968622936    0.3638758101997061    0.30729567197279656    
  0.2558549480214117    0.21144303833408915    0.17442532394163868    0.14439119501795047    0.12064565089560321    
  0.10239143758903482    0.0887764815162769    0.07899563361073957    0.07241600528064818    0.06862089194119576    
  0.06738047709158547    0.06227781113675485    0.06350857516359033    0.06728050471977085    0.07383832878410047    
  0.08361886443231341    0.09727831609173114    0.11564800839881312    0.13961257032911992    0.17001471175409755    
  0.20759945131482505    0.2527927677637807    0.30515249646314363    0.3625311486784378    0.4198079973729011    
  0.46706410665619336    0.48896545172155126    0.4696542042530619    0.40433263307769673    0.3081939247206928    
  0.20999591113824417    0.1337503657276273    0.08732125194655656    0.06672568589340556    0.06672568589340562    
  0.08732125194655656    0.13375036572762725    0.20999591113824415    0.3081939247206928    0.40433263307769685    
  0.4696542042530619    0.48896545172155126    0.46706410665619336    0.4198079973729011    0.3625311486784378    
  0.3051524964631435    0.2527927677637806    0.20759945131482502    0.1700147117540976    0.13961257032911986    
  0.11564800839881308    0.09727831609173114    0.0836188644323135    0.07383832878410035    0.06728050471977087    
  0.06350857516359033    0.06227781113675485    0.059809710033621254    0.061034314271649494    0.06479061601362796    
  0.07133063579081005    0.08110085826074998    0.09476870372547778    0.11317881323468637    0.13723390889351034    
  0.1678023480153761    0.2056549682084677    0.25121976965223175    0.30400094358241875    0.3616915074340659    
  0.41878146006285594    0.46456924783000075    0.4826946065130346    0.45694475735008155    0.3840493909049412    
  0.2823576279336696    0.18298071810116495    0.10937384886208021    0.06672568589340556    0.04859085613577209    
  0.04859085613577216    0.06672568589340565    0.10937384886208018    0.18298071810116498    0.2823576279336696    
  0.38404939090494145    0.45694475735008155    0.4826946065130346    0.46456924783000075    0.41878146006285594    
  0.3616915074340659    0.3040009435824186    0.2512197696522317    0.20565496820846776    0.1678023480153762    
  0.1372339088935103    0.11317881323468637    0.09476870372547774    0.08110085826075004    0.07133063579080995    
  0.064790616013628    0.06103431427164947    0.059809710033621254    0.059809710033621115    0.061034314271649424    
  0.06479061601362797    0.07133063579080995    0.08110085826074995    0.09476870372547774    0.11317881323468637    
  0.13723390889351034    0.16780234801537616    0.20565496820846774    0.2512197696522317    0.30400094358241875    
  0.3616915074340659    0.41878146006285594    0.46456924783000075    0.4826946065130346    0.45694475735008155    
  0.3840493909049412    0.2823576279336696    0.18298071810116498    0.10937384886208021    0.06672568589340555    
  0.04859085613577216    0.04859085613577228    0.06672568589340566    0.10937384886208017    0.18298071810116498    
  0.2823576279336696    0.38404939090494145    0.45694475735008155    0.4826946065130346    0.46456924783000075    
  0.41878146006285594    0.361691507434066    0.3040009435824186    0.2512197696522317    0.2056549682084677    
  0.16780234801537616    0.13723390889351025    0.11317881323468637    0.09476870372547778    0.08110085826074998    
  0.07133063579080991    0.06479061601362804    0.061034314271649404    0.059809710033621115    0.062277811136754874    
  0.06350857516359028    0.06728050471977085    0.07383832878410042    0.08361886443231345    0.09727831609173108    
  0.11564800839881308    0.13961257032911994    0.1700147117540975    0.20759945131482502    0.25279276776378073    
  0.30515249646314363    0.3625311486784377    0.4198079973729011    0.46706410665619336    0.48896545172155126    
  0.4696542042530619    0.4043326330776967    0.30819392472069285    0.20999591113824417    0.13375036572762738    
  0.0873212519465566    0.06672568589340559    0.06672568589340559    0.0873212519465566    0.13375036572762725    
  0.20999591113824423    0.30819392472069285    0.4043326330776968    0.4696542042530619    0.48896545172155126    
  0.46706410665619347    0.4198079973729011    0.3625311486784378    0.3051524964631436    0.2527927677637807    
  0.20759945131482502    0.17001471175409755    0.1396125703291198    0.11564800839881308    0.09727831609173108    
  0.08361886443231355    0.07383832878410031    0.06728050471977089    0.0635085751635903    0.062277811136754874    
  0.06738047709158547    0.06862089194119574    0.07241600528064815    0.07899563361073968    0.0887764815162769    
  0.10239143758903482    0.12064565089560325    0.14439119501795056    0.17442532394163862    0.21144303833408915    
  0.25585494802141173    0.3072956719727966    0.363875810199706    0.42113363968622947    0.47053250795596313    
  0.4986953755018283    0.4908276028333453    0.440063002599595    0.35627702286413265    0.2634164817458755    
  0.185280011561841    0.1337503657276272    0.10937384886208025    0.10937384886208021    0.1337503657276272    
  0.18528001156184098    0.2634164817458755    0.35627702286413265    0.4400630025995951    0.4908276028333453    
  0.4986953755018285    0.47053250795596324    0.4211336396862294    0.36387581019970605    0.30729567197279645    
  0.2558549480214117    0.21144303833408915    0.17442532394163865    0.14439119501795045    0.12064565089560325    
  0.10239143758903482    0.08877648151627694    0.07899563361073964    0.0724160052806482    0.06862089194119576    
  0.06738047709158547    0.07546352560716976    0.07671276661986436    0.08052545055846926    0.08710782082448947    
  0.09684355890367273    0.110326619718817    0.1283210155207141    0.15163472413376713    0.18100738092725965    
  0.21706303687424364    0.26016940226101265    0.31002153933510884    0.3650068400360663    0.4214197466735065    
  0.4723937860593019    0.5071519713283116    0.5129484450839541    0.4816365817444944    0.41740939611677996    
  0.337544964843971    0.26341648174587556    0.20999591113824412    0.18298071810116498    0.18298071810116498    
  0.20999591113824415    0.26341648174587545    0.337544964843971    0.41740939611678    0.4816365817444946    
  0.512948445083954    0.5071519713283116    0.4723937860593019    0.4214197466735065    0.3650068400360663    
  0.3100215393351088    0.26016940226101254    0.21706303687424364    0.18100738092725974    0.15163472413376697    
  0.1283210155207141    0.110326619718817    0.09684355890367279    0.08710782082448947    0.08052545055846931    
  0.07671276661986436    0.07546352560716976    0.08708468590058609    0.08833673577623309    0.09214543850038959    
  0.09868294260794536    0.10828230691253295    0.12147553197006884    0.13896339741037717    0.16149659999778745    
  0.1897513038047399    0.22426702723871517    0.26533637632457696    0.3126749830355293    0.3649131165347898    