#     DFTpy    
  CRYSTAL 
    
  PRIMVEC    
  4.905724137931031    0.0    0.0    
  0.0    4.905724137931031    0.0    
  0.0    0.0    4.905724137931031    
  PRIMCOORD    
  8    1    
  Si    0.0    0.0    0.0    
  Si    1.2264310344827603    1.2264310344827603    1.2264310344827603    
  Si    0.0    2.4528620689655205    2.4528620689655205    
  Si    1.2264310344827603    3.679293103448281    3.679293103448281    
  Si    2.4528620689655205    0.0    2.4528620689655205    
  Si    3.679293103448281    1.2264310344827603    3.679293103448281    
  Si    2.4528620689655205    2.4528620689655205    0.0    
  Si    3.679293103448281    3.679293103448281    1.2264310344827603    
  BEGIN_BLOCK_DATAGRID_3D    
  3d_datagrid_density    
  BEGIN_DATAGRID_3D#0    
  46    46    46    
  0.0    0.0    0.0    
  4.905724156229476    0.0    0.0    
  0.0    4.905724156229476    0.0    
  0.0    0.0    4.905724156229476    
  0.043556568575012417    0.05238741715172301    0.08282428208172246    0.14287478780405677    0.23281485012821382    
  0.3334013909539688    0.41160657316602806    0.4436041211089701    0.42945725046359595    0.38571541739930476    
  0.33017793366420495    0.2743851926568275    0.22398585657799377    0.18105633818125852    0.14575233082556682    
  0.11739878352731019    0.09514401284244745    0.07813170466819555    0.06547756289473523    0.05633762372726929    
  0.05002865176673931    0.04607134914887933    0.04416576812962373    0.04416576812962368    0.04607134914887928    
  0.05002865176673945    0.05633762372726931    0.06547756289473523    0.07813170466819555    0.0951440128424474    
  0.11739878352731029    0.14575233082556682    0.1810563381812585    0.22398585657799375    0.27438519265682754    
  0.3301779336642049    0.38571541739930476    0.42945725046359595    0.4436041211089701    0.4116065731660279    
  0.33340139095396876    0.23281485012821387    0.14287478780405682    0.0828242820817225    0.05238741715172301    
  0.043556568575012417    0.05238741715172294    0.061959725489206655    0.09429503279775579    0.1562600549801203    
  0.2464214773007005    0.34462706966188533    0.4188206096158892    0.4471166804874571    0.43073552893371164    
  0.38612950442168786    0.33047815773143674    0.2748348114794372    0.22462186936346423    0.1818427644717045    
  0.14664280693943033    0.11835710065126344    0.09614331633831702    0.07914808634583663    0.06648994091018273    
  0.05733236843618927    0.05100174459991325    0.04702638894693138    0.045110795811193816    0.045110795811193774    
  0.04702638894693131    0.05100174459991334    0.057332368436189336    0.06648994091018273    0.0791480863458367    
  0.09614331633831698    0.11835710065126351    0.14664280693943035    0.1818427644717045    0.22462186936346412    
  0.2748348114794373    0.3304781577314366    0.3861295044216879    0.4307355289337117    0.4471166804874571    
  0.418820609615889    0.3446270696618853    0.24642147730070052    0.1562600549801203    0.09429503279775579    
  0.061959725489206606    0.05238741715172294    0.08282428208172256    0.09429503279775578    0.1312188507940924    
  0.1970227479740137    0.2857964776325259    0.37567387283974296    0.437889427397333    0.45584800408931125    
  0.4335342414828358    0.38681753000740837    0.331070356757011    0.27600403346323643    0.22642838221468575    
  0.1841513453975443    0.1492968610429344    0.12123720780920892    0.09916288877666875    0.08223249507270233    
  0.0695745120432724    0.06037456646335477    0.05398685116530931    0.049962053845861526    0.04801845321428255    
  0.04801845321428253    0.049962053845861505    0.05398685116530941    0.06037456646335484    0.06957451204327236    
  0.08223249507270233    0.09916288877666866    0.12123720780920898    0.1492968610429344    0.18415134539754427    
  0.22642838221468573    0.2760040334632365    0.33107035675701096    0.38681753000740837    0.4335342414828358    
  0.45584800408931125    0.43788942739733283    0.37567387283974285    0.2857964776325259    0.1970227479740137    
  0.13121885079409246    0.09429503279775575    0.08282428208172256    0.14287478780405682    0.1562600549801204    
  0.1970227479740137    0.26350413609999374    0.34463006253195827    0.41829013611126126    0.461641258409897    
  0.4650616666559988    0.4352187626838882    0.38637795576197687    0.33116194132921656    0.277418081651234    
  0.22912840815269123    0.1878414383628885    0.15367068067470138    0.1260649251418296    0.10427943766270648    
  0.08750110909668996    0.07488085556049746    0.06564234451485478    0.05918402164989484    0.05509230493843862    
  0.05310910273607431    0.05310910273607431    0.05509230493843855    0.05918402164989491    0.06564234451485483    
  0.07488085556049746    0.08750110909668996    0.10427943766270642    0.1260649251418296    0.1536706806747014    
  0.18784143836288847    0.2291284081526911    0.277418081651234    0.3311619413292165    0.38637795576197687    
  0.4352187626838882    0.46506166665599885    0.4616412584098969    0.4182901361112612    0.3446300625319583    
  0.26350413609999374    0.1970227479740137    0.15626005498012033    0.14287478780405682    0.23281485012821376    
  0.24642147730070044    0.28579647763252597    0.3446300625319584    0.40887492220166805    0.45924177026221236    
  0.48039745972270576    0.46898811042285554    0.43274149560783004    0.3831919893564204    0.3298008511178483    
  0.2784729909527018    0.23234824577374133    0.19271752338050413    0.15971413676621282    0.13290588669148987    
  0.11164560812913495    0.09517144693506309    0.0826783855047095    0.07344877733182946    0.06694115947767337    
  0.06278895708811318    0.06076655856208056    0.060766558562080464    0.06278895708811304    0.06694115947767337    
  0.07344877733182946    0.08267838550470955    0.09517144693506309    0.1116456081291349    0.13290588669148992    
  0.15971413676621285    0.19271752338050407    0.23234824577374127    0.2784729909527018    0.32980085111784824    
  0.3831919893564204    0.4327414956078298    0.46898811042285554    0.48039745972270553    0.45924177026221236    
  0.40887492220166805    0.34463006253195844    0.28579647763252597    0.24642147730070044    0.23281485012821376    
  0.3334013909539687    0.34462706966188533    0.3756738728397429    0.41829013611126126    0.45924177026221236    
  0.48451808563999565    0.4856970386464771    0.46321591340823665    0.42391393206189387    0.37606630364984517    
  0.32622162208606537    0.278633341983784    0.23572794408270406    0.19858744980326992    0.1674017434611045    
  0.14188601229534614    0.12151022190541397    0.10558699185738127    0.0933852369223147    0.08427270820983966    
  0.07778507367971757    0.07361268399556829    0.07156921418593507    0.07156921418593502    0.07361268399556825    
  0.07778507367971763    0.08427270820983966    0.09338523692231475    0.10558699185738127    0.12151022190541394    
  0.14188601229534617    0.16740174346110456    0.1985874498032699    0.23572794408270395    0.278633341983784    
  0.3262216220860653    0.37606630364984517    0.42391393206189387    0.46321591340823665    0.48569703864647695    
  0.48451808563999554    0.45924177026221236    0.4182901361112612    0.37567387283974296    0.34462706966188533    
  0.3334013909539687    0.411606573166028    0.41882060961588913    0.437889427397333    0.461641258409897    
  0.48039745972270576    0.485697038646477    0.47377420836094153    0.446278426702518    0.40809616144190847    
  0.3645810666655848    0.3200639377689837    0.2775848146596034    0.23903044677788915    0.2053401550069325    
  0.17678637966810004    0.15322904089928402    0.13424879644796106    0.11924678916455562    0.10759677473679966    
  0.0987819744239777    0.09243587814998834    0.08831853746328504    0.08629013633184966    0.08629013633184952    
  0.08831853746328494    0.0924358781499884    0.09878197442397772    0.10759677473679966    0.1192467891645557    
  0.13424879644796098    0.15322904089928407    0.17678637966810004    0.20534015500693248    0.23903044677788907    
  0.2775848146596034    0.3200639377689836    0.3645810666655848    0.40809616144190847    0.446278426702518    
  0.4737742083609414    0.485697038646477    0.48039745972270576    0.461641258409897    0.437889427397333    
  0.41882060961588913    0.411606573166028    0.4436041211089702    0.4471166804874571    0.45584800408931125    
  0.4650616666559988    0.46898811042285543    0.46321591340823665    0.446278426702518    0.4195740418603793    
  0.38608694165668767    0.34908502836887556    0.31142354405507383    0.2753049715510054    0.2422228660472212    
  0.213027149102531    0.18806533051515184    0.16729664414516365    0.15037653713233773    0.13679472188779435    
  0.12605429082196495    0.117783341409131    0.11173981855303844    0.10777481248694522    0.10580781686994481    
  0.10580781686994481    0.10777481248694505    0.11173981855303844    0.11778334140913103    0.12605429082196495    
  0.13679472188779435    0.1503765371323377    0.16729664414516368    0.1880653305151519    0.213027149102531    
  0.2422228660472212    0.2753049715510054    0.3114235440550738    0.34908502836887556    0.3860869416566876    
  0.41957404186037933    0.4462784267025179    0.46321591340823665    0.46898811042285543    0.46506166665599885    
  0.45584800408931125    0.4471166804874571    0.4436041211089702    0.42945725046359595    0.4307355289337117    
  0.4335342414828358    0.4352187626838882    0.43274149560782993    0.42391393206189387    0.40809616144190847    
  0.3860869416566876    0.3595569740163754    0.33048618784804834    0.30078426568295785    0.2720598104008241    
  0.24550836489303807    0.2218986024624276    0.20159002358629696    0.18455564647583275    0.1704734903591304    
  0.15891380121775875    0.14952360298978848    0.14209837174180653    0.13654895412568746    0.13284688792886973    
  0.13099199441027629    0.13099199441027617    0.13284688792886967    0.1365489541256875    0.14209837174180653    
  0.14952360298978848    0.15891380121775872    0.17047349035913037    0.1845556464758328    0.2015900235862971    
  0.2218986024624276    0.24550836489303807    0.27205981040082405    0.30078426568295785    0.33048618784804834    
  0.3595569740163754    0.38608694165668767    0.40809616144190847    0.42391393206189387    0.43274149560782993    
  0.4352187626838882    0.4335342414828358    0.4307355289337117    0.42945725046359595    0.38571541739930476    
  0.3861295044216879    0.3868175300074084    0.3863779557619768    0.38319198935642046    0.3760663036498452    
  0.3645810666655849    0.34908502836887556    0.3304861878480484    0.30999513408379414    0.28889088798306783    
  0.2683390546272829    0.24927533932572074    0.23232673400507342    0.2177484159492308    0.20542846062107087    
  0.19502327149973608    0.18617446606884935    0.17867045578966265    0.17247587249499668    0.16767034036179942    
  0.16437401780579447    0.16269465159963772    0.16269465159963772    0.16437401780579444    0.16767034036179948    
  0.17247587249499668    0.1786704557896626    0.18617446606884935    0.195023271499736    0.2054284606210709    
  0.21774841594923083    0.23232673400507342    0.24927533932572074    0.26833905462728286    0.2888908879830678    
  0.30999513408379414    0.3304861878480484    0.3490850283688756    0.3645810666655848    0.3760663036498452    
  0.3831919893564204    0.3863779557619768    0.3868175300074085    0.386129504421688    0.38571541739930476    
  0.33017793366420495    0.3304781577314367    0.331070356757011    0.33116194132921656    0.3298008511178483    
  0.3262216220860653    0.3200639377689837    0.3114235440550739    0.30078426568295785    0.2888908879830679    
  0.27660003991459675    0.26473387601587073    0.2539474554242373    0.24461297219805941    0.23675551933614314    
  0.23010402040401498    0.224265652351041    0.21893003619324658    0.2139893100997765    0.20954283802111237    
  0.20583036854882053    0.2031412151773888    0.20172537530923448    0.20172537530923437    0.20314121517738876    
  0.20583036854882056    0.20954283802111237    0.2139893100997765    0.21893003619324658    0.22426565235104093    
  0.23010402040401504    0.23675551933614322    0.24461297219805941    0.25394745542423725    0.26473387601587073    
  0.2766000399145967    0.2888908879830679    0.30078426568295785    0.3114235440550738    0.3200639377689837    
  0.32622162208606525    0.32980085111784824    0.3311619413292166    0.331070356757011    0.3304781577314367    
  0.33017793366420495    0.27438519265682754    0.2748348114794372    0.27600403346323643    0.27741808165123394    
  0.27847299095270167    0.2786333419837839    0.27758481465960333    0.2753049715510054    0.27205981040082405    
  0.26833905462728286    0.2647338760158706    0.26177649917666584    0.2597877162086638    0.2587842667936005    
  0.2584840461113507    0.25841708952335946    0.2581010307971664    0.25720361495158783    0.25563466155466447    
  0.2535611183557829    0.2513593695710722    0.24951044824104962    0.24845514592433063    0.2484551459243306    
  0.24951044824104956    0.25135936957107213    0.2535611183557829    0.25563466155466447    0.25720361495158783    
  0.2581010307971664    0.2584170895233595    0.2584840461113507    0.2587842667936005    0.2597877162086638    
  0.2617764991766658    0.2647338760158706    0.26833905462728286    0.27205981040082405    0.27530497155100536    
  0.2775848146596032    0.2786333419837839    0.27847299095270167    0.27741808165123394    0.2760040334632365    
  0.2748348114794372    0.27438519265682754    0.2239858565779937    0.22462186936346423    0.22642838221468575    
  0.2291284081526911    0.23234824577374127    0.23572794408270406    0.23903044677788912    0.24222286604722132    
  0.24550836489303807    0.24927533932572074    0.2539474554242373    0.25978771620866387    0.2667586539188025    
  0.27450094927079055    0.2824138126683818    0.28978797100823295    0.2959548164158099    0.3004267093207056    
  0.3030076901632667    0.30385727467627294    0.30347946023861483    0.3026006160792005    0.30193823537788683    
  0.3019382353778867    0.30260061607920047    0.30347946023861483    0.30385727467627294    0.3030076901632667    
  0.3004267093207056    0.29595481641580984    0.28978797100823295    0.2824138126683819    0.27450094927079055    
  0.26675865391880255    0.2597877162086638    0.2539474554242373    0.24927533932572069    0.24550836489303807    
  0.2422228660472212    0.23903044677788907    0.235727944082704    0.23234824577374133    0.22912840815269114    
  0.22642838221468575    0.22462186936346426    0.2239858565779937    0.18105633818125852    0.1818427644717046    
  0.18415134539754435    0.18784143836288847    0.19271752338050419    0.19858744980326998    0.20534015500693248    
  0.21302714910253115    0.22189860246242765    0.23232673400507342    0.24461297219805953    0.25878426679360056    
  0.2745009492707906    0.29109279628761486    0.30765349198962594    0.3231510041816873    0.3365669133579389    
  0.3470715413123049    0.3542111968956906    0.35806831351596824    0.3593216342553726    0.35910181643893585    
  0.3586061691383025    0.3586061691383025    0.35910181643893585    0.35932163425537256    0.35806831351596824    
  0.3542111968956906    0.3470715413123049    0.33656691335793887    0.32315100418168724    0.307653491989626    
  0.2910927962876149    0.2745009492707906    0.2587842667936005    0.24461297219805947    0.23232673400507342    
  0.22189860246242765    0.21302714910253115    0.20534015500693242    0.19858744980326998    0.19271752338050419    
  0.18784143836288847    0.18415134539754432    0.1818427644717046    0.18105633818125852    0.14575233082556682    
  0.1466428069394303    0.14929686104293444    0.15367068067470144    0.15971413676621282    0.16740174346110456    
  0.17678637966810007    0.18806533051515195    0.20159002358629702    0.2177484159492308    0.23675551933614317    
  0.2584840461113508    0.2824138126683818    0.30765349198962594    0.33297594271964975    0.3568929652390075    
  0.3778173352852408    0.3943159711161477    0.4054490441558934    0.41115652508829703    0.4125001414233015    
  0.4114664089984247    0.41023794980435585    0.4102379498043558    0.4114664089984246    0.41250014142330144    
  0.411156525088297    0.4054490441558934    0.39431597111614763    0.37781733528524086    0.3568929652390076    
  0.3329759427196498    0.30765349198962594    0.28241381266838184    0.25848404611135073    0.23675551933614317    
  0.2177484159492308    0.20159002358629702    0.18806533051515195    0.1767863796681    0.16740174346110454    
  0.15971413676621282    0.15367068067470144    0.1492968610429345    0.1466428069394303    0.14575233082556682    
  0.11739878352731029    0.11835710065126351    0.12123720780920892    0.12606492514182951    0.13290588669148992    
  0.14188601229534617    0.15322904089928402    0.16729664414516376    0.18455564647583275    0.2054284606210709    
  0.23010402040401498    0.2584170895233595    0.289787971008233    0.3231510041816872    0.3568929652390076    
  0.38888682253571255    0.41665425096093767    0.43771570260098236    0.4502763130677589    0.45417212488112696    
  0.451474610290921    0.4460426206650751    0.44201055866406747    0.44201055866406747    0.4460426206650751    
  0.451474610290921    0.45417212488112696    0.4502763130677589    0.43771570260098236    0.4166542509609376    
  0.38888682253571255    0.35689296523900765    0.3231510041816872    0.289787971008233    0.25841708952335946    
  0.2301040204040149    0.20542846062107092    0.18455564647583278    0.16729664414516363    0.15322904089928396    
  0.14188601229534617    0.1329058866914899    0.12606492514182951    0.12123720780920898    0.11835710065126355    
  0.11739878352731029    0.0951440128424474    0.09614331633831692    0.09916288877666861    0.10427943766270635    
  0.11164560812913488    0.1215102219054139    0.13424879644796092    0.1503765371323377    0.17047349035913043    
  0.19502327149973606    0.22426565235104098    0.25810103079716634    0.29595481641580984    0.33656691335793876    
  0.37781733528524075    0.41665425096093756    0.4491591622595797    0.47110134794184966    0.47945792139811505    
  0.4744687999366674    0.4605938407085746    0.44513759381247187    0.4352661722034949    0.4352661722034949    
  0.44513759381247187    0.4605938407085746    0.4744687999366674    0.47945792139811505    0.4711013479418497    
  0.4491591622595796    0.4166542509609376    0.37781733528524075    0.33656691335793887    0.2959548164158099    
  0.2581010307971663    0.22426565235104093    0.195023271499736    0.17047349035913043    0.1503765371323377    
  0.13424879644796092    0.12151022190541397    0.11164560812913481    0.10427943766270635    0.09916288877666866    
  0.09614331633831692    0.0951440128424474    0.07813170466819558    0.07914808634583678    0.08223249507270239    
  0.08750110909668991    0.09517144693506309    0.10558699185738131    0.11924678916455572    0.13679472188779437    
  0.15891380121775872    0.18617446606884935    0.21893003619324658    0.25720361495158783    0.30042670932070564    
  0.3470715413123049    0.3943159711161477    0.4377157026009823    0.47110134794184966    0.4877367081121812    
  0.4835242044649712    0.46061509605205847    0.4279469506848855    0.39755748849081674    0.3796393022581315    
  0.3796393022581314    0.3975574884908167    0.4279469506848855    0.4606150960520585    0.48352420446497113    
  0.4877367081121812    0.47110134794184966    0.43771570260098236    0.3943159711161477    0.3470715413123049    
  0.30042670932070564    0.2572036149515877    0.21893003619324658    0.18617446606884935    0.15891380121775872    
  0.13679472188779446    0.11924678916455567    0.10558699185738134    0.09517144693506317    0.08750110909668986    
  0.08223249507270253    0.07914808634583678    0.07813170466819558    0.06547756289473518    0.06648994091018273    
  0.0695745120432724    0.07488085556049755    0.0826783855047095    0.0933852369223147    0.10759677473679956    
  0.12605429082196495    0.14952360298978834    0.17867045578966265    0.2139893100997765    0.25563466155466447    
  0.3030076901632667    0.35421119689569064    0.40544904415589333    0.4502763130677589    0.47945792139811505    
  0.48352420446497113    0.458616716803993    0.41135399971826075    0.35700750831446576    0.3118739882412659    
  0.2869512803854257    0.28695128038542567    0.3118739882412658    0.35700750831446565    0.41135399971826075    
  0.458616716803993    0.48352420446497113    0.47945792139811505    0.450276313067759    0.4054490441558934    
  0.3542111968956906    0.3030076901632667    0.2556346615546644    0.21398931009977645    0.1786704557896626    
  0.14952360298978834    0.12605429082196495    0.10759677473679961    0.09338523692231475    0.0826783855047094    
  0.07488085556049746    0.06957451204327246    0.06648994091018279    0.06547756289473518    0.05633762372726934    
  0.057332368436189246    0.06037456646335486    0.06564234451485483    0.07344877733182942    0.0842727082098396    
  0.09878197442397772    0.11778334140913105    0.14209837174180648    0.17247587249499663    0.20954283802111237    
  0.25356111835578293    0.3038572746762728    0.3580683135159682    0.411156525088297    0.4541721248811268    
  0.47446879993666735    0.4606150960520585    0.4113539997182607    0.34028399003831716    0.2691705049878365    
  0.21578057844595033    0.1882410473203528    0.18824104732035285    0.21578057844595033    0.2691705049878364    
  0.3402839900383171    0.4113539997182607    0.4606150960520585    0.47446879993666735    0.4541721248811268    
  0.41115652508829703    0.35806831351596813    0.30385727467627294    0.2535611183557828    0.20954283802111234    
  0.17247587249499663    0.14209837174180653    0.1177833414091311    0.09878197442397775    0.0842727082098397    
  0.07344877733182942    0.06564234451485483    0.06037456646335493    0.057332368436189246    0.05633762372726934    
  0.050028651766739284    0.05100174459991325    0.05398685116530931    0.05918402164989477    0.06694115947767328    
  0.07778507367971757    0.0924358781499882    0.11173981855303854    0.1365489541256875    0.1676703403617994    
  0.20583036854882056    0.25135936957107224    0.3034794602386149    0.35932163425537256    0.4125001414233014    
  0.45147461029092084    0.4605938407085748    0.4279469506848855    0.3570075083144656    0.26917050498783657    
  0.19072436804987536    0.13739663937164348    0.1118619340742108    0.11186193407421084    0.13739663937164345    
  0.19072436804987516    0.2691705049878365    0.3570075083144656    0.4279469506848855    0.4605938407085746    
  0.45147461029092095    0.4125001414233014    0.35932163425537256    0.3034794602386149    0.2513593695710721    
  0.20583036854882053    0.1676703403617994    0.1365489541256875    0.11173981855303854    0.09243587814998826    
  0.07778507367971771    0.06694115947767328    0.05918402164989477    0.05398685116530936    0.051001744599913204    
  0.050028651766739284    0.04607134914887931    0.04702638894693138    0.049962053845861505    0.05509230493843862    
  0.06278895708811315    0.07361268399556822    0.088318537463285    0.10777481248694529    0.13284688792886973    
  0.16437401780579444    0.20314121517738884    0.24951044824104965    0.30260061607920063    0.35910181643893585    
  0.4114664089984247    0.4460426206650751    0.445137593812472    0.3975574884908168    0.3118739882412658    
  0.21578057844595047    0.13739663937164365    0.08865295834132879    0.0669443310210488    0.06694433102104892    
  0.08865295834132882    0.1373966393716435    0.21578057844595047    0.3118739882412658    0.39755748849081674    
  0.44513759381247187    0.44604262066507516    0.4114664089984247    0.35910181643893585    0.30260061607920063    
  0.2495104482410495    0.2031412151773888    0.16437401780579444    0.1328468879288697    0.10777481248694527    
  0.0883185374632851    0.07361268399556829    0.0627889570881131    0.05509230493843858    0.04996205384586167    
  0.04702638894693143    0.04607134914887931    0.04416576812962366    0.045110795811193864    0.048018453214282414    
  0.05310910273607431    0.06076655856208053    0.07156921418593502    0.0862901363318496    0.10580781686994492    
  0.13099199441027612    0.16269465159963775    0.20172537530923448    0.24845514592433054    0.30193823537788683    
  0.3586061691383024    0.4102379498043559    0.44201055866406747    0.43526617220349506    0.3796393022581315    
  0.2869512803854257    0.18824104732035288    0.11186193407421087    0.06694433102104885    0.04788202022536126    
  0.0478820202253613    0.06694433102104883    0.1118619340742108    0.18824104732035288    0.2869512803854257    
  0.3796393022581315    0.4352661722034949    0.4420105586640676    0.41023794980435596    0.3586061691383024    
  0.30193823537788683    0.2484551459243305    0.20172537530923446    0.16269465159963775    0.1309919944102762    
  0.10580781686994485    0.0862901363318496    0.07156921418593507    0.06076655856208058    0.05310910273607433    
  0.04801845321428258    0.045110795811193885    0.04416576812962366    0.04416576812962363    0.04511079581119384    
  0.04801845321428246    0.05310910273607433    0.06076655856208061    0.07156921418593502    0.08629013633184957    
  0.10580781686994485    0.13099199441027617    0.16269465159963772    0.20172537530923448    0.2484551459243306    
  0.30193823537788683    0.3586061691383025    0.4102379498043559    0.44201055866406747    0.43526617220349506    
  0.3796393022581314    0.2869512803854258    0.18824104732035288    0.11186193407421098    0.06694433102104887    
  0.04788202022536135    0.0478820202253614    0.06694433102104887    0.1118619340742109    0.18824104732035288    
  0.2869512803854257    0.37963930225813136    0.43526617220349495    0.44201055866406747    0.41023794980435596    
  0.35860616913830246    0.3019382353778869    0.2484551459243305    0.20172537530923446    0.16269465159963772    
  0.13099199441027623    0.10580781686994488    0.08629013633184957    0.07156921418593507    0.06076655856208063    
  0.05310910273607428    0.04801845321428255    0.04511079581119384    0.04416576812962363    0.04607134914887933    
  0.047026388946931404    0.049962053845861554    0.05509230493843853    0.06278895708811308    0.07361268399556825    
  0.08831853746328504    0.10777481248694525    0.1328468879288697    0.16437401780579447    0.2031412151773889    
  0.24951044824104965    0.3026006160792006    0.35910181643893585    0.4114664089984247    0.4460426206650751    
  0.445137593812472    0.3975574884908167    0.3118739882412658    0.21578057844595053    0.13739663937164362    
  0.08865295834132875    0.06694433102104883    0.06694433102104892    0.08865295834132877    0.13739663937164345    
  0.21578057844595044    0.3118739882412658    0.3975574884908167    0.445137593812472    0.4460426206650751    
  0.41146640899842474    0.35910181643893585    0.30260061607920063    0.2495104482410495    0.2031412151773888    
  0.16437401780579447    0.1328468879288697    0.10777481248694527    0.08831853746328504    0.07361268399556825    
  0.0627889570881131    0.05509230493843853    0.04996205384586167    0.047026388946931404    0.04607134914887933    
  0.050028651766739284    0.05100174459991323    0.05398685116530941    0.05918402164989477    0.06694115947767333    
  0.07778507367971763    0.0924358781499882    0.11173981855303851    0.13654895412568746    0.16767034036179948    
  0.20583036854882053    0.25135936957107213    0.30347946023861483    0.3593216342553726    0.4125001414233014    
  0.45147461029092084    0.4605938407085748    0.42794695068488536    0.3570075083144656    0.26917050498783657    
  0.1907243680498753    0.13739663937164345    0.1118619340742108    0.11186193407421087    0.13739663937164345    
  0.1907243680498752    0.2691705049878365    0.35700750831446565    0.42794695068488536    0.4605938407085746    
  0.45147461029092095    0.4125001414233015    0.3593216342553725    0.30347946023861483    0.251359369571072    
  0.2058303685488205    0.16767034036179942    0.13654895412568746    0.11173981855303854    0.0924358781499883    
  0.07778507367971767    0.06694115947767333    0.059184021649894794    0.05398685116530945    0.05100174459991323    
  0.050028651766739284    0.05633762372726934    0.057332368436189295    0.06037456646335491    0.06564234451485483    
  0.07344877733182946    0.0842727082098397    0.09878197442397772    0.11778334140913112    0.14209837174180645    
  0.17247587249499666    0.20954283802111237    0.253561118355783    0.3038572746762729    0.3580683135159682    
  0.411156525088297    0.4541721248811268    0.4744687999366674    0.4606150960520585    0.41135399971826075    
  0.3402839900383171    0.2691705049878365    0.2157805784459504    0.18824104732035285    0.18824104732035288    
  0.21578057844595033    0.2691705049878364    0.34028399003831716    0.41135399971826075    0.4606150960520585    
  0.47446879993666735    0.45417212488112685    0.4111565250882971    0.35806831351596824    0.3038572746762729    
  0.2535611183557829    0.20954283802111232    0.17247587249499663    0.14209837174180648    0.1177833414091311    
  0.09878197442397772    0.0842727082098397    0.07344877733182946    0.06564234451485483    0.060374566463355026    
  0.057332368436189315    0.05633762372726934    0.06547756289473518    0.06648994091018273    0.0695745120432724    
  0.07488085556049755    0.0826783855047095    0.09338523692231475    0.10759677473679956    0.12605429082196495    